Title
81312
    1CHL1    C3    1   1.588   5.298  10.177  0.3465 -0.5333 -0.0073
    1CHL1    H3    2   1.650   5.390  10.181 -1.5888  0.9811 -2.8338
    1CHL1    O3    3   1.526   5.271  10.299  0.2692 -0.5404 -0.1408
    1CHL1   H3'    4   1.445   5.223  10.278 -0.5410  1.4704 -1.7303
    1CHL1    C4    5   1.469   5.310  10.078 -0.3847  0.2965 -0.2627
    1CHL1   H4A    6   1.404   5.222  10.097  1.4449 -1.3906 -1.5986
    1CHL1   H4B    7   1.410   5.402  10.093  0.4154  1.1063 -1.9465
    1CHL1    C5    8   1.490   5.304   9.929 -0.0483  0.1711  0.5015
    1CHL1    C6    9   1.443   5.397   9.850 -0.7132  0.4796  0.5095
    1CHL1    H6   10   1.393   5.489   9.883 -0.7442  1.1235 -1.2980
    1CHL1    C7   11   1.444   5.383   9.699  0.2898  0.0388  0.2472
    1CHL1   H7A   12   1.341   5.391   9.656  0.6778  1.5561 -0.4532
    1CHL1   H7B   13   1.496   5.470   9.654  0.6244  0.1451  0.8288
    1CHL1    C8   14   1.515   5.261   9.643  0.8063 -0.1035  0.6201
    1CHL1    H8   15   1.440   5.181   9.628  1.0989 -0.4037  0.7576
    1CHL1   C14   16   1.568   5.285   9.503  0.3975 -0.4237 -0.2990
    1CHL1   H14   17   1.644   5.366   9.513  0.5916 -0.6398 -0.0032
    1CHL1   C15   18   1.478   5.343   9.396 -0.2342 -0.0027  0.1314
    1CHL1  H15A   19   1.377   5.298   9.390 -1.4419  2.4219  1.5723
    1CHL1  H15B   20   1.457   5.452   9.410 -2.6082 -0.5094  0.6350
    1CHL1   C16   21   1.562   5.322   9.268 -0.0881 -0.4089  0.5672
    1CHL1  H16A   22   1.493   5.272   9.197 -1.6853  1.5341  0.7002
    1CHL1  H16B   23   1.600   5.414   9.219  1.2863 -2.1299 -1.6713
    1CHL1   C17   24   1.682   5.228   9.303 -0.3792  0.1241 -0.3082
    1CHL1   H17   25   1.769   5.294   9.326 -0.6031 -1.2847  5.3068
    1CHL1   C13   26   1.643   5.166   9.439  0.7249 -0.7904 -0.4769
    1CHL1   C18   27   1.546   5.041   9.410  0.3294  0.2398 -0.4085
    1CHL1  H18A   28   1.502   4.997   9.502  0.7063  3.1490  1.2401
    1CHL1  H18B   29   1.460   5.087   9.356 -0.2687  2.0300  1.9725
    1CHL1  H18C   30   1.592   4.963   9.346 -0.5163 -1.2150  0.7206
    1CHL1   C12   31   1.754   5.124   9.528 -0.0243  0.4139  0.3612
    1CHL1  H12A   32   1.808   5.036   9.486  0.4623  0.3108  1.1904
    1CHL1  H12B   33   1.834   5.200   9.536  0.9770 -0.6101  0.1849
    1CHL1   C11   34   1.702   5.087   9.677 -0.0234  0.2998 -0.7241
    1CHL1  H11A   35   1.649   4.993   9.652 -0.9519  0.5286  0.3375
    1CHL1  H11B   36   1.794   5.068   9.737 -1.6192  0.4262  1.8464
    1CHL1    C9   37   1.626   5.208   9.733 -0.2539  0.1047 -0.2351
    1CHL1    H9   38   1.696   5.295   9.734 -2.1057  1.6302 -0.1781
    1CHL1   C10   39   1.578   5.189   9.883  0.4790 -0.8716  0.4330
    1CHL1   C19   40   1.497   5.056   9.891  0.0834 -0.2729 -0.1727
    1CHL1  H19A   41   1.456   5.046   9.994  1.0370  0.9211  0.3322
    1CHL1  H19B   42   1.410   5.053   9.821  0.1628 -1.4959 -0.2405
    1CHL1  H19C   43   1.555   4.963   9.871  0.6165  0.0876 -0.2844
    1CHL1    C1   44   1.706   5.192   9.976  0.4960  0.5265 -0.2927
    1CHL1   H1A   45   1.763   5.099   9.957  1.4153  0.7865  1.1175
    1CHL1   H1B   46   1.755   5.290   9.954 -0.7137  2.0237  3.3519
    1CHL1    C2   47   1.682   5.185  10.136  0.6150 -0.4047  0.2826
    1CHL1   H2A   48   1.783   5.190  10.181  0.3042  1.8550  0.7618
    1CHL1   H2B   49   1.634   5.086  10.150 -2.0211  1.1505  2.6883
    1CHL1   C20   50   1.722   5.131   9.190  0.3944  0.5492  0.0146
    1CHL1   H20   51   1.775   5.038   9.220  0.3673 -0.6325 -3.3761
    1CHL1   C21   52   1.822   5.209   9.111  0.2031 -0.0207 -0.7983
    1CHL1  H21A   53   1.862   5.153   9.024 -2.2859 -3.3285  0.1208
    1CHL1  H21B   54   1.907   5.251   9.170  2.7451 -0.5333 -3.9542
    1CHL1  H21C   55   1.777   5.303   9.072  2.1997  0.4737 -1.9823
    1CHL1   C22   56   1.615   5.077   9.089  0.1478  0.5053 -0.7742
    1CHL1  H22A   57   1.535   5.032   9.151  1.1593 -1.0587 -0.5731
    1CHL1  H22B   58   1.567   5.161   9.034  2.1368  1.5901 -0.9105
    1CHL1   C23   59   1.678   4.975   8.997  0.5333 -0.6478  0.2056
    1CHL1  H23A   60   1.739   5.013   8.913 -0.7822  0.4487 -0.2787
    1CHL1  H23B   61   1.750   4.915   9.057  0.7962  1.8007  2.4220
    1CHL1   C24   62   1.575   4.881   8.933 -0.8976 -0.4647 -0.3923
    1CHL1  H24A   63   1.515   4.831   9.013  0.0546  0.6221  1.0414
    1CHL1  H24B   64   1.500   4.933   8.870 -0.4550  0.9952  0.2650
    1CHL1   C25   65   1.637   4.777   8.842 -0.5466 -0.7317 -0.3093
    1CHL1   H25   66   1.737   4.751   8.881  0.3953  1.8564 -0.9679
    1CHL1   C26   67   1.559   4.646   8.855 -1.0048  0.1174  0.3225
    1CHL1  H26A   68   1.450   4.654   8.833 -1.3508  1.3694  2.3752
    1CHL1  H26B   69   1.611   4.559   8.811  0.8824  0.5791  1.5649
    1CHL1  H26C   70   1.562   4.625   8.964  0.7356  0.4218  0.3408
    1CHL1   C27   71   1.652   4.834   8.699 -0.3146 -0.3210  0.4742
    1CHL1  H27A   72   1.680   4.940   8.717  0.2402 -0.7714  2.3875
    1CHL1  H27B   73   1.723   4.778   8.635 -0.6736 -0.6905  0.4015
    1CHL1  H27C   74   1.551   4.817   8.658 -0.9630  0.2255  1.8082
    2CHL1    C3   75   3.198   2.891  10.000 -0.8103  0.6185 -0.0143
    2CHL1    H3   76   3.303   2.924   9.987 -1.0765  0.2439 -3.6807
    2CHL1    O3   77   3.160   2.873  10.131  0.0004  0.4196  0.3487
    2CHL1   H3'   78   3.177   2.779  10.139  2.8099  0.6060 -2.5791
    2CHL1    C4   79   3.123   3.008   9.927  0.1067  0.5544  0.0779
    2CHL1   H4A   80   3.017   2.976   9.931  0.1508  0.3442 -0.4401
    2CHL1   H4B   81   3.140   3.099   9.989  1.6436 -0.3813  1.0899
    2CHL1    C5   82   3.150   3.026   9.778 -0.1363  0.5890 -0.2843
    2CHL1    C6   83   3.183   3.149   9.726  0.3873 -0.2885 -1.0200
    2CHL1    H6   84   3.186   3.242   9.785  0.4969 -1.3791  0.7544
    2CHL1    C7   85   3.208   3.167   9.581  0.6523 -0.6965  0.3052
    2CHL1   H7A   86   3.180   3.272   9.558  0.4928 -0.0865  3.0527
    2CHL1   H7B   87   3.317   3.171   9.561  0.7313 -0.0274  0.8676
    2CHL1    C8   88   3.154   3.049   9.495  0.3412  0.0892  0.2110
    2CHL1    H8   89   3.044   3.065   9.490  0.6333  1.5221 -2.3498
    2CHL1   C14   90   3.202   3.064   9.351  0.1240 -0.1745 -0.4184
    2CHL1   H14   91   3.313   3.057   9.361  0.0703  0.6513  1.0405
    2CHL1   C15   92   3.175   3.201   9.285  0.4319  0.0950 -0.1096
    2CHL1  H15A   93   3.067   3.221   9.302 -0.0203 -1.9338 -0.4614
    2CHL1  H15B   94   3.241   3.280   9.327  0.3823 -1.0704  2.1991
    2CHL1   C16   95   3.205   3.170   9.140 -0.3398 -0.7515 -0.4347
    2CHL1  H16A   96   3.120   3.206   9.077  0.8202  0.7898 -1.1599
    2CHL1  H16B   97   3.295   3.219   9.097 -0.3932 -0.1385  0.1422
    2CHL1   C17   98   3.220   3.013   9.128 -0.6964  0.8298 -0.4977
    2CHL1   H17   99   3.330   3.000   9.136 -0.8246  0.0677  0.1312
    2CHL1   C13  100   3.161   2.951   9.254 -0.3601 -0.8112 -0.5475
    2CHL1   C18  101   3.005   2.935   9.243 -0.3244 -0.9361 -0.4174
    2CHL1  H18A  102   2.976   3.040   9.222  1.3061 -0.9204 -2.8557
    2CHL1  H18B  103   2.973   2.870   9.158 -0.9926 -2.3360  0.8931
    2CHL1  H18C  104   2.961   2.904   9.340 -1.1905 -0.9094 -0.7985
    2CHL1   C12  105   3.223   2.823   9.299 -0.2335  0.1710 -0.0528
    2CHL1  H12A  106   3.180   2.745   9.234 -0.2163 -0.0474  0.1966
    2CHL1  H12B  107   3.334   2.824   9.294 -0.2269 -2.5957 -1.0228
    2CHL1   C11  108   3.176   2.795   9.445 -0.2999 -0.0886  0.7665
    2CHL1  H11A  109   3.071   2.760   9.447 -0.4692  0.3829 -0.0952
    2CHL1  H11B  110   3.244   2.710   9.472 -0.5338 -0.4205  0.3240
    2CHL1    C9  111   3.199   2.909   9.552 -0.4060 -0.4177 -0.4752
    2CHL1    H9  112   3.309   2.903   9.567 -0.5777  0.4138  1.1191
    2CHL1   C10  113   3.139   2.894   9.695 -0.1886 -0.1015  0.4590
    2CHL1   C19  114   2.995   2.853   9.682 -0.5748 -0.0995 -0.4301
    2CHL1  H19A  115   2.997   2.745   9.654  0.4491 -1.4371  4.3505
    2CHL1  H19B  116   2.944   2.846   9.780  0.0197  1.7034  0.0191
    2CHL1  H19C  117   2.933   2.903   9.605  0.5902  0.3124 -1.1106
    2CHL1    C1  118   3.230   2.793   9.769 -0.6299  0.0211 -0.0933
    2CHL1   H1A  119   3.234   2.701   9.707 -0.4096 -0.8959  1.2595
    2CHL1   H1B  120   3.333   2.833   9.779 -0.1059 -0.9763 -1.4674
    2CHL1    C2  121   3.181   2.763   9.913 -0.2966  0.1884  0.1112
    2CHL1   H2A  122   3.239   2.687   9.969  0.0935  0.5561  0.2108
    2CHL1   H2B  123   3.075   2.729   9.914  0.3177 -1.7482 -0.0198
    2CHL1   C20  124   3.191   2.957   8.990 -0.2880 -0.0994 -0.2995
    2CHL1   H20  125   3.175   2.850   9.015 -0.7293  0.3488  1.4489
    2CHL1   C21  126   3.313   2.984   8.896  0.7663  0.7812  0.7667
    2CHL1  H21A  127   3.291   2.932   8.800  1.4778 -1.1359  1.6250
    2CHL1  H21B  128   3.411   2.947   8.933  1.2047  0.2632 -0.8809
    2CHL1  H21C  129   3.316   3.089   8.859 -0.4226  0.3437 -0.6119
    2CHL1   C22  130   3.063   3.012   8.915  0.4594 -0.1618  0.7007
    2CHL1  H22A  131   2.973   2.996   8.978 -1.3382  0.0798 -1.7240
    2CHL1  H22B  132   3.067   3.122   8.898  0.5082  0.0748  2.2103
    2CHL1   C23  133   3.012   2.933   8.784 -0.1849  0.6697  0.6365
    2CHL1  H23A  134   3.102   2.907   8.725 -1.3629 -0.2771 -0.7766
    2CHL1  H23B  135   2.965   2.843   8.830 -0.7457 -0.0645 -1.3169
    2CHL1   C24  136   2.911   2.990   8.692 -0.5405 -0.5840  0.7208
    2CHL1  H24A  137   2.825   3.044   8.738 -0.1144  1.6193 -1.0132
    2CHL1  H24B  138   2.976   3.053   8.629  1.0299 -1.5833  1.2854
    2CHL1   C25  139   2.826   2.901   8.596  0.2260  0.7677 -0.0662
    2CHL1   H25  140   2.892   2.829   8.543  2.9810  3.2560 -0.1427
    2CHL1   C26  141   2.726   2.809   8.668  0.0408 -1.2863 -0.3876
    2CHL1  H26A  142   2.669   2.739   8.603  1.9289 -2.0372 -1.2828
    2CHL1  H26B  143   2.781   2.750   8.744  0.4386 -1.2789 -0.6681
    2CHL1  H26C  144   2.658   2.873   8.729  0.7426 -0.9291  0.0172
    2CHL1   C27  145   2.748   2.982   8.493  0.8194  0.3749  0.2737
    2CHL1  H27A  146   2.662   3.033   8.543  2.1082  0.9269  1.9747
    2CHL1  H27B  147   2.820   3.057   8.454  0.2501  1.2174  0.8253
    2CHL1  H27C  148   2.713   2.910   8.417  2.4509 -1.0485  0.8554
    3CHL1    C3  149   3.810   3.180  10.119 -0.2017  0.3000  0.0639
    3CHL1    H3  150   3.712   3.229  10.104  0.5039  1.3156 -1.3856
    3CHL1    O3  151   3.849   3.162  10.253 -0.2480  0.0513 -0.1716
    3CHL1   H3'  152   3.786   3.099  10.288 -1.0948  0.3139 -1.2165
    3CHL1    C4  153   3.812   3.047  10.055  0.4036  0.1560 -0.2668
    3CHL1   H4A  154   3.912   2.999  10.054  0.0946 -0.4798 -1.8463
    3CHL1   H4B  155   3.752   2.970  10.109 -0.7107 -0.3096 -2.1298
    3CHL1    C5  156   3.775   3.055   9.911  0.8829  0.2997 -0.1815
    3CHL1    C6  157   3.663   3.001   9.860  0.6998  0.0740  0.0248
    3CHL1    H6  158   3.598   2.939   9.923  2.9114 -1.0943  1.2017
    3CHL1    C7  159   3.626   3.007   9.710 -0.5769  0.3524 -0.4295
    3CHL1   H7A  160   3.589   2.911   9.667 -0.0812  0.8649 -2.0169
    3CHL1   H7B  161   3.534   3.069   9.715 -0.5751  0.2366  1.8548
    3CHL1    C8  162   3.744   3.056   9.624 -0.5768  0.5035 -0.9369
    3CHL1    H8  163   3.822   2.977   9.625 -0.7083  0.3777  1.8358
    3CHL1   C14  164   3.690   3.084   9.480 -0.6740 -0.8889  0.4530
    3CHL1   H14  165   3.623   3.172   9.489 -1.1799 -1.0490 -1.4577
    3CHL1   C15  166   3.597   2.978   9.415 -0.3461  0.0633  0.5169
    3CHL1  H15A  167   3.633   2.874   9.425  0.9461  0.2858 -1.4082
    3CHL1  H15B  168   3.495   2.982   9.459 -0.3835  4.2550  0.3179
    3CHL1   C16  169   3.604   3.021   9.266 -0.0400  0.1046 -0.1226
    3CHL1  H16A  170   3.634   2.943   9.194  0.9009  0.0444  0.3338
    3CHL1  H16B  171   3.510   3.058   9.219 -0.2846  1.7216  1.5896
    3CHL1   C17  172   3.715   3.127   9.254 -0.2071  0.2117 -0.1475
    3CHL1   H17  173   3.663   3.225   9.247 -0.4242  0.1145  0.1197
    3CHL1   C13  174   3.794   3.135   9.385 -0.8716  0.6557  0.6363
    3CHL1   C18  175   3.914   3.039   9.358  0.0175 -0.2766 -0.6625
    3CHL1  H18A  176   3.995   3.080   9.294  0.5880  0.9939  0.8577
    3CHL1  H18B  177   3.963   3.006   9.452  0.6759 -3.9325 -2.1722
    3CHL1  H18C  178   3.881   2.948   9.302 -1.3970 -0.1403 -0.0745
    3CHL1   C12  179   3.838   3.273   9.438  0.4330 -0.6009 -0.4271
    3CHL1  H12A  180   3.925   3.313   9.382  0.0159 -0.2261 -0.8096
    3CHL1  H12B  181   3.762   3.352   9.448  0.0643 -1.2250  1.9292
    3CHL1   C11  182   3.900   3.254   9.584 -0.7173 -0.8602 -0.1710
    3CHL1  H11A  183   3.998   3.203   9.571 -1.1272 -1.8792  0.6284
    3CHL1  H11B  184   3.923   3.355   9.625  0.9299 -1.4052  0.2765
    3CHL1    C9  185   3.810   3.174   9.681 -1.1701  0.0326 -0.0095
    3CHL1    H9  186   3.729   3.248   9.698 -1.6637 -0.4459 -0.2791
    3CHL1   C10  187   3.868   3.144   9.822 -0.5783  0.6498  0.2563
    3CHL1   C19  188   4.009   3.076   9.809  0.0556  0.6613  0.0925
    3CHL1  H19A  189   3.993   2.977   9.761 -0.6018  1.5627 -1.5621
    3CHL1  H19B  190   4.084   3.142   9.761  0.2740  0.1931 -0.2072
    3CHL1  H19C  191   4.053   3.046   9.907 -0.1861 -1.9108 -0.5578
    3CHL1    C1  192   3.891   3.278   9.899  0.0386  0.0578  0.6900
    3CHL1   H1A  193   3.977   3.326   9.847  0.4903 -1.6561 -0.1602
    3CHL1   H1B  194   3.804   3.346   9.882 -0.3077 -0.5919 -0.2030
    3CHL1    C2  195   3.922   3.268  10.049  0.4733 -0.0234 -0.4289
    3CHL1   H2A  196   3.918   3.373  10.085 -0.7425 -0.1060 -0.3011
    3CHL1   H2B  197   4.021   3.216  10.050  0.7153  0.4226  1.1561
    3CHL1   C20  198   3.795   3.120   9.119  0.3198 -0.7280 -0.1064
    3CHL1   H20  199   3.865   3.034   9.116  1.5702  0.2879 -0.3742
    3CHL1   C21  200   3.879   3.248   9.102 -0.2331  1.1110 -0.1496
    3CHL1  H21A  201   3.963   3.251   9.175 -0.4383  1.6693  0.0653
    3CHL1  H21B  202   3.820   3.341   9.113 -1.4694  0.0272  3.1543
    3CHL1  H21C  203   3.931   3.244   9.004  0.8309  0.6413  0.4252
    3CHL1   C22  204   3.697   3.107   8.992  0.1462  0.3207 -0.5178
    3CHL1  H22A  205   3.611   3.041   9.013  1.7757 -1.2908  1.3056
    3CHL1  H22B  206   3.655   3.207   8.967  0.7371  0.9766  1.0333
    3CHL1   C23  207   3.774   3.060   8.868 -0.2252  0.2357  0.1216
    3CHL1  H23A  208   3.865   3.121   8.852  0.1482 -0.3529 -0.0250
    3CHL1  H23B  209   3.814   2.961   8.897  0.1427  0.8223  1.6874
    3CHL1   C24  210   3.682   3.055   8.752 -0.0686  0.0804 -0.2082
    3CHL1  H24A  211   3.700   2.978   8.673  1.6354  0.0835  0.1736
    3CHL1  H24B  212   3.583   3.033   8.796 -1.3345  1.0394 -2.4738
    3CHL1   C25  213   3.677   3.188   8.676  0.5558 -0.2991  0.0096
    3CHL1   H25  214   3.689   3.278   8.740 -1.9062 -1.0660  1.6020
    3CHL1   C26  215   3.783   3.193   8.563 -0.1207 -0.1467 -0.1797
    3CHL1  H26A  216   3.780   3.288   8.507  2.0163  0.7464  1.1656
    3CHL1  H26B  217   3.887   3.185   8.602 -0.2617  0.3804  0.3052
    3CHL1  H26C  218   3.766   3.113   8.487  1.3216 -0.2663 -0.3943
    3CHL1   C27  219   3.531   3.197   8.620 -0.5342 -0.1932 -0.4493
    3CHL1  H27A  220   3.524   3.286   8.554  2.2689  1.7914  1.8189
    3CHL1  H27B  221   3.517   3.098   8.571 -2.5341 -0.9941  1.6327
    3CHL1  H27C  222   3.462   3.216   8.705  2.2417  1.8427  1.4400
    4CHL1    C3  223   3.480   4.737  10.421 -0.0344  0.0590 -0.0287
    4CHL1    H3  224   3.510   4.841  10.395  0.6535 -0.5409 -1.6626
    4CHL1    O3  225   3.467   4.731  10.566 -0.0957  0.1412 -0.3433
    4CHL1   H3'  226   3.474   4.639  10.592 -3.2612 -0.0810  0.0092
    4CHL1    C4  227   3.338   4.721  10.373 -0.4017 -0.0211  0.1731
    4CHL1   H4A  228   3.310   4.620  10.411  3.3511 -0.5501  1.8237
    4CHL1   H4B  229   3.261   4.786  10.418 -1.8172 -0.6967 -1.2493
    4CHL1    C5  230   3.337   4.735  10.223  0.0062 -0.4822 -0.4158
    4CHL1    C6  231   3.270   4.836  10.157 -0.4325  0.9690 -0.2261
    4CHL1    H6  232   3.217   4.911  10.218  1.4791  0.8429  1.6639
    4CHL1    C7  233   3.262   4.861  10.010 -0.6344  0.5740  0.6781
    4CHL1   H7A  234   3.168   4.905   9.972 -0.6271  0.5221  0.5992
    4CHL1   H7B  235   3.340   4.937   9.986 -1.5357  0.6814 -2.0731
    4CHL1    C8  236   3.305   4.739   9.930  0.4877 -0.4608  0.7990
    4CHL1    H8  237   3.218   4.670   9.932 -2.0908  2.6903  1.0308
    4CHL1   C14  238   3.330   4.779   9.786  0.1213  0.5960  0.3399
    4CHL1   H14  239   3.417   4.846   9.799  1.2595 -0.8895  0.5083
    4CHL1   C15  240   3.219   4.853   9.708 -0.2964 -0.3549  0.3524
    4CHL1  H15A  241   3.128   4.790   9.720 -0.0677 -0.8339 -0.3784
    4CHL1  H15B  242   3.207   4.953   9.753  1.1152 -0.2999  0.6222
    4CHL1   C16  243   3.260   4.838   9.557  0.0307  0.0245 -0.4308
    4CHL1  H16A  244   3.172   4.809   9.497 -0.1059  0.7320 -0.5846
    4CHL1  H16B  245   3.285   4.942   9.524 -0.3358 -0.0048 -0.8056
    4CHL1   C17  246   3.385   4.739   9.557  0.2900  0.7698 -0.3245
    4CHL1   H17  247   3.475   4.804   9.548  0.7368  0.1698 -0.1956
    4CHL1   C13  248   3.379   4.662   9.694 -0.6106  0.3358  0.4461
    4CHL1   C18  249   3.266   4.552   9.682  0.5109 -0.4159  0.1554
    4CHL1  H18A  250   3.172   4.610   9.668  1.7584  1.4386 -0.5840
    4CHL1  H18B  251   3.294   4.481   9.601  2.4213  0.3587  0.1288
    4CHL1  H18C  252   3.254   4.507   9.783  0.2403 -1.4686 -0.3342
    4CHL1   C12  253   3.517   4.616   9.748  0.7861 -1.3696 -0.9669
    4CHL1  H12A  254   3.560   4.535   9.686  3.9216  1.0623 -2.0835
    4CHL1  H12B  255   3.589   4.701   9.750  0.6161 -1.2360  1.3421
    4CHL1   C11  256   3.505   4.571   9.895 -0.4531  0.1993 -0.4905
    4CHL1  H11A  257   3.456   4.472   9.886 -0.9292  0.1518  2.2456
    4CHL1  H11B  258   3.611   4.561   9.926  0.0932  0.6114 -2.1278
    4CHL1    C9  259   3.434   4.673   9.991 -0.3900 -0.8036 -0.6604
    4CHL1    H9  260   3.499   4.763   9.992  1.1432 -1.8745  2.0951
    4CHL1   C10  261   3.422   4.635  10.142 -0.0903  0.3761  0.2246
    4CHL1   C19  262   3.349   4.498  10.150 -0.2303  0.3169  0.3164
    4CHL1  H19A  263   3.408   4.419  10.098 -1.5788 -0.0114 -0.7806
    4CHL1  H19B  264   3.330   4.470  10.256 -0.5785  0.7196  0.3619
    4CHL1  H19C  265   3.249   4.507  10.102 -1.9519 -2.2584  3.2444
    4CHL1    C1  266   3.565   4.636  10.210 -0.8112  0.6929 -0.2059
    4CHL1   H1A  267   3.621   4.552  10.163 -1.8787 -0.6232  0.8522
    4CHL1   H1B  268   3.616   4.731  10.180  0.2595 -0.2844 -1.5236
    4CHL1    C2  269   3.560   4.623  10.357  1.0324  0.0740  0.6185
    4CHL1   H2A  270   3.666   4.640  10.387  0.8127  0.6172  1.0862
    4CHL1   H2B  271   3.525   4.527  10.401  2.0480 -0.1487  0.9685
    4CHL1   C20  272   3.387   4.662   9.428  0.4218  0.3152  0.0695
    4CHL1   H20  273   3.299   4.595   9.424  1.6545 -1.2811 -0.8566
    4CHL1   C21  274   3.516   4.576   9.419 -0.0330  0.0829 -0.4665
    4CHL1  H21A  275   3.602   4.621   9.474 -0.6432  1.3707 -0.5496
    4CHL1  H21B  276   3.537   4.533   9.319  2.4429 -3.5432  1.5245
    4CHL1  H21C  277   3.503   4.484   9.480 -2.6584 -0.8943 -2.4182
    4CHL1   C22  278   3.385   4.747   9.302 -0.2376 -0.2863  0.0967
    4CHL1  H22A  279   3.364   4.689   9.209 -1.0819 -0.3452  0.3201
    4CHL1  H22B  280   3.304   4.822   9.313  1.1835  1.0757  1.4187
    4CHL1   C23  281   3.506   4.836   9.265 -0.1425  0.0624 -0.2247
    4CHL1  H23A  282   3.544   4.898   9.349  1.4945 -0.4804 -0.5598
    4CHL1  H23B  283   3.593   4.770   9.248 -0.1237  0.9285 -3.8175
    4CHL1   C24  284   3.478   4.922   9.133  0.0173 -0.8141  0.0200
    4CHL1  H24A  285   3.444   4.849   9.057 -2.1954 -0.3748  0.5749
    4CHL1  H24B  286   3.393   4.990   9.152 -1.4969 -2.9338  0.9449
    4CHL1   C25  287   3.602   5.005   9.075 -0.4825 -0.0774 -0.7794
    4CHL1   H25  288   3.696   4.949   9.097  0.8132  2.3382  0.0855
    4CHL1   C26  289   3.580   5.019   8.922  0.0839 -0.1657 -0.0719
    4CHL1  H26A  290   3.482   5.067   8.897 -0.1361  1.3294  3.3894
    4CHL1  H26B  291   3.661   5.082   8.879 -0.2651 -0.5413 -1.3116
    4CHL1  H26C  292   3.599   4.921   8.874 -1.8873 -0.1499 -0.9321
    4CHL1   C27  293   3.633   5.138   9.142 -0.7533 -0.5921 -0.6030
    4CHL1  H27A  294   3.727   5.180   9.100  0.0236 -1.0472  0.6580
    4CHL1  H27B  295   3.546   5.196   9.103 -0.6527 -0.3412 -0.4581
    4CHL1  H27C  296   3.637   5.132   9.253 -1.8053 -0.6733 -0.5642
    5CHL1    C3  297   4.003   2.594   9.940  0.0984 -0.3493  0.9636
    5CHL1    H3  298   3.898   2.559   9.926 -0.1743  1.1023 -0.7951
    5CHL1    O3  299   4.028   2.625  10.071  0.4412 -0.4356  0.1163
    5CHL1   H3'  300   3.949   2.672  10.099  0.6507  0.1409 -0.2237
    5CHL1    C4  301   4.089   2.481   9.887 -0.8984 -1.1587  0.2307
    5CHL1   H4A  302   4.187   2.518   9.924 -0.8568 -0.6667 -0.3759
    5CHL1   H4B  303   4.082   2.386   9.944  0.0729 -1.0165  0.6054
    5CHL1    C5  304   4.088   2.457   9.738 -0.1109  0.0418 -0.3985
    5CHL1    C6  305   4.076   2.332   9.695  0.1074 -0.2629 -0.0609
    5CHL1    H6  306   4.067   2.251   9.769  1.1785 -1.5730 -1.3335
    5CHL1    C7  307   4.066   2.298   9.546 -0.6907  0.4385 -0.4122
    5CHL1   H7A  308   4.136   2.213   9.537  1.0376  1.6399  1.1846
    5CHL1   H7B  309   3.956   2.288   9.529 -1.1179  1.5275  1.5046
    5CHL1    C8  310   4.109   2.419   9.447  0.3285  0.5447  0.2918
    5CHL1    H8  311   4.220   2.429   9.440  0.3937  0.1397  0.7301
    5CHL1   C14  312   4.059   2.401   9.300  0.0828 -0.3746 -0.4029
    5CHL1   H14  313   3.948   2.402   9.300  0.0797 -0.6211 -0.5423
    5CHL1   C15  314   4.096   2.256   9.244  0.5807  0.8291 -0.5274
    5CHL1  H15A  315   4.202   2.237   9.271  0.8866  1.9061 -0.9331
    5CHL1  H15B  316   4.029   2.176   9.281  1.2661 -0.6151 -2.3274
    5CHL1   C16  317   4.081   2.278   9.099  0.0017 -0.2133 -0.0745
    5CHL1  H16A  318   4.185   2.251   9.069 -0.1611 -1.9386  0.8088
    5CHL1  H16B  319   4.010   2.209   9.049 -1.8750 -1.2408  3.8033
    5CHL1   C17  320   4.052   2.429   9.074  0.4657 -0.2815 -0.2794
    5CHL1   H17  321   3.941   2.432   9.079  0.4858 -2.9572  4.4226
    5CHL1   C13  322   4.100   2.500   9.202 -0.5115 -0.3595  0.2664
    5CHL1   C18  323   4.255   2.520   9.196  0.0504 -0.8070 -0.3184
    5CHL1  H18A  324   4.301   2.563   9.288 -2.7717  1.3877  0.1447
    5CHL1  H18B  325   4.315   2.427   9.180  0.0012 -0.8456 -0.2792
    5CHL1  H18C  326   4.267   2.590   9.111 -0.7644  1.0425  1.0536
    5CHL1   C12  327   4.040   2.632   9.250  0.3763  0.1185 -0.4712
    5CHL1  H12A  328   4.065   2.710   9.174  1.9933 -0.7904 -0.9097
    5CHL1  H12B  329   3.933   2.606   9.236  1.1794 -3.0194 -1.0708
    5CHL1   C11  330   4.073   2.663   9.398  0.1977  0.0712  0.4991
    5CHL1  H11A  331   4.172   2.713   9.407  0.0520  0.7218 -1.3013
    5CHL1  H11B  332   3.999   2.742   9.425 -0.1402 -1.1897  3.4543
    5CHL1    C9  333   4.054   2.550   9.503 -0.7030  1.3523  0.7959
    5CHL1    H9  334   3.946   2.525   9.505 -0.7653  1.6037  0.6256
    5CHL1   C10  335   4.099   2.585   9.645  0.1200 -0.6875 -0.1290
    5CHL1   C19  336   4.251   2.629   9.660 -0.0221  0.5564  0.9349
    5CHL1  H19A  337   4.264   2.733   9.624 -0.7626  0.4235  0.2696
    5CHL1  H19B  338   4.267   2.634   9.770 -1.8467 -1.5995  1.3209
    5CHL1  H19C  339   4.314   2.550   9.613  0.8831  2.6424 -1.4649
    5CHL1    C1  340   3.996   2.694   9.701  0.0232  0.4389 -0.4607
    5CHL1   H1A  341   4.011   2.795   9.656 -1.0691  1.3133  1.0877
    5CHL1   H1B  342   3.889   2.665   9.690  0.2576 -1.1652  1.3306
    5CHL1    C2  343   4.007   2.719   9.854 -0.3116 -0.1270  0.0006
    5CHL1   H2A  344   3.919   2.778   9.887  1.8601  1.8093  2.5297
    5CHL1   H2B  345   4.098   2.778   9.878  0.9307 -2.3077  0.8407
    5CHL1   C20  346   4.091   2.475   8.931  0.0093 -0.1328  0.5722
    5CHL1   H20  347   4.202   2.477   8.935  0.0075 -0.3923  0.7874
    5CHL1   C21  348   4.023   2.609   8.897  0.5701  0.5039  0.8004
    5CHL1  H21A  349   4.073   2.674   8.822  0.2908  0.5401  0.6449
    5CHL1  H21B  350   4.013   2.681   8.982 -1.1679 -0.4917  1.4640
    5CHL1  H21C  351   3.917   2.585   8.873  1.6057 -0.5213 -3.1867
    5CHL1   C22  352   4.077   2.373   8.827  0.5841 -0.1565  0.2717
    5CHL1  H22A  353   4.139   2.288   8.862  0.2756  0.0112  1.2376
    5CHL1  H22B  354   3.973   2.336   8.827  1.3965 -2.5676 -1.2937
    5CHL1   C23  355   4.113   2.416   8.681  0.2963 -0.1792 -1.0644
    5CHL1  H23A  356   4.026   2.481   8.656 -1.1537 -1.3685  0.7524
    5CHL1  H23B  357   4.204   2.479   8.683 -0.6245  1.1515 -0.1449
    5CHL1   C24  358   4.124   2.303   8.581 -0.1361  0.0398  0.7171
    5CHL1  H24A  359   4.214   2.240   8.594  0.3075  0.6628  0.6612
    5CHL1  H24B  360   4.035   2.237   8.588  0.2835 -0.5642  0.3207
    5CHL1   C25  361   4.122   2.353   8.432  0.1654  0.0474 -0.4328
    5CHL1   H25  362   4.027   2.404   8.405 -1.3772 -2.3918  0.2143
    5CHL1   C26  363   4.243   2.446   8.406  0.1293  0.3131  0.4712
    5CHL1  H26A  364   4.335   2.392   8.437  0.2051  1.1957  1.8299
    5CHL1  H26B  365   4.249   2.468   8.298 -2.5961  0.9983  0.4377
    5CHL1  H26C  366   4.239   2.543   8.460  1.0897  1.2579 -1.1095
    5CHL1   C27  367   4.129   2.227   8.336 -0.3739  0.0466  0.0083
    5CHL1  H27A  368   4.219   2.171   8.370 -1.3113 -0.9997  0.8394
    5CHL1  H27B  369   4.039   2.170   8.369 -0.3574  0.6911  1.2018
    5CHL1  H27C  370   4.125   2.251   8.228  0.1327 -1.1180 -0.2819
    6CHL1    C3  371   1.857   6.508  10.490 -0.3420  0.6888 -0.0397
    6CHL1    H3  372   1.882   6.401  10.473 -0.4688  0.9643 -2.1581
    6CHL1    O3  373   1.878   6.530  10.629 -0.0574 -0.4277  0.6845
    6CHL1   H3'  374   1.794   6.566  10.659 -1.7332 -1.3221 -2.7132
    6CHL1    C4  375   1.965   6.587  10.414  0.1129  0.0235 -0.3969
    6CHL1   H4A  376   1.969   6.694  10.443 -1.0632 -0.4964  1.8392
    6CHL1   H4B  377   2.062   6.542  10.445  0.2543 -0.1936 -1.1591
    6CHL1    C5  378   1.924   6.587  10.267 -0.3434 -0.1970  0.2739
    6CHL1    C6  379   2.016   6.537  10.185  0.3390 -0.0419  0.5215
    6CHL1    H6  380   2.111   6.513  10.234 -0.5328  0.8385  2.6854
    6CHL1    C7  381   2.012   6.538  10.033  0.1602  0.5912  0.4771
    6CHL1   H7A  382   2.109   6.563   9.985  0.3310  1.5698  1.3227
    6CHL1   H7B  383   1.974   6.441   9.995  0.3851 -0.1048  2.0074
    6CHL1    C8  384   1.899   6.628   9.987  0.3247  0.2232 -0.4406
    6CHL1    H8  385   1.937   6.732   9.995 -0.5810  0.4577  0.9014
    6CHL1   C14  386   1.875   6.613   9.840  1.1562 -0.1817  0.3878
    6CHL1   H14  387   1.838   6.509   9.826 -2.2090  1.0006 -0.0568
    6CHL1   C15  388   1.997   6.609   9.748 -0.4095 -0.7087 -0.1457
    6CHL1  H15A  389   2.070   6.689   9.773 -0.5206 -0.3001 -1.1455
    6CHL1  H15B  390   2.048   6.510   9.758  1.2726  0.2908  1.4888
    6CHL1   C16  391   1.934   6.640   9.608  0.3292  0.8858  0.1740
    6CHL1  H16A  392   1.964   6.733   9.556 -0.4087 -0.5528 -2.9164
    6CHL1  H16B  393   1.964   6.554   9.545  1.4578  1.6714 -0.3717
    6CHL1   C17  394   1.778   6.648   9.625  0.1938  0.5410  0.2460
    6CHL1   H17  395   1.740   6.544   9.629  2.7599 -0.3934  1.4148
    6CHL1   C13  396   1.763   6.702   9.768  0.4903  0.3504  0.4210
    6CHL1   C18  397   1.804   6.848   9.763 -0.0773 -0.0687 -0.2075
    6CHL1  H18A  398   1.897   6.874   9.709 -0.2575 -1.0134 -0.9777
    6CHL1  H18B  399   1.718   6.894   9.711  0.8368 -0.8103 -2.4117
    6CHL1  H18C  400   1.792   6.905   9.858  0.0333  0.5939 -0.5911
    6CHL1   C12  401   1.631   6.675   9.844  0.8403  0.0429 -0.0258
    6CHL1  H12A  402   1.547   6.740   9.813 -0.0240 -0.9255  0.2674
    6CHL1  H12B  403   1.613   6.570   9.815 -0.4866 -0.2381  1.7068
    6CHL1   C11  404   1.645   6.698   9.995  0.6024 -0.2431  0.9771
    6CHL1  H11A  405   1.644   6.805  10.025  0.6768 -0.7368  2.7608
    6CHL1  H11B  406   1.555   6.654  10.043 -1.0440 -1.3088 -2.9192
    6CHL1    C9  407   1.764   6.624  10.062 -0.4758  0.4140  0.1023
    6CHL1    H9  408   1.738   6.516  10.062  3.8734 -0.7644  2.2024
    6CHL1   C10  409   1.789   6.649  10.218  0.3194  0.5362 -0.0211
    6CHL1   C19  410   1.788   6.799  10.255  0.1404 -0.5987  0.5187
    6CHL1  H19A  411   1.796   6.826  10.363  1.4483 -0.1404  0.3161
    6CHL1  H19B  412   1.858   6.861  10.195 -2.7656  1.2171 -1.1170
    6CHL1  H19C  413   1.684   6.834  10.234  1.3007  1.9273 -1.2930
    6CHL1    C1  414   1.687   6.566  10.307 -0.8896  0.0520 -0.6078
    6CHL1   H1A  415   1.585   6.609  10.301  0.2323  2.6503 -1.8620
    6CHL1   H1B  416   1.693   6.465  10.261  0.9168  0.2181 -0.7934
    6CHL1    C2  417   1.714   6.554  10.460  0.6784  0.4630  0.3327
    6CHL1   H2A  418   1.650   6.476  10.507  1.1908 -1.3231 -1.8467
    6CHL1   H2B  419   1.699   6.660  10.490 -1.4020  0.2251  0.2179
    6CHL1   C20  420   1.708   6.717   9.500 -0.0508  1.2736  0.1473
    6CHL1   H20  421   1.755   6.817   9.483  1.7671  0.4322  0.1561
    6CHL1   C21  422   1.558   6.746   9.521 -0.2936 -0.1278 -0.1791
    6CHL1  H21A  423   1.498   6.657   9.551 -1.2985 -0.5135 -3.1929
    6CHL1  H21B  424   1.517   6.801   9.433  0.6571 -0.6583 -0.9595
    6CHL1  H21C  425   1.548   6.816   9.606 -0.2264  0.2038 -0.4432
    6CHL1   C22  426   1.719   6.627   9.369 -0.5954 -0.0548 -0.1861
    6CHL1  H22A  427   1.826   6.630   9.337 -0.5728 -1.8953 -0.3191
    6CHL1  H22B  428   1.686   6.522   9.381  1.2494 -0.5271  0.9919
    6CHL1   C23  429   1.657   6.678   9.243 -0.6546  0.5804  0.4254
    6CHL1  H23A  430   1.548   6.696   9.241 -0.4078  2.0454 -2.0312
    6CHL1  H23B  431   1.707   6.775   9.222  4.1388 -1.7383  0.5460
    6CHL1   C24  432   1.679   6.586   9.124  0.5519  0.1863 -0.2268
    6CHL1  H24A  433   1.788   6.586   9.104  0.8045  2.3816  0.9955
    6CHL1  H24B  434   1.635   6.489   9.155  0.6871  0.0821 -0.3641
    6CHL1   C25  435   1.608   6.639   8.998  0.1340 -0.4405 -0.4135
    6CHL1   H25  436   1.509   6.674   9.035  0.1314 -2.0616  1.1842
    6CHL1   C26  437   1.679   6.755   8.939  0.7739 -0.1024  0.3276
    6CHL1  H26A  438   1.690   6.830   9.021  0.2360  1.1700 -0.7405
    6CHL1  H26B  439   1.775   6.728   8.890 -0.4484  1.1507 -2.8251
    6CHL1  H26C  440   1.610   6.811   8.872 -1.9121 -3.4718  0.1549
    6CHL1   C27  441   1.579   6.520   8.906 -0.0968 -0.2894 -0.0285
    6CHL1  H27A  442   1.499   6.449   8.938 -0.9656  0.6587 -0.0730
    6CHL1  H27B  443   1.546   6.574   8.815  0.4913  2.6380  1.4497
    6CHL1  H27C  444   1.672   6.468   8.876 -1.0737 -0.9613 -1.9622
    7CHL1    C3  445   5.216   2.899  10.314 -0.6129 -0.1409  0.1874
    7CHL1    H3  446   5.228   2.799  10.267  2.0714  1.2230 -2.1643
    7CHL1    O3  447   5.192   2.882  10.451 -0.0964 -0.1465  0.4928
    7CHL1   H3'  448   5.126   2.812  10.454  2.5236 -2.7245  0.1713
    7CHL1    C4  449   5.346   2.970  10.271 -0.1232  0.4949  0.0948
    7CHL1   H4A  450   5.344   3.072  10.315  0.3581  0.1073  1.0317
    7CHL1   H4B  451   5.434   2.921  10.318  0.0029  0.0095 -0.6437
    7CHL1    C5  452   5.359   2.991  10.123  0.5523  0.0682  0.2734
    7CHL1    C6  453   5.467   2.949  10.052  0.3254 -0.4617  0.3859
    7CHL1    H6  454   5.548   2.900  10.109  1.0021 -0.0961 -0.2461
    7CHL1    C7  455   5.482   2.950   9.905  0.1140 -0.2631 -0.3599
    7CHL1   H7A  456   5.582   2.973   9.862 -0.8917  0.0452 -2.5950
    7CHL1   H7B  457   5.467   2.846   9.869  1.9699 -0.3003 -1.0927
    7CHL1    C8  458   5.380   3.042   9.839  0.1769 -0.6695 -0.4407
    7CHL1    H8  459   5.408   3.145   9.869  1.5712 -1.7010  1.9062
    7CHL1   C14  460   5.374   3.018   9.685  0.9379  0.4897  0.4633
    7CHL1   H14  461   5.329   2.918   9.670  0.6645  0.3337  2.2304
    7CHL1   C15  462   5.506   3.007   9.612  0.4197  0.6443 -1.2248
    7CHL1  H15A  463   5.569   3.087   9.657  0.3583  0.5934 -1.0471
    7CHL1  H15B  464   5.546   2.905   9.629  0.9349  1.2592  1.4111
    7CHL1   C16  465   5.475   3.046   9.463 -0.4183  0.5185  0.1405
    7CHL1  H16A  466   5.525   3.143   9.445 -1.6122  1.0390 -0.4645
    7CHL1  H16B  467   5.531   2.980   9.393 -1.7050 -0.6856  0.2147
    7CHL1   C17  468   5.323   3.066   9.458  0.1582  0.4694  0.2236
    7CHL1   H17  469   5.271   2.968   9.462  4.6245 -2.0138  2.7277
    7CHL1   C13  470   5.287   3.117   9.604 -0.0629  0.2838  0.1765
    7CHL1   C18  471   5.329   3.269   9.628  0.4010  0.0994 -0.7661
    7CHL1  H18A  472   5.261   3.332   9.568  0.9884  0.0095 -1.5349
    7CHL1  H18B  473   5.325   3.301   9.734  1.0705 -1.1553 -0.3545
    7CHL1  H18C  474   5.431   3.291   9.589 -0.1797 -1.3965 -3.2390
    7CHL1   C12  475   5.143   3.098   9.653 -0.5330 -0.0572  0.2810
    7CHL1  H12A  476   5.080   3.182   9.617 -1.0451 -0.2487  0.7217
    7CHL1  H12B  477   5.099   3.004   9.612  0.5568  0.0881 -1.2399
    7CHL1   C11  478   5.129   3.114   9.809 -1.2503  0.5506 -0.0021
    7CHL1  H11A  479   5.152   3.221   9.827  2.0647 -0.1098  0.0097
    7CHL1  H11B  480   5.026   3.093   9.845 -0.0028 -3.0891  1.7333
    7CHL1    C9  481   5.231   3.029   9.894 -0.6709  0.4825  0.3801
    7CHL1    H9  482   5.206   2.923   9.872 -0.3790  0.6170 -0.6444
    7CHL1   C10  483   5.230   3.048  10.044  0.4896  0.0333  0.6342
    7CHL1   C19  484   5.212   3.200  10.071  0.8743 -0.3371 -0.2565
    7CHL1  H19A  485   5.238   3.214  10.178 -0.7111 -1.9124  0.3421
    7CHL1  H19B  486   5.283   3.261  10.010 -0.1878  0.5254 -0.6408
    7CHL1  H19C  487   5.107   3.236  10.067  0.6629 -0.7546  1.3586
    7CHL1    C1  488   5.103   2.974  10.102  0.4163  0.2379 -0.1692
    7CHL1   H1A  489   5.006   3.003  10.056  0.3658  0.2708 -0.0417
    7CHL1   H1B  490   5.125   2.873  10.061  1.6946  0.1765  0.6532
    7CHL1    C2  491   5.091   2.963  10.251 -0.1060 -0.7538  0.0045
    7CHL1   H2A  492   4.997   2.919  10.292 -1.4746  1.2375 -0.8521
    7CHL1   H2B  493   5.088   3.068  10.288 -1.0978 -1.9921  3.6653
    7CHL1   C20  494   5.280   3.149   9.339  0.2387  0.2147 -0.3905
    7CHL1   H20  495   5.278   3.259   9.355  1.0830  0.6958 -3.2216
    7CHL1   C21  496   5.136   3.110   9.305 -0.2334 -0.3626  0.0369
    7CHL1  H21A  497   5.108   3.163   9.211 -0.3901 -0.4959  0.0101
    7CHL1  H21B  498   5.073   3.140   9.391 -0.6725 -1.2442  0.0308
    7CHL1  H21C  499   5.132   3.000   9.287  1.8142 -0.5752  0.7519
    7CHL1   C22  500   5.373   3.132   9.215 -0.0121  0.0829  0.6397
    7CHL1  H22A  501   5.460   3.201   9.214 -0.0596  0.1780  2.7079
    7CHL1  H22B  502   5.406   3.028   9.192  1.0125  0.8954 -1.8353
    7CHL1   C23  503   5.308   3.172   9.077  0.1150  0.0715 -1.4622
    7CHL1  H23A  504   5.229   3.097   9.058  1.2964 -1.4032 -0.6691
    7CHL1  H23B  505   5.265   3.274   9.094 -0.9543 -0.3179 -1.7860
    7CHL1   C24  506   5.399   3.188   8.955 -0.5022  0.3777  0.2843
    7CHL1  H24A  507   5.475   3.267   8.975 -1.1821  0.6739  1.7035
    7CHL1  H24B  508   5.453   3.091   8.949  0.3409  0.8152  0.7006
    7CHL1   C25  509   5.333   3.226   8.825  0.3743  0.1838  0.0015
    7CHL1   H25  510   5.415   3.246   8.754 -1.0388  2.0311 -1.1558
    7CHL1   C26  511   5.270   3.114   8.743  0.4187 -0.2186  0.2041
    7CHL1  H26A  512   5.219   3.142   8.648  1.1723  2.5936  0.5699
    7CHL1  H26B  513   5.317   3.013   8.739  0.8417  0.0285 -1.0827
    7CHL1  H26C  514   5.179   3.095   8.804 -0.3699  0.1717 -0.8407
    7CHL1   C27  515   5.248   3.359   8.836  0.4009  0.3661 -0.7079
    7CHL1  H27A  516   5.306   3.443   8.880 -1.1673  0.5434  1.0697
    7CHL1  H27B  517   5.211   3.391   8.736 -2.8893 -0.3222  0.2218
    7CHL1  H27C  518   5.152   3.342   8.890 -0.0764  0.3423 -1.5449
    8CHL1    C3  519   5.707   5.062  10.403 -0.7240 -0.5314 -0.2709
    8CHL1    H3  520   5.797   5.121  10.376 -1.6118  1.5514  1.2714
    8CHL1    O3  521   5.706   5.058  10.538 -0.4925 -0.0307 -0.3272
    8CHL1   H3'  522   5.642   4.991  10.559  1.4376 -2.1855 -1.1277
    8CHL1    C4  523   5.578   5.134  10.358 -0.3489  0.0414 -0.0542
    8CHL1   H4A  524   5.491   5.076  10.394 -2.0934  1.1446 -2.3055
    8CHL1   H4B  525   5.576   5.235  10.404  0.2408 -0.1844  0.4712
    8CHL1    C5  526   5.558   5.140  10.211  0.5046 -0.7484  0.4234
    8CHL1    C6  527   5.536   5.251  10.146 -0.0927 -0.2932 -0.0996
    8CHL1    H6  528   5.522   5.348  10.197 -0.8748  1.2343 -3.0991
    8CHL1    C7  529   5.513   5.255   9.995 -0.0407 -0.1419  0.2632
    8CHL1   H7A  530   5.423   5.314   9.970  0.8047  1.2971  0.5971
    8CHL1   H7B  531   5.602   5.307   9.954 -0.2061 -0.8255 -0.9897
    8CHL1    C8  532   5.498   5.114   9.930 -0.1742 -0.3198 -0.2185
    8CHL1    H8  533   5.394   5.082   9.951 -0.4446 -0.5691 -1.8354
    8CHL1   C14  534   5.506   5.126   9.786  0.0924  0.2330  0.3717
    8CHL1   H14  535   5.609   5.166   9.771  0.0288  1.0162  1.9792
    8CHL1   C15  536   5.419   5.234   9.719  0.8352 -0.5419  0.4319
    8CHL1  H15A  537   5.312   5.239   9.748  0.5595 -0.0688 -0.6602
    8CHL1  H15B  538   5.467   5.331   9.743 -0.3450 -0.0759  0.9767
    8CHL1   C16  539   5.430   5.197   9.569  1.1894  0.5782 -0.6341
    8CHL1  H16A  540   5.329   5.185   9.523  0.7378  2.0141 -0.0442
    8CHL1  H16B  541   5.473   5.284   9.514 -2.1443  1.5895 -1.7522
    8CHL1   C17  542   5.515   5.059   9.561  0.3484  0.3675  0.4729
    8CHL1   H17  543   5.618   5.101   9.561  1.1480 -1.5430  0.1139
    8CHL1   C13  544   5.497   4.996   9.698 -0.5315  0.1167  0.0712
    8CHL1   C18  545   5.356   4.931   9.707 -0.2280  0.1709  0.4715
    8CHL1  H18A  546   5.334   4.926   9.816 -0.1550  4.6938  0.8205
    8CHL1  H18B  547   5.277   4.995   9.663 -0.2598 -0.2526 -0.0847
    8CHL1  H18C  548   5.349   4.831   9.661 -2.5791 -0.0971  1.3729
    8CHL1   C12  549   5.606   4.909   9.752 -0.7268 -0.4022  0.7064
    8CHL1  H12A  550   5.612   4.807   9.707 -1.1946 -0.6553  1.2036
    8CHL1  H12B  551   5.703   4.961   9.740 -0.6561 -0.6347  0.2619
    8CHL1   C11  552   5.608   4.888   9.904  0.2296  0.5486 -0.1679
    8CHL1  H11A  553   5.521   4.825   9.933 -0.2733  0.7787 -1.1441
    8CHL1  H11B  554   5.693   4.822   9.931 -0.2829  0.1058  0.3837
    8CHL1    C9  555   5.595   5.015   9.988 -0.4748  0.0669 -0.3979
    8CHL1    H9  556   5.692   5.064   9.964 -1.5542  2.4446 -0.0743
    8CHL1   C10  557   5.581   5.001  10.142  0.9170 -0.7233  0.9189
    8CHL1   C19  558   5.450   4.923  10.162  0.2880  0.1050 -1.2871
    8CHL1  H19A  559   5.415   4.919  10.267 -0.4812 -3.1699 -1.5938
    8CHL1  H19B  560   5.375   4.985  10.109  1.2923  1.4951 -1.0993
    8CHL1  H19C  561   5.463   4.819  10.124  0.4407 -1.3959  2.6315
    8CHL1    C1  562   5.706   4.926  10.193 -0.6976  0.4432 -0.5620
    8CHL1   H1A  563   5.718   4.826  10.147  0.6348 -0.6857  2.1349
    8CHL1   H1B  564   5.796   4.974  10.149  0.1792 -0.4206  0.2598
    8CHL1    C2  565   5.716   4.915  10.349  1.0470 -0.3880 -0.1607
    8CHL1   H2A  566   5.809   4.862  10.380  0.6341 -0.0697  1.6656
    8CHL1   H2B  567   5.631   4.854  10.385  0.7053  0.1587 -0.0275
    8CHL1   C20  568   5.494   4.983   9.433  0.7856  0.2205 -0.4609
    8CHL1   H20  569   5.387   4.953   9.431  0.4274  1.5371 -2.0489
    8CHL1   C21  570   5.577   4.850   9.424  0.2270  0.1225 -0.6953
    8CHL1  H21A  571   5.582   4.816   9.318  1.3139 -0.5447 -0.4370
    8CHL1  H21B  572   5.524   4.770   9.481  0.1053 -0.0234 -1.0115
    8CHL1  H21C  573   5.677   4.865   9.470  0.8400 -0.6942 -1.7189
    8CHL1   C22  574   5.501   5.060   9.305 -0.5969  0.2159 -0.1083
    8CHL1  H22A  575   5.501   4.984   9.224 -1.4071 -1.1524  1.1428
    8CHL1  H22B  576   5.421   5.133   9.280 -0.0464  0.6751 -0.5336
    8CHL1   C23  577   5.634   5.141   9.282  0.4774 -0.8290 -0.8431
    8CHL1  H23A  578   5.650   5.214   9.365 -2.5177  0.0327 -0.9662
    8CHL1  H23B  579   5.716   5.066   9.292 -0.9605 -2.2338  0.6785
    8CHL1   C24  580   5.650   5.212   9.144 -0.5796 -0.5367 -0.3430
    8CHL1  H24A  581   5.651   5.140   9.059  1.8492 -0.8980 -0.0302
    8CHL1  H24B  582   5.561   5.278   9.140  1.3194  2.0954 -0.6842
    8CHL1   C25  583   5.762   5.304   9.135  0.2214  0.2737  0.1762
    8CHL1   H25  584   5.733   5.389   9.201  0.1254  0.4194 -0.0491
    8CHL1   C26  585   5.896   5.239   9.169 -0.5903 -0.0853 -0.2368
    8CHL1  H26A  586   5.971   5.319   9.190 -0.7622  0.4166 -1.4835
    8CHL1  H26B  587   5.899   5.167   9.253  4.1225 -0.7737 -0.8743
    8CHL1  H26C  588   5.938   5.174   9.089 -0.8981  1.5821 -1.8035
    8CHL1   C27  589   5.783   5.370   8.995  0.2096 -0.5670 -0.0699
    8CHL1  H27A  590   5.881   5.419   8.980 -0.4546  1.4735  1.9436
    8CHL1  H27B  591   5.773   5.291   8.919 -1.4813 -0.0906 -0.3794
    8CHL1  H27C  592   5.703   5.439   8.961 -1.5561 -2.4992  0.0723
    9CHL1    C3  593   1.752   0.783  10.187  0.1627  0.5237 -0.2972
    9CHL1    H3  594   1.802   0.687  10.160 -0.5728  0.1872 -0.4849
    9CHL1    O3  595   1.735   0.773  10.330  0.2682 -0.1329  0.0689
    9CHL1   H3'  596   1.663   0.831  10.357  2.3090  1.3757  2.6342
    9CHL1    C4  597   1.823   0.904  10.149  0.3933 -0.8234 -0.0395
    9CHL1   H4A  598   1.778   0.998  10.187 -0.0371 -0.4966 -1.3118
    9CHL1   H4B  599   1.914   0.907  10.213  0.7430 -1.0035 -0.5208
    9CHL1    C5  600   1.850   0.922   9.997 -0.4935  0.1245  0.8833
    9CHL1    C6  601   1.974   0.916   9.938  0.6606  0.3082 -0.2123
    9CHL1    H6  602   2.058   0.910  10.008 -0.3822  0.6425  1.0798
    9CHL1    C7  603   1.994   0.924   9.787  1.0075  0.4999  0.2422
    9CHL1   H7A  604   2.080   0.984   9.750  0.1331  0.7197 -1.4881
    9CHL1   H7B  605   2.019   0.819   9.761  0.4491  0.5679 -0.6040
    9CHL1    C8  606   1.873   0.970   9.701  0.1687 -0.4939 -0.6055
    9CHL1    H8  607   1.864   1.078   9.724  0.8069 -0.5306 -0.1630
    9CHL1   C14  608   1.890   0.939   9.547  0.5230  0.4657  0.6972
    9CHL1   H14  609   1.893   0.828   9.536  0.8268  0.5085  0.3538
    9CHL1   C15  610   2.010   0.994   9.475 -0.7646 -0.1908  0.8808
    9CHL1  H15A  611   2.028   1.098   9.509  1.4297  0.3715 -1.8757
    9CHL1  H15B  612   2.104   0.939   9.492 -1.1784 -0.4257  2.4919
    9CHL1   C16  613   1.976   0.994   9.322  0.4978  0.6071 -0.2415
    9CHL1  H16A  614   1.992   1.097   9.284 -2.2320  1.0018 -0.4295
    9CHL1  H16B  615   2.040   0.920   9.270 -1.5699 -0.9921 -0.5640
    9CHL1   C17  616   1.823   0.960   9.310  0.2526 -0.2275  0.5042
    9CHL1   H17  617   1.814   0.851   9.289 -2.3524  0.0746  0.0029
    9CHL1   C13  618   1.774   0.981   9.454  0.6703  0.7383  0.0662
    9CHL1   C18  619   1.749   1.135   9.485 -0.8783 -0.2008 -0.2415
    9CHL1  H18A  620   1.726   1.153   9.592  0.8835  0.8939 -0.0166
    9CHL1  H18B  621   1.833   1.200   9.452 -0.2648 -1.5299 -1.3236
    9CHL1  H18C  622   1.655   1.164   9.433  0.0984  0.3996 -1.7099
    9CHL1   C12  623   1.657   0.892   9.503  0.5234 -0.8289 -0.0694
    9CHL1  H12A  624   1.561   0.916   9.453 -2.0675 -1.1315  4.4319
    9CHL1  H12B  625   1.682   0.786   9.482  0.0853 -0.7381 -1.0556
    9CHL1   C11  626   1.625   0.907   9.657 -0.2670 -0.1068  0.5060
    9CHL1  H11A  627   1.590   1.011   9.675 -1.0892  0.1137 -2.2558
    9CHL1  H11B  628   1.549   0.834   9.692 -0.9400  1.1025  1.6400
    9CHL1    C9  629   1.755   0.888   9.753  0.0153  0.1308  0.2633
    9CHL1    H9  630   1.784   0.782   9.740  2.2513  0.8056 -0.3389
    9CHL1   C10  631   1.724   0.912   9.904  0.6704 -0.0338 -0.7341
    9CHL1   C19  632   1.643   1.042   9.933  0.6702 -0.7297  0.0659
    9CHL1  H19A  633   1.686   1.134   9.888 -0.5597  0.1558  0.6613
    9CHL1  H19B  634   1.533   1.029   9.922  0.5364 -1.0174  1.6190
    9CHL1  H19C  635   1.645   1.062  10.042  0.7251  0.8735 -0.2106
    9CHL1    C1  636   1.630   0.801   9.966 -0.3767 -0.1806  0.4467
    9CHL1   H1A  637   1.532   0.805   9.913 -0.2738 -1.0627  0.1818
    9CHL1   H1B  638   1.671   0.701   9.939 -1.4082 -0.5905  0.3857
    9CHL1    C2  639   1.615   0.785  10.119  0.2762  0.2749  0.7334
    9CHL1   H2A  640   1.555   0.696  10.148 -2.4237  1.1169 -1.9414
    9CHL1   H2B  641   1.564   0.876  10.155 -0.6039  1.1035 -2.4190
    9CHL1   C20  642   1.753   1.024   9.195 -0.7969  0.3907  0.7161
    9CHL1   H20  643   1.755   1.135   9.200  0.8084  0.4455 -0.7182
    9CHL1   C21  644   1.604   0.981   9.203 -0.0032 -0.3552 -0.6147
    9CHL1  H21A  645   1.604   0.871   9.217 -0.4047 -0.3461 -0.5418
    9CHL1  H21B  646   1.543   1.010   9.115 -1.9749 -0.8414  0.5625
    9CHL1  H21C  647   1.547   1.028   9.285 -0.4585  0.0628 -1.1605
    9CHL1   C22  648   1.815   0.980   9.062  0.6119 -0.5142  0.5384
    9CHL1  H22A  649   1.926   0.988   9.068  0.6364 -0.0242 -0.5968
    9CHL1  H22B  650   1.785   0.874   9.052  2.5441 -0.9585 -0.6892
    9CHL1   C23  651   1.772   1.038   8.926  0.0462  0.0879 -1.0175
    9CHL1  H23A  652   1.662   1.037   8.910 -0.4179  2.1058  1.6964
    9CHL1  H23B  653   1.795   1.147   8.924 -1.0363  0.3387 -0.4179
    9CHL1   C24  654   1.834   0.966   8.810 -0.0165  0.4661  0.6988
    9CHL1  H24A  655   1.943   0.984   8.812 -0.0565  1.3827 -2.7603
    9CHL1  H24B  656   1.816   0.857   8.826  0.9459  0.4814  1.9623
    9CHL1   C25  657   1.787   1.012   8.666  0.9434  0.0444  0.6444
    9CHL1   H25  658   1.689   0.967   8.638  1.5078 -1.2003  0.6624
    9CHL1   C26  659   1.783   1.166   8.655 -0.2884 -0.2792  0.3688
    9CHL1  H26A  660   1.784   1.197   8.549 -2.1163  2.5514  1.1342
    9CHL1  H26B  661   1.694   1.208   8.706 -0.6307 -0.6679  0.0890
    9CHL1  H26C  662   1.872   1.200   8.712 -0.8412  1.7182  0.0801
    9CHL1   C27  663   1.882   0.942   8.559  0.3357  0.2085  0.0379
    9CHL1  H27A  664   1.851   0.985   8.462  0.9832 -1.1220 -0.7802
    9CHL1  H27B  665   1.987   0.969   8.583 -0.2770  1.6106  1.1929
    9CHL1  H27C  666   1.864   0.832   8.558 -0.1352  0.2922 -1.9899
   10CHL1    C3  667   0.684   4.649  10.121  0.3926 -0.7371 -0.5353
   10CHL1    H3  668   0.655   4.543  10.108 -1.4801 -0.6733  2.6349
   10CHL1    O3  669   0.697   4.671  10.264  0.2684 -0.0042  0.4850
   10CHL1   H3'  670   0.606   4.659  10.289  0.3053  0.1917  0.7132
   10CHL1    C4  671   0.818   4.674  10.050 -0.2223 -0.2676 -0.9047
   10CHL1   H4A  672   0.851   4.778  10.072  1.0761 -1.1053  1.2496
   10CHL1   H4B  673   0.892   4.604  10.095  0.2131 -0.5152 -1.9917
   10CHL1    C5  674   0.796   4.651   9.901 -0.1055 -0.1642  0.3010
   10CHL1    C6  675   0.872   4.548   9.849 -0.4915 -0.4028  0.3712
   10CHL1    H6  676   0.958   4.504   9.902  0.2474  0.0657 -0.4135
   10CHL1    C7  677   0.854   4.521   9.699 -0.2975  0.3725 -1.2367
   10CHL1   H7A  678   0.953   4.512   9.649 -0.0012 -1.5925 -0.3367
   10CHL1   H7B  679   0.807   4.423   9.680  3.0176 -1.6207  0.2869
   10CHL1    C8  680   0.783   4.636   9.619  0.3125 -0.1184  0.1474
   10CHL1    H8  681   0.864   4.711   9.610  0.9450 -0.8164 -0.0127
   10CHL1   C14  682   0.742   4.587   9.484 -0.5180  0.3263  1.2293
   10CHL1   H14  683   0.681   4.494   9.494  0.5253 -0.4658  0.4091
   10CHL1   C15  684   0.860   4.534   9.390 -0.2570 -0.3984 -0.0581
   10CHL1  H15A  685   0.932   4.619   9.388 -1.7013  0.8993  1.4597
   10CHL1  H15B  686   0.893   4.433   9.421 -0.7703 -0.5625 -0.0402
   10CHL1   C16  687   0.800   4.530   9.252 -0.6626  0.1024 -0.2362
   10CHL1  H16A  688   0.870   4.583   9.184 -1.4535  1.9218  0.3410
   10CHL1  H16B  689   0.786   4.426   9.214  0.1612 -0.0642 -0.0771
   10CHL1   C17  690   0.660   4.596   9.265  0.9397 -0.0401  0.0769
   10CHL1   H17  691   0.589   4.514   9.287 -0.0144  0.8662  0.3998
   10CHL1   C13  692   0.665   4.684   9.401  0.1869  0.4232  0.5762
   10CHL1   C18  693   0.745   4.807   9.367 -0.4633  0.1382  0.9708
   10CHL1  H18A  694   0.663   4.876   9.338 -0.0515  0.4106  0.4395
   10CHL1  H18B  695   0.796   4.845   9.458  2.8291 -0.6443 -0.4807
   10CHL1  H18C  696   0.819   4.794   9.286 -2.3305  0.5878 -0.8291
   10CHL1   C12  697   0.535   4.701   9.478 -0.1777 -0.5187  0.5599
   10CHL1  H12A  698   0.467   4.773   9.428 -1.5806 -1.2192  1.4160
   10CHL1  H12B  699   0.474   4.609   9.490 -0.9354 -0.0176  0.5412
   10CHL1   C11  700   0.565   4.772   9.616  0.3520 -0.1567  0.4327
   10CHL1  H11A  701   0.610   4.873   9.603  0.7235 -0.2372  1.0896
   10CHL1  H11B  702   0.470   4.780   9.674 -1.1594 -2.7401 -1.5351
   10CHL1    C9  703   0.658   4.678   9.696  0.3088  0.1716 -0.4783
   10CHL1    H9  704   0.592   4.590   9.708 -0.9153  1.1345 -0.1069
   10CHL1   C10  705   0.686   4.736   9.837 -0.3403 -0.0818 -0.2289
   10CHL1   C19  706   0.731   4.886   9.839  0.0509 -0.3195 -0.2695
   10CHL1  H19A  707   0.645   4.953   9.816  1.9699  2.1758 -0.3595
   10CHL1  H19B  708   0.755   4.919   9.942 -0.5157 -0.1757 -0.1850
   10CHL1  H19C  709   0.818   4.904   9.773 -0.5497  1.5023 -0.5998
   10CHL1    C1  710   0.554   4.716   9.923 -0.3049  0.2770  0.5689
   10CHL1   H1A  711   0.464   4.772   9.893  0.8240  0.7786 -2.0424
   10CHL1   H1B  712   0.520   4.613   9.898 -1.1331  0.6670  0.0893
   10CHL1    C2  713   0.574   4.741  10.074 -0.0961 -0.2075  0.5029
   10CHL1   H2A  714   0.481   4.724  10.134 -0.7657 -0.8719 -0.7164
   10CHL1   H2B  715   0.593   4.848  10.099 -1.4662  0.6611 -2.0312
   10CHL1   C20  716   0.608   4.655   9.128 -0.1457  0.6538 -0.9868
   10CHL1   H20  717   0.642   4.760   9.117  0.8050  0.4080 -0.5047
   10CHL1   C21  718   0.454   4.643   9.141  0.0359  0.2458  0.1196
   10CHL1  H21A  719   0.418   4.738   9.186 -1.1924 -0.5017  0.7506
   10CHL1  H21B  720   0.414   4.556   9.198 -0.8658 -0.1031 -1.0425
   10CHL1  H21C  721   0.411   4.635   9.039  2.1524 -1.0790 -0.7074
   10CHL1   C22  722   0.674   4.570   9.007 -0.1664 -0.3042  0.0287
   10CHL1  H22A  723   0.784   4.568   8.999 -0.3072 -1.9605 -1.6125
   10CHL1  H22B  724   0.656   4.461   9.017  0.3429 -0.5277 -1.3823
   10CHL1   C23  725   0.618   4.604   8.866 -0.6593 -0.0444 -0.0032
   10CHL1  H23A  726   0.658   4.532   8.791  2.1202  0.3937  1.0007
   10CHL1  H23B  727   0.508   4.614   8.874 -1.3105 -4.8922 -1.5044
   10CHL1   C24  728   0.663   4.744   8.822 -0.1325  0.3519 -0.5806
   10CHL1  H24A  729   0.644   4.811   8.908  1.0116  0.4040 -0.3573
   10CHL1  H24B  730   0.774   4.739   8.815  0.0760 -1.7412  3.0992
   10CHL1   C25  731   0.615   4.801   8.689  0.0584 -0.4005  0.3460
   10CHL1   H25  732   0.506   4.822   8.693  0.2147  0.4793  0.1625
   10CHL1   C26  733   0.704   4.932   8.652  0.2080 -0.0219 -0.7146
   10CHL1  H26A  734   0.731   4.991   8.743 -0.2486 -1.7350  0.5573
   10CHL1  H26B  735   0.794   4.891   8.602  0.9669  0.2780  0.3901
   10CHL1  H26C  736   0.656   5.004   8.583  0.1991 -0.0109 -0.6976
   10CHL1   C27  737   0.631   4.704   8.570  0.3536 -0.2856 -0.1099
   10CHL1  H27A  738   0.729   4.653   8.587  0.7330 -0.1160 -1.7049
   10CHL1  H27B  739   0.548   4.630   8.568  0.3149 -0.3086  1.4066
   10CHL1  H27C  740   0.632   4.762   8.476  0.6748  0.9558  0.6476
   11CHL1    C3  741   3.358   1.132  10.044 -0.5054 -1.2382  0.7249
   11CHL1    H3  742   3.288   1.046  10.047  0.6373 -2.3250 -1.8977
   11CHL1    O3  743   3.399   1.152  10.177 -0.5252 -0.5092 -0.6505
   11CHL1   H3'  744   3.448   1.235  10.181 -0.1465 -0.8171  1.3878
   11CHL1    C4  745   3.484   1.114   9.954 -0.0149  0.2210 -0.4279
   11CHL1   H4A  746   3.560   1.189   9.983  2.2408 -2.0242 -0.3073
   11CHL1   H4B  747   3.525   1.014   9.982  2.0157  1.0425 -0.3663
   11CHL1    C5  748   3.459   1.125   9.804 -0.1873  0.8619  0.6312
   11CHL1    C6  749   3.495   1.035   9.713 -0.2218 -0.4537 -0.1204
   11CHL1    H6  750   3.551   0.948   9.750  0.2079 -0.2118 -0.2046
   11CHL1    C7  751   3.469   1.047   9.572 -0.4816 -0.0843 -0.1265
   11CHL1   H7A  752   3.559   1.016   9.514  0.8875  0.0053  1.8614
   11CHL1   H7B  753   3.385   0.977   9.554  0.1493 -0.5498 -1.3001
   11CHL1    C8  754   3.412   1.184   9.521 -0.0969  1.2352 -1.0534
   11CHL1    H8  755   3.500   1.251   9.506 -0.8715  3.0044  1.8248
   11CHL1   C14  756   3.330   1.166   9.391 -0.4954 -0.2316 -0.2718
   11CHL1   H14  757   3.239   1.118   9.432 -0.5817 -1.7181 -2.1243
   11CHL1   C15  758   3.392   1.086   9.280  0.5693  0.9542  0.5460
   11CHL1  H15A  759   3.498   1.112   9.258  0.6487 -0.9851 -1.4419
   11CHL1  H15B  760   3.390   0.979   9.310  1.3791  1.3008  1.8805
   11CHL1   C16  761   3.295   1.119   9.160  0.0117 -0.1824 -0.5954
   11CHL1  H16A  762   3.354   1.155   9.073  0.3257 -1.3653 -0.8794
   11CHL1  H16B  763   3.229   1.034   9.129 -0.1348 -0.6192  0.8652
   11CHL1   C17  764   3.197   1.235   9.207  0.0761  0.1941 -0.3792
   11CHL1   H17  765   3.101   1.195   9.247 -0.8711 -0.6576 -3.4084
   11CHL1   C13  766   3.272   1.291   9.331 -0.5598 -0.4918 -0.1347
   11CHL1   C18  767   3.383   1.390   9.285 -0.0372  0.2090 -0.2076
   11CHL1  H18A  768   3.446   1.329   9.217 -1.3124 -0.7431 -0.5699
   11CHL1  H18B  769   3.348   1.478   9.228  0.2826  0.9861  0.7663
   11CHL1  H18C  770   3.443   1.438   9.365  0.6800 -0.9502 -0.0370
   11CHL1   C12  771   3.184   1.355   9.439 -0.9200  0.8775 -0.2467
   11CHL1  H12A  772   3.154   1.456   9.402  1.8146  1.0449 -2.1435
   11CHL1  H12B  773   3.092   1.293   9.441 -0.1998 -0.2319 -1.2537
   11CHL1   C11  774   3.252   1.370   9.576 -0.2596 -0.3931  0.0971
   11CHL1  H11A  775   3.323   1.455   9.570  0.3323 -0.8735  0.3135
   11CHL1  H11B  776   3.176   1.411   9.647 -0.6499 -1.6798  0.4391
   11CHL1    C9  777   3.315   1.242   9.627 -0.1286 -0.4383  0.6596
   11CHL1    H9  778   3.231   1.170   9.635  0.0158 -0.8803 -1.6310
   11CHL1   C10  779   3.374   1.253   9.774  0.0181  0.5502  0.1916
   11CHL1   C19  780   3.465   1.380   9.784 -0.2561 -0.2645  0.0426
   11CHL1  H19A  781   3.563   1.372   9.732 -0.5756  1.1089 -0.8020
   11CHL1  H19B  782   3.413   1.475   9.761 -2.4766 -2.0411 -2.5602
   11CHL1  H19C  783   3.493   1.399   9.890 -2.8347 -0.2062  0.7359
   11CHL1    C1  784   3.250   1.274   9.863  0.0404  0.5070 -0.2900
   11CHL1   H1A  785   3.205   1.374   9.847 -1.8075 -0.2628 -0.0220
   11CHL1   H1B  786   3.179   1.190   9.847  0.7333  0.0447 -0.9644
   11CHL1    C2  787   3.281   1.257  10.010  0.2169  0.2215 -0.2088
   11CHL1   H2A  788   3.182   1.267  10.060  0.2345 -0.9602  0.0833
   11CHL1   H2B  789   3.335   1.347  10.048  0.5606  0.0232 -0.2203
   11CHL1   C20  790   3.149   1.328   9.092  0.2127  0.6726  0.6647
   11CHL1   H20  791   3.240   1.380   9.052  1.2160  0.5433  2.7309
   11CHL1   C21  792   3.049   1.432   9.139  0.2775 -0.4608 -0.0860
   11CHL1  H21A  793   3.092   1.498   9.218  1.1131 -2.4247  1.1408
   11CHL1  H21B  794   2.969   1.376   9.192 -0.6487  0.8389 -0.0766
   11CHL1  H21C  795   3.009   1.494   9.056  1.2799  0.7094  0.2892
   11CHL1   C22  796   3.092   1.248   8.970  0.4505  0.0268 -0.3642
   11CHL1  H22A  797   3.159   1.165   8.940 -0.6212 -0.9126 -0.2046
   11CHL1  H22B  798   3.003   1.196   9.011 -0.3351  1.3352 -0.3888
   11CHL1   C23  799   3.054   1.331   8.847 -0.4010  0.6990  0.4254
   11CHL1  H23A  800   2.950   1.372   8.850 -1.3677 -1.5740 -0.6759
   11CHL1  H23B  801   3.128   1.413   8.840 -1.5222  1.9705  2.8193
   11CHL1   C24  802   3.076   1.248   8.717  0.0416  0.0398  0.9018
   11CHL1  H24A  803   3.178   1.205   8.706 -0.5667 -0.4843 -3.6705
   11CHL1  H24B  804   3.008   1.161   8.715  1.0099 -0.6970 -0.7464
   11CHL1   C25  805   3.074   1.328   8.584 -0.3803 -0.2723 -0.0641
   11CHL1   H25  806   3.153   1.406   8.590  0.8995 -1.7001  2.4407
   11CHL1   C26  807   3.093   1.235   8.473 -0.6364  0.1854  0.3014
   11CHL1  H26A  808   3.193   1.188   8.460  0.5710  3.0715 -1.3472
   11CHL1  H26B  809   3.016   1.155   8.481  0.9720 -1.3385  0.6578
   11CHL1  H26C  810   3.075   1.295   8.381  0.6044  1.6335  0.9831
   11CHL1   C27  811   2.944   1.414   8.577 -0.0073  0.1184 -0.7405
   11CHL1  H27A  812   2.859   1.348   8.605  0.2340 -0.0052 -0.2749
   11CHL1  H27B  813   2.943   1.497   8.650 -3.4458 -0.0248 -0.5568
   11CHL1  H27C  814   2.924   1.455   8.476 -0.5230  1.9005  0.0791
   12CHL1    C3  815   6.428   4.509  10.372  0.9909 -0.5930  0.0354
   12CHL1    H3  816   6.490   4.586  10.323 -0.8297 -0.2752 -1.8281
   12CHL1    O3  817   6.488   4.485  10.503  0.1739 -0.7120 -0.4094
   12CHL1   H3'  818   6.430   4.528  10.566  0.0888  1.1260 -1.6971
   12CHL1    C4  819   6.278   4.563  10.377 -0.5230  0.1635  0.1014
   12CHL1   H4A  820   6.214   4.495  10.437 -0.0870  1.6068  2.2442
   12CHL1   H4B  821   6.278   4.662  10.427 -1.8000  0.0046  0.4357
   12CHL1    C5  822   6.219   4.587  10.236 -1.0170 -0.2760 -0.5895
   12CHL1    C6  823   6.177   4.713  10.211 -0.1306 -0.2393  0.5146
   12CHL1    H6  824   6.185   4.786  10.293  2.2726 -1.1267  1.0996
   12CHL1    C7  825   6.127   4.753  10.078 -0.2138  0.0885  0.6051
   12CHL1   H7A  826   6.030   4.803  10.099 -0.8654 -0.5951 -0.7303
   12CHL1   H7B  827   6.197   4.829  10.037 -1.6783  0.5067 -1.1530
   12CHL1    C8  828   6.101   4.641   9.979  0.2675  0.3748  0.4762
   12CHL1    H8  829   6.014   4.583  10.016 -0.1047  1.2399  0.9642
   12CHL1   C14  830   6.093   4.686   9.837 -0.4425  0.3075 -0.2897
   12CHL1   H14  831   6.196   4.722   9.816 -0.6216  1.1972  0.3020
   12CHL1   C15  832   6.006   4.807   9.810 -0.2170 -0.2959 -0.1719
   12CHL1  H15A  833   5.909   4.796   9.863  0.4646 -0.3633  1.0744
   12CHL1  H15B  834   6.053   4.904   9.840  0.3798  0.0018 -2.0083
   12CHL1   C16  835   5.987   4.805   9.656  0.5014 -0.0487 -0.4497
   12CHL1  H16A  836   5.879   4.794   9.635 -0.3731  3.2569  1.8231
   12CHL1  H16B  837   6.032   4.900   9.620  1.8470  0.0317  1.3551
   12CHL1   C17  838   6.065   4.686   9.608  0.6799  0.8172 -0.2890
   12CHL1   H17  839   6.165   4.722   9.575  0.5314  2.1843  0.6913
   12CHL1   C13  840   6.081   4.594   9.725 -0.9052  1.2466 -0.2784
   12CHL1   C18  841   5.944   4.527   9.748 -0.1423 -0.2111  0.2489
   12CHL1  H18A  842   5.936   4.470   9.843  0.5618  0.7656  0.9140
   12CHL1  H18B  843   5.853   4.587   9.728  0.3940  0.0746 -1.3311
   12CHL1  H18C  844   5.930   4.452   9.668 -0.5995  0.6226 -0.4475
   12CHL1   C12  845   6.203   4.501   9.728 -0.3355  0.1236  0.0785
   12CHL1  H12A  846   6.186   4.416   9.659  0.2094 -1.3391  1.7295
   12CHL1  H12B  847   6.297   4.549   9.693  0.6669  0.0114  2.4913
   12CHL1   C11  848   6.212   4.431   9.865  0.3653  0.1325  0.4115
   12CHL1  H11A  849   6.123   4.366   9.878  0.3737  0.5169  2.5283
   12CHL1  H11B  850   6.296   4.358   9.865 -1.1523 -1.6593 -0.5892
   12CHL1    C9  851   6.220   4.534   9.987 -0.0806 -0.2809 -0.0907
   12CHL1    H9  852   6.306   4.602   9.975 -0.5519  0.1549 -1.0678
   12CHL1   C10  853   6.242   4.472  10.130  0.9292 -0.4917  0.1524
   12CHL1   C19  854   6.129   4.370  10.157  0.1395  0.1781 -0.1982
   12CHL1  H19A  855   6.032   4.397  10.112 -0.9718 -2.5852  0.4241
   12CHL1  H19B  856   6.152   4.270  10.115 -0.0811 -0.5105  1.2752
   12CHL1  H19C  857   6.128   4.346  10.266  2.2414 -0.9815 -0.4071
   12CHL1    C1  858   6.385   4.412  10.142  0.1689 -0.1695  0.2466
   12CHL1   H1A  859   6.392   4.320  10.080 -0.3359  0.2880 -0.4870
   12CHL1   H1B  860   6.453   4.472  10.079 -0.8074  0.0677 -0.6001
   12CHL1    C2  861   6.438   4.385  10.278  0.4144  0.3961 -0.5767
   12CHL1   H2A  862   6.537   4.335  10.284  0.4033  0.1762 -2.1492
   12CHL1   H2B  863   6.372   4.315  10.332 -0.5196  0.9128 -1.0431
   12CHL1   C20  864   6.012   4.624   9.476  0.0363  0.4878  0.2444
   12CHL1   H20  865   5.917   4.568   9.490 -0.5555  1.2897 -0.4956
   12CHL1   C21  866   6.116   4.524   9.421 -0.3772  0.0682 -0.1888
   12CHL1  H21A  867   6.103   4.423   9.464  0.0999 -0.8419 -2.1578
   12CHL1  H21B  868   6.220   4.556   9.442 -0.4868  1.0397 -1.1093
   12CHL1  H21C  869   6.111   4.508   9.311  2.6806  0.0670 -0.3588
   12CHL1   C22  870   5.997   4.744   9.372 -0.0299  0.3088 -0.1131
   12CHL1  H22A  871   5.935   4.828   9.410  1.6887  1.1099  0.9847
   12CHL1  H22B  872   6.100   4.783   9.355 -0.3978  2.3429  2.0767
   12CHL1   C23  873   5.937   4.713   9.233  0.0177  0.4852  0.2541
   12CHL1  H23A  874   5.998   4.628   9.194  1.3979  0.9627  1.3227
   12CHL1  H23B  875   5.830   4.685   9.241  0.2737 -0.6044  0.0314
   12CHL1   C24  876   5.939   4.829   9.139 -0.1344 -0.0834  0.0743
   12CHL1  H24A  877   5.877   4.905   9.190 -3.1620 -1.4916 -1.4014
   12CHL1  H24B  878   6.044   4.862   9.123 -0.4666  0.6632 -0.5987
   12CHL1   C25  879   5.887   4.809   8.997 -0.2895 -0.2749  0.5834
   12CHL1   H25  880   5.931   4.717   8.951  1.1770  1.5106 -1.7089
   12CHL1   C26  881   5.732   4.799   8.991  0.6446  0.0083  0.9289
   12CHL1  H26A  882   5.683   4.886   9.041  2.2152  1.1038  0.5800
   12CHL1  H26B  883   5.683   4.786   8.892  0.6252 -0.5322  1.0073
   12CHL1  H26C  884   5.690   4.710   9.043 -0.4695  0.4143  0.7397
   12CHL1   C27  885   5.919   4.922   8.899  0.0691  0.0506  0.2414
   12CHL1  H27A  886   5.900   4.887   8.795  0.3864  0.3045  0.0983
   12CHL1  H27B  887   5.863   5.015   8.925 -1.3985 -0.7739  0.1097
   12CHL1  H27C  888   6.026   4.948   8.912 -0.4267  2.1599  0.2986
   13CHL1    C3  889   4.944   6.351   9.832 -1.0937  0.0021  1.1672
   13CHL1    H3  890   4.991   6.289   9.753 -0.7631  0.9568  0.6078
   13CHL1    O3  891   4.980   6.314   9.968 -0.2050  0.2356 -0.6649
   13CHL1   H3'  892   4.919   6.361  10.025  0.0291 -0.9319  0.5535
   13CHL1    C4  893   4.984   6.495   9.805 -0.3136  0.7969 -0.4314
   13CHL1   H4A  894   4.939   6.558   9.884 -1.5564  0.5360 -0.9287
   13CHL1   H4B  895   5.091   6.516   9.827 -0.1901  0.7236 -0.9588
   13CHL1    C5  896   4.965   6.520   9.658  0.2271 -0.0544 -0.4733
   13CHL1    C6  897   5.063   6.525   9.570 -1.4119  0.1273 -0.2454
   13CHL1    H6  898   5.164   6.524   9.613 -0.6220 -0.3822 -2.0641
   13CHL1    C7  899   5.036   6.556   9.422  0.3399  0.1483  0.0123
   13CHL1   H7A  900   5.096   6.642   9.386 -1.5838  1.6121  0.2307
   13CHL1   H7B  901   5.057   6.466   9.361 -1.6780  0.9791 -1.9380
   13CHL1    C8  902   4.888   6.616   9.400 -0.8739 -0.0158 -0.9059
   13CHL1    H8  903   4.893   6.715   9.450  0.5610 -0.1687 -0.7205
   13CHL1   C14  904   4.854   6.628   9.260  0.6979 -0.7399 -0.0525
   13CHL1   H14  905   4.858   6.526   9.215  0.6046 -1.6411  1.9378
   13CHL1   C15  906   4.948   6.707   9.176 -0.4241  0.2095 -0.1424
   13CHL1  H15A  907   4.959   6.804   9.230 -0.9480  0.7302 -0.9717
   13CHL1  H15B  908   5.047   6.658   9.165 -0.3339 -0.0593  1.7401
   13CHL1   C16  909   4.865   6.744   9.045 -0.4104  0.2176 -0.6327
   13CHL1  H16A  910   4.868   6.854   9.026 -1.3328  0.7474  2.0291
   13CHL1  H16B  911   4.909   6.693   8.957  0.3601  0.0192 -0.1309
   13CHL1   C17  912   4.719   6.687   9.076 -0.0884  0.0968 -0.3255
   13CHL1   H17  913   4.725   6.581   9.041 -0.6504  0.2439 -0.8868
   13CHL1   C13  914   4.707   6.684   9.228 -0.1106  0.4188 -0.1058
   13CHL1   C18  915   4.684   6.824   9.295  0.0605  0.6074  0.8269
   13CHL1  H18A  916   4.732   6.819   9.395 -0.9983 -0.1222  1.3082
   13CHL1  H18B  917   4.730   6.911   9.243 -0.2634  0.1977 -0.1640
   13CHL1  H18C  918   4.576   6.849   9.294 -0.2319 -0.5874 -1.4591
   13CHL1   C12  919   4.610   6.579   9.279  0.3738  0.5398 -0.6332
   13CHL1  H12A  920   4.505   6.614   9.269 -0.8643 -1.7811  3.3017
   13CHL1  H12B  921   4.617   6.477   9.234 -0.5141  0.7219 -1.2014
   13CHL1   C11  922   4.636   6.563   9.433 -0.4263  0.2442 -0.3583
   13CHL1  H11A  923   4.608   6.657   9.485 -1.5916 -0.4540  0.3051
   13CHL1  H11B  924   4.559   6.494   9.473  0.7313 -1.0901 -0.3615
   13CHL1    C9  925   4.782   6.528   9.478 -0.2693  0.3529  0.0883
   13CHL1    H9  926   4.806   6.428   9.436  0.0350  0.1431  0.7458
   13CHL1   C10  927   4.807   6.515   9.629  0.4367 -0.3799  0.1371
   13CHL1   C19  928   4.740   6.628   9.701 -0.4899  0.4089 -0.6610
   13CHL1  H19A  929   4.632   6.619   9.678 -0.4624 -0.8548 -0.2973
   13CHL1  H19B  930   4.758   6.634   9.810  1.1026  0.7112 -0.9257
   13CHL1  H19C  931   4.776   6.724   9.656  2.2172 -0.0389  0.4544
   13CHL1    C1  932   4.754   6.380   9.672  0.0903  0.1832 -0.1881
   13CHL1   H1A  933   4.644   6.380   9.661  0.0613  0.2621  0.1023
   13CHL1   H1B  934   4.777   6.297   9.602  0.7941 -1.4656  1.9318
   13CHL1    C2  935   4.791   6.339   9.817 -0.1527 -0.9561 -0.0252
   13CHL1   H2A  936   4.766   6.232   9.833  0.4632 -0.8443  1.7796
   13CHL1   H2B  937   4.734   6.404   9.886  0.7960 -0.0564 -0.0715
   13CHL1   C20  938   4.602   6.752   9.000 -0.5101 -0.6397  0.2457
   13CHL1   H20  939   4.509   6.737   9.059  0.3485 -3.0358  1.0189
   13CHL1   C21  940   4.572   6.668   8.879  0.0425  0.4394  0.1274
   13CHL1  H21A  941   4.659   6.659   8.810 -0.1346  0.5127 -0.1102
   13CHL1  H21B  942   4.488   6.705   8.816  0.8828  0.3400 -1.0710
   13CHL1  H21C  943   4.539   6.566   8.908 -0.7749  1.0075  1.2461
   13CHL1   C22  944   4.611   6.904   8.973  0.8579  0.2322  0.0269
   13CHL1  H22A  945   4.638   6.959   9.066 -0.8395  2.2893 -0.6393
   13CHL1  H22B  946   4.696   6.935   8.909  0.7937  0.9375  0.2738
   13CHL1   C23  947   4.475   6.973   8.937  0.2078 -1.2517  0.2101
   13CHL1  H23A  948   4.438   6.917   8.848 -0.6172 -2.1645  1.1174
   13CHL1  H23B  949   4.409   6.963   9.026 -2.0542 -0.5842 -1.3491
   13CHL1   C24  950   4.492   7.120   8.894 -0.4850 -0.7210  0.3869
   13CHL1  H24A  951   4.491   7.182   8.986  0.6775 -0.0785 -0.0215
   13CHL1  H24B  952   4.592   7.126   8.847 -0.5516  0.5985  0.3861
   13CHL1   C25  953   4.388   7.181   8.801 -0.2720 -0.5454  0.3110
   13CHL1   H25  954   4.380   7.110   8.717  1.2781  0.3105 -0.5767
   13CHL1   C26  955   4.251   7.209   8.870  0.1810  0.4340  0.1166
   13CHL1  H26A  956   4.281   7.254   8.967  0.8950  0.7485 -0.2384
   13CHL1  H26B  957   4.194   7.287   8.815 -1.3370 -0.6510  0.1360
   13CHL1  H26C  958   4.188   7.119   8.887 -0.2491  0.3923 -1.5746
   13CHL1   C27  959   4.444   7.322   8.758 -0.4713 -0.1602  0.0904
   13CHL1  H27A  960   4.457   7.390   8.844  1.3233  0.3738 -0.5756
   13CHL1  H27B  961   4.542   7.312   8.705  0.4942  1.4493  1.5140
   13CHL1  H27C  962   4.371   7.378   8.695 -1.3497 -1.7270 -0.3213
   14CHL1    C3  963   4.797   2.627  10.171  0.2739 -0.9751  0.3758
   14CHL1    H3  964   4.900   2.664  10.152 -0.9756  2.5750  0.1793
   14CHL1    O3  965   4.785   2.616  10.313  1.1226 -0.2185  0.0678
   14CHL1   H3'  966   4.691   2.606  10.326  0.8407  0.4302 -1.3303
   14CHL1    C4  967   4.702   2.730  10.117 -0.1989 -0.8526 -0.3332
   14CHL1   H4A  968   4.599   2.693  10.132 -0.7630  0.5366 -0.6924
   14CHL1   H4B  969   4.721   2.826  10.170 -1.4540 -0.1905 -1.0681
   14CHL1    C5  970   4.726   2.743   9.972 -0.3817 -0.4291 -0.0122
   14CHL1    C6  971   4.767   2.861   9.924  0.3736  0.2978  0.0206
   14CHL1    H6  972   4.780   2.944   9.994  2.0602 -1.0971  1.3901
   14CHL1    C7  973   4.781   2.883   9.780 -0.7402  0.3627 -0.4502
   14CHL1   H7A  974   4.735   2.977   9.742 -0.6681  1.4369  2.0184
   14CHL1   H7B  975   4.888   2.896   9.755 -0.4000 -0.3486  0.5642
   14CHL1    C8  976   4.723   2.772   9.693 -0.1690 -0.7728  0.2567
   14CHL1    H8  977   4.612   2.776   9.688 -0.1900 -0.3584  1.0883
   14CHL1   C14  978   4.787   2.784   9.548  0.3457  1.4540 -0.1025
   14CHL1   H14  979   4.897   2.772   9.563  0.0904 -0.2730  0.5188
   14CHL1   C15  980   4.774   2.911   9.476 -0.0303 -0.2965 -0.3002
   14CHL1  H15A  981   4.667   2.939   9.465 -0.8218 -3.1369 -0.1625
   14CHL1  H15B  982   4.830   2.996   9.520  0.1379 -1.1391  1.1330
   14CHL1   C16  983   4.822   2.863   9.336 -0.4158  0.0521  0.9620
   14CHL1  H16A  984   4.750   2.899   9.260  0.2091 -3.2787 -1.3023
   14CHL1  H16B  985   4.917   2.914   9.309 -1.0746  1.2694  0.8798
   14CHL1   C17  986   4.841   2.705   9.329 -0.0677  0.2273 -0.2344
   14CHL1   H17  987   4.946   2.679   9.355  0.6126  2.3299 -0.7530
   14CHL1   C13  988   4.758   2.666   9.453  0.7954 -0.3546 -0.3298
   14CHL1   C18  989   4.613   2.677   9.409  0.4997  0.8150 -0.1662
   14CHL1  H18A  990   4.580   2.584   9.357  2.0475 -0.7469  1.6072
   14CHL1  H18B  991   4.547   2.686   9.498  0.4417  1.2509 -0.2512
   14CHL1  H18C  992   4.598   2.770   9.349 -0.2996  1.3542  0.8497
   14CHL1   C12  993   4.809   2.536   9.522 -0.3562  0.1021  0.1616
   14CHL1  H12A  994   4.810   2.455   9.446 -0.7460 -1.7008  2.0489
   14CHL1  H12B  995   4.919   2.541   9.533 -0.4586 -0.3225  1.3633
   14CHL1   C11  996   4.738   2.501   9.656 -0.7190  0.1376  0.3623
   14CHL1  H11A  997   4.629   2.496   9.636 -0.5708 -0.3456 -0.3594
   14CHL1  H11B  998   4.764   2.416   9.723 -1.4490  0.8919  1.6157
   14CHL1    C9  999   4.761   2.632   9.750  0.3147  0.6173  0.4987
   14CHL1    H9 1000   4.871   2.644   9.758  0.7034 -0.9425 -2.1078
   14CHL1   C10 1001   4.704   2.606   9.894  0.7533 -0.8384  0.2505
   14CHL1   C19 1002   4.558   2.568   9.892 -0.5248 -0.4858  0.0230
   14CHL1  H19A 1003   4.515   2.537   9.989  2.3148 -0.1842  1.4306
   14CHL1  H19B 1004   4.492   2.649   9.854  1.5835  0.4073 -1.8934
   14CHL1  H19C 1005   4.537   2.490   9.816  1.0351  0.8038 -1.7902
   14CHL1    C1 1006   4.787   2.495   9.967  0.5233 -0.0679  0.6487
   14CHL1   H1A 1007   4.746   2.402   9.922 -1.6284  1.5697 -0.8691
   14CHL1   H1B 1008   4.894   2.516   9.946  0.4424  0.4194  0.7088
   14CHL1    C2 1009   4.765   2.486  10.115  0.9702 -0.2121  0.2262
   14CHL1   H2A 1010   4.825   2.402  10.156 -0.8148 -0.1348  3.1350
   14CHL1   H2B 1011   4.659   2.468  10.145  0.3442  2.6402 -0.0985
   14CHL1   C20 1012   4.826   2.647   9.192  0.0099  0.5067 -0.3397
   14CHL1   H20 1013   4.720   2.673   9.168 -0.7922 -1.6832  0.6678
   14CHL1   C21 1014   4.833   2.487   9.182 -0.3022  0.2624  0.3123
   14CHL1  H21A 1015   4.836   2.456   9.076  1.4530  2.1211 -0.2207
   14CHL1  H21B 1016   4.737   2.437   9.207  1.5536 -1.9808  3.2648
   14CHL1  H21C 1017   4.924   2.437   9.222  0.4009  0.5238 -0.9206
   14CHL1   C22 1018   4.917   2.709   9.086  0.6625  0.0385  0.2376
   14CHL1  H22A 1019   4.913   2.818   9.109 -2.2381  1.0138 -4.3251
   14CHL1  H22B 1020   5.022   2.674   9.079  0.6874  0.0620  0.4913
   14CHL1   C23 1021   4.866   2.693   8.941 -0.0625  0.0853 -0.2162
   14CHL1  H23A 1022   4.830   2.590   8.920  2.7051 -0.4856 -2.4909
   14CHL1  H23B 1023   4.787   2.770   8.932  1.4432  1.6478 -0.3668
   14CHL1   C24 1024   4.973   2.715   8.834  0.4741  0.0809  0.4731
   14CHL1  H24A 1025   5.031   2.810   8.835  1.4626 -0.4033 -2.9286
   14CHL1  H24B 1026   5.045   2.632   8.851  3.0156  1.9449 -0.7914
   14CHL1   C25 1027   4.917   2.700   8.691 -0.8067 -0.0208  0.0158
   14CHL1   H25 1028   4.854   2.609   8.680  1.7037 -1.7576 -0.2557
   14CHL1   C26 1029   4.837   2.826   8.644  0.1096  0.3791 -0.1673
   14CHL1  H26A 1030   4.900   2.918   8.645  0.0979  0.4170  3.2804
   14CHL1  H26B 1031   4.820   2.807   8.536  1.5857  0.5717 -0.4406
   14CHL1  H26C 1032   4.739   2.832   8.695 -0.2201 -1.5075 -0.5632
   14CHL1   C27 1033   5.031   2.673   8.587  0.7310 -0.4070 -0.1135
   14CHL1  H27A 1034   5.001   2.704   8.484 -0.4889  0.2978  0.4383
   14CHL1  H27B 1035   5.113   2.743   8.613 -0.2685  1.1043 -0.9637
   14CHL1  H27C 1036   5.080   2.573   8.586  1.2848 -0.1423  0.6893
   15CHL1    C3 1037   5.134   1.583  10.149 -0.5116 -0.2039  0.8337
   15CHL1    H3 1038   5.217   1.519  10.112 -0.6514  0.7461 -1.1621
   15CHL1    O3 1039   5.140   1.587  10.291  0.2008 -0.4468 -0.2833
   15CHL1   H3' 1040   5.054   1.624  10.313 -0.0607 -0.4883 -1.1883
   15CHL1    C4 1041   5.146   1.727  10.091  0.0748  0.9290  0.1292
   15CHL1   H4A 1042   5.054   1.776  10.128 -0.1483  0.2099  0.5295
   15CHL1   H4B 1043   5.231   1.775  10.145  0.1403  0.8544  0.0919
   15CHL1    C5 1044   5.151   1.707   9.937 -0.0185 -0.4295 -0.1843
   15CHL1    C6 1045   5.255   1.758   9.866  0.6602  0.2412  0.2233
   15CHL1    H6 1046   5.330   1.808   9.929 -0.7101  0.8947  1.3616
   15CHL1    C7 1047   5.270   1.759   9.719 -0.1028  0.3877  0.3865
   15CHL1   H7A 1048   5.304   1.859   9.685  0.8058 -0.4919 -1.4142
   15CHL1   H7B 1049   5.339   1.679   9.682 -1.5774 -0.3120 -0.9426
   15CHL1    C8 1050   5.135   1.725   9.652 -0.0513 -1.0777  0.2211
   15CHL1    H8 1051   5.071   1.815   9.659 -0.4409 -1.4293  1.3259
   15CHL1   C14 1052   5.158   1.691   9.507  0.8915 -0.2883 -0.0907
   15CHL1   H14 1053   5.211   1.594   9.500 -0.7371 -1.2069  0.0046
   15CHL1   C15 1054   5.234   1.796   9.437  0.2644 -0.1093  0.2454
   15CHL1  H15A 1055   5.183   1.893   9.458  2.4972  1.3439 -0.7951
   15CHL1  H15B 1056   5.340   1.811   9.469 -0.3547  2.5522  1.1535
   15CHL1   C16 1057   5.203   1.748   9.285  0.6258  0.5223 -0.4570
   15CHL1  H16A 1058   5.178   1.845   9.238  0.8089  0.2285 -1.1606
   15CHL1  H16B 1059   5.294   1.700   9.243  0.8043  0.8912 -0.4965
   15CHL1   C17 1060   5.090   1.642   9.292  0.3813  1.2750 -0.4411
   15CHL1   H17 1061   5.150   1.548   9.295 -0.2729  0.8781  0.3384
   15CHL1   C13 1062   5.028   1.660   9.426  0.8251 -0.6670 -0.3733
   15CHL1   C18 1063   4.929   1.780   9.413  0.5208  0.1093 -0.4095
   15CHL1  H18A 1064   4.909   1.838   9.506  0.0218  0.2545 -0.6137
   15CHL1  H18B 1065   4.970   1.850   9.338  0.3355 -1.6929 -2.2335
   15CHL1  H18C 1066   4.829   1.749   9.378 -0.3460  0.7603  1.3988
   15CHL1   C12 1067   4.959   1.545   9.489  0.6654  0.4242 -0.0562
   15CHL1  H12A 1068   4.861   1.545   9.436  0.1325 -1.5756  0.8614
   15CHL1  H12B 1069   5.015   1.450   9.473 -2.9255 -1.6613 -0.8276
   15CHL1   C11 1070   4.942   1.566   9.645 -0.7208 -0.0873  0.0103
   15CHL1  H11A 1071   4.867   1.648   9.653 -2.1871 -1.5226  1.2484
   15CHL1  H11B 1072   4.884   1.483   9.689 -0.9339  0.2221  0.3133
   15CHL1    C9 1073   5.069   1.608   9.726  0.5456  0.0377  0.2860
   15CHL1    H9 1074   5.146   1.528   9.723  2.7782  2.1667 -0.6730
   15CHL1   C10 1075   5.027   1.639   9.873 -0.8559 -0.2320  0.0713
   15CHL1   C19 1076   4.911   1.738   9.892 -0.3035  0.3478  0.1150
   15CHL1  H19A 1077   4.919   1.828   9.828 -1.3102  0.7984  0.6091
   15CHL1  H19B 1078   4.810   1.702   9.862  0.3427  0.4096 -2.2549
   15CHL1  H19C 1079   4.889   1.755  10.000  3.0749  0.5228  0.8453
   15CHL1    C1 1080   4.995   1.511   9.947 -0.0471  0.3362  0.1531
   15CHL1   H1A 1081   4.895   1.470   9.920 -0.0370 -0.1032  0.7703
   15CHL1   H1B 1082   5.064   1.430   9.915  1.9296  1.3786  1.6576
   15CHL1    C2 1083   5.006   1.523  10.100  0.1305 -0.0302  0.1288
   15CHL1   H2A 1084   4.992   1.423  10.145  1.9647  0.1173  1.0667
   15CHL1   H2B 1085   4.923   1.586  10.139 -0.0137  0.0229 -0.2668
   15CHL1   C20 1086   5.006   1.625   9.167  0.0767  0.8443 -0.3882
   15CHL1   H20 1087   4.920   1.695   9.170 -2.4671 -2.2461  1.3359
   15CHL1   C21 1088   4.950   1.478   9.173  0.1707 -0.2467  0.4328
   15CHL1  H21A 1089   4.864   1.489   9.242 -0.6716 -0.0140 -0.6377
   15CHL1  H21B 1090   5.020   1.403   9.215 -1.7529 -2.0442  0.5703
   15CHL1  H21C 1091   4.903   1.448   9.077 -3.0169  0.4038  1.7134
   15CHL1   C22 1092   5.079   1.655   9.027  0.7821  0.4857 -0.2287
   15CHL1  H22A 1093   5.112   1.761   9.031 -1.5917  1.1743  2.0892
   15CHL1  H22B 1094   5.170   1.590   9.028  0.9896  0.7530 -0.9777
   15CHL1   C23 1095   4.999   1.632   8.896  1.1480 -0.1426 -0.9272
   15CHL1  H23A 1096   5.053   1.649   8.800  0.2299 -1.0205 -1.6123
   15CHL1  H23B 1097   4.949   1.533   8.892  2.4490 -0.8388 -0.0568
   15CHL1   C24 1098   4.885   1.739   8.891  0.1773 -0.0850  0.7212
   15CHL1  H24A 1099   4.817   1.734   8.979 -1.3029  0.8484 -0.3509
   15CHL1  H24B 1100   4.930   1.839   8.874 -0.6947  0.6334  2.5037
   15CHL1   C25 1101   4.793   1.727   8.766 -0.3804  0.2041  0.4842
   15CHL1   H25 1102   4.856   1.736   8.674 -3.3270  3.2564 -1.3615
   15CHL1   C26 1103   4.715   1.593   8.754  0.2484  0.2680  0.1404
   15CHL1  H26A 1104   4.677   1.571   8.857 -1.0313  1.8644  0.0267
   15CHL1  H26B 1105   4.633   1.602   8.679 -1.0892  3.4275  1.8557
   15CHL1  H26C 1106   4.783   1.506   8.742 -1.6304 -1.7697  3.3558
   15CHL1   C27 1107   4.699   1.845   8.759 -0.5393  0.6169  0.2732
   15CHL1  H27A 1108   4.747   1.944   8.747  1.5960 -0.4645 -0.3888
   15CHL1  H27B 1109   4.631   1.823   8.674 -2.0818 -1.0987  1.8914
   15CHL1  H27C 1110   4.639   1.832   8.852  1.0755 -0.3708  1.2049
   16CHL1    C3 1111   5.745   2.149  10.326 -0.1895 -0.6797 -0.4320
   16CHL1    H3 1112   5.684   2.241  10.316 -1.4135 -1.3362  0.7885
   16CHL1    O3 1113   5.752   2.129  10.465  0.1266  0.1069  0.0860
   16CHL1   H3' 1114   5.795   2.045  10.483  0.0261 -0.3387 -1.6457
   16CHL1    C4 1115   5.681   2.028  10.253 -0.3961 -0.0828  0.3429
   16CHL1   H4A 1116   5.736   1.933  10.274  2.8630  1.4345 -0.9118
   16CHL1   H4B 1117   5.580   2.026  10.298  0.1274  3.2270  1.8148
   16CHL1    C5 1118   5.676   2.040  10.100  0.5727  0.5891 -0.3364
   16CHL1    C6 1119   5.558   2.016  10.038  0.3746 -0.4455  0.1075
   16CHL1    H6 1120   5.472   1.995  10.104 -0.6789 -0.6999 -1.3107
   16CHL1    C7 1121   5.536   2.034   9.891 -0.0735  0.2523  0.4491
   16CHL1   H7A 1122   5.498   1.939   9.846 -1.1607  0.8670  0.0474
   16CHL1   H7B 1123   5.470   2.120   9.869 -0.6835  0.2916  2.3464
   16CHL1    C8 1124   5.663   2.061   9.814 -0.2915  0.0908  0.2431
   16CHL1    H8 1125   5.705   1.960   9.797  0.0012  0.3073 -0.3775
   16CHL1   C14 1126   5.639   2.108   9.670 -0.2839 -0.5381  1.0797
   16CHL1   H14 1127   5.583   2.202   9.690 -1.6301 -0.6505 -1.9161
   16CHL1   C15 1128   5.537   2.032   9.586 -0.0280 -0.2958  0.4913
   16CHL1  H15A 1129   5.562   1.924   9.585  1.0616 -0.0486 -0.5919
   16CHL1  H15B 1130   5.438   2.044   9.635  0.8563  3.1743  1.5567
   16CHL1   C16 1131   5.561   2.085   9.444 -0.1158 -0.3240  0.7303
   16CHL1  H16A 1132   5.579   2.002   9.373 -0.7352  1.3023 -1.3795
   16CHL1  H16B 1133   5.472   2.140   9.405 -0.2174 -0.3643  0.9008
   16CHL1   C17 1134   5.684   2.171   9.456  0.1334 -0.8279 -0.2180
   16CHL1   H17 1135   5.652   2.275   9.482  1.7362 -0.0822 -1.1448
   16CHL1   C13 1136   5.758   2.133   9.589  0.7731  0.2696 -0.1152
   16CHL1   C18 1137   5.840   1.998   9.561  0.0583  0.2783 -0.0494
   16CHL1  H18A 1138   5.888   1.948   9.648  3.0523  0.8189 -1.3150
   16CHL1  H18B 1139   5.768   1.925   9.518 -0.4219  0.8956 -0.3094
   16CHL1  H18C 1140   5.922   2.025   9.491  0.8504 -2.5756 -0.2910
   16CHL1   C12 1141   5.844   2.238   9.667 -0.3241  0.5936  0.1641
   16CHL1  H12A 1142   5.938   2.252   9.609  0.5582  0.8619  1.6159
   16CHL1  H12B 1143   5.786   2.332   9.673 -0.3309  0.5425  0.9225
   16CHL1   C11 1144   5.888   2.199   9.812  0.0643  0.4443  0.6778
   16CHL1  H11A 1145   5.964   2.121   9.789  0.1413  0.5228  0.6621
   16CHL1  H11B 1146   5.953   2.269   9.871 -0.9437  2.8065 -0.9319
   16CHL1    C9 1147   5.765   2.152   9.894  0.8849 -0.6257  0.1739
   16CHL1    H9 1148   5.711   2.245   9.923  0.5444 -1.1689  1.3161
   16CHL1   C10 1149   5.798   2.085  10.030  0.2736  0.4977 -0.4945
   16CHL1   C19 1150   5.883   1.960  10.020 -0.2038  0.5445  0.0294
   16CHL1  H19A 1151   5.884   1.896  10.111 -2.0232  0.9300  0.3629
   16CHL1  H19B 1152   5.837   1.895   9.943 -1.9057  1.9643 -0.1900
   16CHL1  H19C 1153   5.990   1.985  10.005 -0.1740 -0.4980 -1.5639
   16CHL1    C1 1154   5.872   2.187  10.122 -0.0307 -0.1658  0.1587
   16CHL1   H1A 1155   5.976   2.193  10.083 -0.0321 -1.8015 -0.1126
   16CHL1   H1B 1156   5.826   2.287  10.108  1.6462  0.5314 -0.5620
   16CHL1    C2 1157   5.879   2.167  10.272 -0.5246 -1.0438 -0.1739
   16CHL1   H2A 1158   5.912   2.255  10.332 -2.1995 -0.7133  0.3049
   16CHL1   H2B 1159   5.942   2.078  10.293  1.1530 -0.1968 -1.5382
   16CHL1   C20 1160   5.776   2.183   9.333  0.9886  0.0259  0.7706
   16CHL1   H20 1161   5.819   2.081   9.318  0.4891  0.1759 -1.8490
   16CHL1   C21 1162   5.899   2.276   9.345 -0.1405  0.6208 -0.8805
   16CHL1  H21A 1163   5.980   2.245   9.415  1.6821 -1.7164 -3.8728
   16CHL1  H21B 1164   5.870   2.380   9.371  0.1850  0.6828 -0.7584
   16CHL1  H21C 1165   5.949   2.282   9.246  1.3181 -0.9893 -0.2721
   16CHL1   C22 1166   5.683   2.220   9.212 -0.0524 -0.1453  0.2537
   16CHL1  H22A 1167   5.586   2.166   9.217 -0.5944  0.9195  1.3512
   16CHL1  H22B 1168   5.662   2.328   9.221  1.6897  0.1489  0.9266
   16CHL1   C23 1169   5.733   2.182   9.067 -0.1993  0.9927 -0.4326
   16CHL1  H23A 1170   5.839   2.207   9.045  0.8076 -0.8072  2.1524
   16CHL1  H23B 1171   5.709   2.075   9.049  1.6498  0.9063 -2.6360
   16CHL1   C24 1172   5.640   2.263   8.963  0.0819  0.0019  0.7580
   16CHL1  H24A 1173   5.536   2.286   8.994 -0.2926  1.1219 -1.2295
   16CHL1  H24B 1174   5.693   2.360   8.954 -1.1697  0.6252 -0.1444
   16CHL1   C25 1175   5.636   2.210   8.815  0.1794  0.3166 -0.0651
   16CHL1   H25 1176   5.729   2.151   8.800 -0.5903 -0.7266 -0.7718
   16CHL1   C26 1177   5.525   2.111   8.795 -0.8876 -0.1744  0.3341
   16CHL1  H26A 1178   5.431   2.169   8.810  0.2195  2.0826 -1.2088
   16CHL1  H26B 1179   5.516   2.062   8.696 -2.4689  0.9673 -0.1145
   16CHL1  H26C 1180   5.515   2.036   8.876 -1.8524  0.9647  1.3022
   16CHL1   C27 1181   5.632   2.325   8.708  1.0746  0.3739 -0.0909
   16CHL1  H27A 1182   5.646   2.280   8.607  1.0400 -1.8208  0.8687
   16CHL1  H27B 1183   5.532   2.372   8.706 -0.1618 -2.1999 -0.6882
   16CHL1  H27C 1184   5.708   2.404   8.728  2.2539 -0.5466 -0.8699
   17CHL1    C3 1185   1.179   5.692  10.430  0.4230 -0.6594 -0.2487
   17CHL1    H3 1186   1.271   5.750  10.408 -0.7637  1.1458 -0.5482
   17CHL1    O3 1187   1.181   5.658  10.568 -0.3989  0.1000  0.4579
   17CHL1   H3' 1188   1.107   5.597  10.568  0.7328 -1.3255  1.6850
   17CHL1    C4 1189   1.058   5.780  10.386 -0.1553  0.5456  0.1113
   17CHL1   H4A 1190   0.969   5.724  10.424 -0.3262  0.5461 -0.2893
   17CHL1   H4B 1191   1.064   5.871  10.449 -3.5112  0.4959  0.6112
   17CHL1    C5 1192   1.054   5.803  10.240  0.0182 -0.2010  0.7092
   17CHL1    C6 1193   1.073   5.925  10.188  0.4909 -0.0170 -0.6330
   17CHL1    H6 1194   1.073   6.015  10.252 -1.9458 -1.3869  1.4236
   17CHL1    C7 1195   1.082   5.954  10.039 -0.0784 -0.4545  0.5523
   17CHL1   H7A 1196   1.019   6.045  10.025  1.2641  0.4277  0.2462
   17CHL1   H7B 1197   1.185   5.976  10.007 -0.2024 -0.2751  0.2802
   17CHL1    C8 1198   1.016   5.845   9.961 -0.4670  0.0386 -0.2875
   17CHL1    H8 1199   0.909   5.835   9.990 -0.3844 -3.1744 -0.8414
   17CHL1   C14 1200   1.026   5.873   9.807 -0.7417 -0.7289 -0.4406
   17CHL1   H14 1201   1.133   5.893   9.782 -0.1352 -0.7839  1.9807
   17CHL1   C15 1202   0.963   6.001   9.754  0.5114  0.0135 -0.1526
   17CHL1  H15A 1203   0.870   6.037   9.803  1.5414  2.1622  0.2565
   17CHL1  H15B 1204   1.029   6.086   9.778 -0.0225  0.3039  0.3007
   17CHL1   C16 1205   0.952   5.975   9.602 -0.1975  0.1367 -0.0220
   17CHL1  H16A 1206   0.843   5.970   9.579 -0.0685 -1.1213 -0.3884
   17CHL1  H16B 1207   1.006   6.052   9.543 -0.6531 -0.1848 -0.8682
   17CHL1   C17 1208   1.001   5.828   9.579  0.6132 -0.2533 -0.6646
   17CHL1   H17 1209   1.112   5.831   9.574  0.5808  1.0965 -0.8122
   17CHL1   C13 1210   0.984   5.758   9.722  0.0728  0.1322  0.6615
   17CHL1   C18 1211   0.832   5.733   9.747  0.1029  0.1134  0.3436
   17CHL1  H18A 1212   0.820   5.706   9.854  0.9052 -2.1845 -0.0914
   17CHL1  H18B 1213   0.761   5.813   9.720  2.7442  2.1301 -0.8797
   17CHL1  H18C 1214   0.817   5.639   9.688  2.8409 -0.1385 -0.0553
   17CHL1   C12 1215   1.081   5.648   9.757 -0.5430  0.0163  0.6071
   17CHL1  H12A 1216   1.047   5.568   9.688 -0.0798  0.1374  0.2390
   17CHL1  H12B 1217   1.185   5.676   9.730 -1.2199  0.5441 -1.5089
   17CHL1   C11 1218   1.063   5.594   9.901  0.4216  0.2375 -0.1557
   17CHL1  H11A 1219   0.971   5.531   9.904  0.9760 -0.6751 -1.9155
   17CHL1  H11B 1220   1.148   5.525   9.915  2.8541  3.1468 -0.1143
   17CHL1    C9 1221   1.088   5.713  10.002 -0.0367 -0.1045  0.1684
   17CHL1    H9 1222   1.198   5.732   9.994 -0.2040  1.2031  0.7382
   17CHL1   C10 1223   1.055   5.678  10.148  0.2536 -0.5074 -0.0346
   17CHL1   C19 1224   0.918   5.608  10.151 -0.8783  0.0254 -0.4220
   17CHL1  H19A 1225   0.879   5.606  10.255  2.7414 -1.0865  0.9759
   17CHL1  H19B 1226   0.841   5.668  10.097 -1.3472 -2.1782 -2.2632
   17CHL1  H19C 1227   0.928   5.506  10.109  0.8578 -0.0375  0.1174
   17CHL1    C1 1228   1.166   5.575  10.198 -0.6771  1.1631 -0.1970
   17CHL1   H1A 1229   1.130   5.480  10.153  1.3216  0.6938 -0.8432
   17CHL1   H1B 1230   1.265   5.604  10.158 -1.0724  1.9485 -0.6041
   17CHL1    C2 1231   1.178   5.556  10.353 -0.3928 -0.5222  0.5579
   17CHL1   H2A 1232   1.281   5.519  10.372  0.4160  1.4286  0.0925
   17CHL1   H2B 1233   1.102   5.489  10.398  0.3227 -1.5116  0.3268
   17CHL1   C20 1234   0.942   5.767   9.449  0.2069  0.3720  0.9327
   17CHL1   H20 1235   0.832   5.780   9.458 -0.1839 -1.2074 -1.2117
   17CHL1   C21 1236   0.981   5.624   9.435  0.4268  0.1591  0.7368
   17CHL1  H21A 1237   0.931   5.560   9.511  1.4540 -2.1727 -0.5129
   17CHL1  H21B 1238   1.091   5.624   9.442  0.6633 -0.5718 -2.1768
   17CHL1  H21C 1239   0.956   5.587   9.333  1.9321  2.5388 -0.5479
   17CHL1   C22 1240   0.983   5.847   9.316  0.5401  0.7451 -0.2637
   17CHL1  H22A 1241   0.955   5.953   9.332 -1.9390  0.8026 -4.3636
   17CHL1  H22B 1242   1.093   5.830   9.315  0.3337 -0.7176  0.7163
   17CHL1   C23 1243   0.916   5.798   9.187 -0.3004 -0.6167  0.0105
   17CHL1  H23A 1244   0.937   5.694   9.155 -0.3054  0.0834 -2.3744
   17CHL1  H23B 1245   0.806   5.811   9.197 -0.2020  0.3810 -0.0886
   17CHL1   C24 1246   0.970   5.884   9.071  0.7231  0.0765  0.8099
   17CHL1  H24A 1247   0.943   5.988   9.100  0.1089 -0.5913  2.6942
   17CHL1  H24B 1248   1.081   5.875   9.071  0.7344 -0.0531  3.2002
   17CHL1   C25 1249   0.915   5.858   8.921  0.2268 -0.6562 -0.3149
   17CHL1   H25 1250   0.937   5.751   8.901  0.1805 -0.9869  1.3701
   17CHL1   C26 1251   0.767   5.885   8.906 -0.0138  0.3170 -0.8119
   17CHL1  H26A 1252   0.709   5.820   8.975  1.8298 -0.0035  0.4816
   17CHL1  H26B 1253   0.747   5.988   8.942 -0.1755  0.4261 -1.2092
   17CHL1  H26C 1254   0.721   5.853   8.810 -2.7484 -1.1712  0.9152
   17CHL1   C27 1255   1.003   5.953   8.832  0.4312  0.1439  0.3092
   17CHL1  H27A 1256   0.968   5.938   8.728  0.8720 -0.8949  0.3070
   17CHL1  H27B 1257   0.998   6.059   8.864  2.0460  0.9932 -2.1248
   17CHL1  H27C 1258   1.113   5.939   8.826  0.7768  2.5261  0.5506
   18CHL1    C3 1259   0.608   4.262  10.226  0.5403 -0.4076  0.2489
   18CHL1    H3 1260   0.655   4.362  10.220 -3.5222  1.5287 -0.8284
   18CHL1    O3 1261   0.608   4.237  10.366 -0.1096  0.1776 -0.3320
   18CHL1   H3' 1262   0.584   4.144  10.373 -2.8432  0.7848 -1.1973
   18CHL1    C4 1263   0.455   4.265  10.184  0.0437 -0.5871  0.4599
   18CHL1   H4A 1264   0.395   4.173  10.204 -0.7806 -0.1051  0.2269
   18CHL1   H4B 1265   0.407   4.348  10.239  1.6845  0.5681  0.1695
   18CHL1    C5 1266   0.441   4.287  10.031  0.5282  0.0577 -0.2776
   18CHL1    C6 1267   0.364   4.383   9.968  0.0699  0.5549  0.1159
   18CHL1    H6 1268   0.308   4.445  10.041  2.8827  0.5733  2.3476
   18CHL1    C7 1269   0.332   4.401   9.820 -0.6439 -0.0096 -0.6652
   18CHL1   H7A 1270   0.222   4.411   9.812 -0.6532  0.6239  0.1481
   18CHL1   H7B 1271   0.383   4.496   9.792 -1.1778  0.2741 -0.6833
   18CHL1    C8 1272   0.385   4.272   9.736 -0.0284 -0.9718  0.6748
   18CHL1    H8 1273   0.315   4.189   9.762 -1.7186 -0.3815 -1.7749
   18CHL1   C14 1274   0.390   4.294   9.587  0.6065 -0.7394 -0.4529
   18CHL1   H14 1275   0.461   4.379   9.581  1.3388 -1.2098  1.2811
   18CHL1   C15 1276   0.259   4.337   9.517  0.4668  0.3497 -0.2522
   18CHL1  H15A 1277   0.167   4.280   9.539  0.0769  1.1489  0.1908
   18CHL1  H15B 1278   0.248   4.446   9.535  1.4635  0.5318 -0.6752
   18CHL1   C16 1279   0.290   4.318   9.367  0.3910  0.6101 -0.2772
   18CHL1  H16A 1280   0.218   4.246   9.324  0.3834 -0.3251  1.2575
   18CHL1  H16B 1281   0.289   4.413   9.309  0.4104  1.2551  0.7572
   18CHL1   C17 1282   0.437   4.257   9.359 -0.0212  0.8360  0.3855
   18CHL1   H17 1283   0.517   4.334   9.356 -0.8735  1.6823 -0.8259
   18CHL1   C13 1284   0.448   4.187   9.499  0.4224  0.3162  0.5730
   18CHL1   C18 1285   0.355   4.060   9.505 -0.3797 -0.0563  0.6315
   18CHL1  H18A 1286   0.249   4.079   9.477 -0.3333  0.0786  0.5501
   18CHL1  H18B 1287   0.401   3.985   9.437 -1.1894  0.5472 -0.6067
   18CHL1  H18C 1288   0.363   4.017   9.607 -0.8966  0.0133  0.7029
   18CHL1   C12 1289   0.587   4.156   9.547  0.7926  0.5317  0.6455
   18CHL1  H12A 1290   0.626   4.062   9.503 -1.1084  0.2989 -0.5845
   18CHL1  H12B 1291   0.659   4.234   9.515  0.0741  1.1462  0.5413
   18CHL1   C11 1292   0.585   4.127   9.702  0.6185 -0.4528  0.2488
   18CHL1  H11A 1293   0.552   4.022   9.717 -0.5823  0.0906  1.4869
   18CHL1  H11B 1294   0.689   4.121   9.741  1.1273  1.6912 -0.7071
   18CHL1    C9 1295   0.518   4.232   9.793 -0.2827  0.3641  0.3926
   18CHL1    H9 1296   0.573   4.327   9.777  0.2060 -0.3536 -2.6029
   18CHL1   C10 1297   0.528   4.195   9.944 -0.5808 -0.4832 -1.1198
   18CHL1   C19 1298   0.477   4.048   9.960 -0.2177 -0.4980  0.7320
   18CHL1  H19A 1299   0.380   4.035   9.906  0.1819 -1.3527  0.2049
   18CHL1  H19B 1300   0.556   3.981   9.920  0.5601  1.0167 -0.3729
   18CHL1  H19C 1301   0.473   4.028  10.069  2.1173 -0.1353  0.8980
   18CHL1    C1 1302   0.674   4.211   9.992 -0.6524  0.2066  0.3604
   18CHL1   H1A 1303   0.744   4.145   9.936  1.0080  0.3220  2.2434
   18CHL1   H1B 1304   0.709   4.313   9.965  0.1383 -0.3768 -0.8733
   18CHL1    C2 1305   0.697   4.172  10.134 -0.2056  0.0936 -0.7939
   18CHL1   H2A 1306   0.803   4.185  10.165  0.3764  0.4144 -2.8799
   18CHL1   H2B 1307   0.672   4.064  10.143  3.7534 -1.0559 -2.6734
   18CHL1   C20 1308   0.457   4.179   9.228  0.3520 -0.0733  0.0956
   18CHL1   H20 1309   0.379   4.100   9.223 -0.1967  0.3568  1.5762
   18CHL1   C21 1310   0.592   4.097   9.232  0.5385 -0.1352 -0.0503
   18CHL1  H21A 1311   0.677   4.160   9.266 -0.5050  2.0215 -1.3520
   18CHL1  H21B 1312   0.610   4.049   9.133 -3.1230  0.9533 -1.3273
   18CHL1  H21C 1313   0.581   4.010   9.300  0.1382  3.3375  4.5499
   18CHL1   C22 1314   0.452   4.262   9.102  0.6303  1.4189  0.3420
   18CHL1  H22A 1315   0.354   4.314   9.112  0.2255  0.7534 -0.1021
   18CHL1  H22B 1316   0.530   4.341   9.116  2.2789 -0.4205  1.7198
   18CHL1   C23 1317   0.437   4.188   8.966 -0.0922  0.4087  0.3446
   18CHL1  H23A 1318   0.523   4.119   8.953  0.0889  1.0003 -1.7257
   18CHL1  H23B 1319   0.345   4.128   8.978 -0.0421  0.2073 -0.2643
   18CHL1   C24 1320   0.423   4.287   8.851  0.2295  1.0217  0.1619
   18CHL1  H24A 1321   0.334   4.349   8.874 -1.1148 -0.5572 -0.7058
   18CHL1  H24B 1322   0.519   4.343   8.843  0.5919  0.3411 -0.3772
   18CHL1   C25 1323   0.398   4.227   8.708  0.3818  0.6430 -0.6242
   18CHL1   H25 1324   0.301   4.172   8.707  1.8845 -2.1394  0.5901
   18CHL1   C26 1325   0.400   4.346   8.610  0.6035 -0.2465 -0.7345
   18CHL1  H26A 1326   0.349   4.319   8.515  1.5583 -2.5464 -0.6200
   18CHL1  H26B 1327   0.347   4.433   8.655  0.7388 -0.9025  0.7495
   18CHL1  H26C 1328   0.503   4.383   8.597  0.4098  0.8246  0.6961
   18CHL1   C27 1329   0.504   4.120   8.668  0.1031  0.6299  0.4277
   18CHL1  H27A 1330   0.500   4.029   8.730  0.4574  0.0056 -0.4504
   18CHL1  H27B 1331   0.479   4.092   8.563  0.6947  0.8590  0.2245
   18CHL1  H27C 1332   0.604   4.167   8.668 -0.7578  2.5727 -1.5614
   19CHL1    C3 1333   4.826   1.159  10.085  0.2609 -0.0848 -0.9283
   19CHL1    H3 1334   4.805   1.268  10.094 -0.0412 -0.2980  1.3915
   19CHL1    O3 1335   4.863   1.112  10.214 -0.3994 -0.3725 -0.0314
   19CHL1   H3' 1336   4.940   1.057  10.198  0.6133  0.7586  0.9484
   19CHL1    C4 1337   4.706   1.077  10.038  0.0218  0.6124  0.2779
   19CHL1   H4A 1338   4.725   0.969  10.060 -2.9729 -0.0674 -0.2049
   19CHL1   H4B 1339   4.615   1.096  10.099 -0.6802 -0.7780 -0.3076
   19CHL1    C5 1340   4.679   1.086   9.886 -0.3128 -0.5199 -0.8519
   19CHL1    C6 1341   4.552   1.115   9.848  0.1505  0.0903 -0.3433
   19CHL1    H6 1342   4.472   1.137   9.919 -0.5354  2.0021 -1.6645
   19CHL1    C7 1343   4.519   1.116   9.702  0.7662  0.0180 -0.3401
   19CHL1   H7A 1344   4.422   1.063   9.690  0.5580  0.1656  0.7039
   19CHL1   H7B 1345   4.500   1.222   9.672  0.6152  0.2389  0.5358
   19CHL1    C8 1346   4.632   1.073   9.603  0.1816 -0.2024 -0.1811
   19CHL1    H8 1347   4.635   0.962   9.607 -2.3609 -0.2283  2.0499
   19CHL1   C14 1348   4.589   1.113   9.468 -0.1163 -0.5097  0.1360
   19CHL1   H14 1349   4.576   1.224   9.463  0.0018 -0.4704  0.7403
   19CHL1   C15 1350   4.453   1.065   9.404 -0.7670  0.5510 -0.4949
   19CHL1  H15A 1351   4.440   0.957   9.427 -0.8286  0.7665  0.5074
   19CHL1  H15B 1352   4.367   1.121   9.446 -0.0784  0.4393  1.1235
   19CHL1   C16 1353   4.476   1.082   9.251 -0.3717 -0.0646 -0.0454
   19CHL1  H16A 1354   4.456   0.994   9.186 -1.0843  0.7784 -0.9801
   19CHL1  H16B 1355   4.416   1.168   9.215  2.5498  0.8278 -2.8990
   19CHL1   C17 1356   4.626   1.124   9.236  0.2678  0.2217 -0.2835
   19CHL1   H17 1357   4.635   1.234   9.246  1.0610  0.0973  0.4356
   19CHL1   C13 1358   4.694   1.066   9.362 -0.2404 -0.2803 -0.2748
   19CHL1   C18 1359   4.706   0.909   9.366  0.2547 -0.1726 -0.3118
   19CHL1  H18A 1360   4.613   0.848   9.366 -0.9899  1.6758 -2.2826
   19CHL1  H18B 1361   4.770   0.883   9.279  0.9154 -0.5194  0.2729
   19CHL1  H18C 1362   4.762   0.889   9.460  0.7446  1.3481 -0.2681
   19CHL1   C12 1363   4.827   1.142   9.393 -0.0757 -0.7032  0.0537
   19CHL1  H12A 1364   4.910   1.101   9.331 -0.8051 -1.3794 -0.4759
   19CHL1  H12B 1365   4.816   1.251   9.373  3.5310 -0.4136 -0.8728
   19CHL1   C11 1366   4.873   1.118   9.543 -0.0624  0.0152 -1.1968
   19CHL1  H11A 1367   4.905   1.012   9.536  1.3451  0.4488 -1.7515
   19CHL1  H11B 1368   4.956   1.187   9.569  0.4384 -0.3318 -1.8502
   19CHL1    C9 1369   4.762   1.142   9.647 -0.0370  0.7871  0.0774
   19CHL1    H9 1370   4.749   1.252   9.653 -0.3533  0.7769 -0.3634
   19CHL1   C10 1371   4.799   1.089   9.789  0.0678  1.1951  0.4229
   19CHL1   C19 1372   4.853   0.942   9.788 -0.3995 -0.8498  0.2704
   19CHL1  H19A 1373   4.783   0.870   9.742 -0.4401  0.5555 -1.9109
   19CHL1  H19B 1374   4.955   0.935   9.745 -0.5153 -1.5175  0.1005
   19CHL1  H19C 1375   4.868   0.901   9.890 -2.2571 -1.8614  0.1535
   19CHL1    C1 1376   4.908   1.180   9.857  0.0704 -0.5401  0.5322
   19CHL1   H1A 1377   4.999   1.184   9.794  0.4116  1.8485  1.1233
   19CHL1   H1B 1378   4.871   1.285   9.850 -0.1616 -0.4924  2.2694
   19CHL1    C2 1379   4.954   1.142   9.997  0.3482  0.3294 -0.5406
   19CHL1   H2A 1380   5.037   1.208  10.030  0.0076  1.3594 -1.7097
   19CHL1   H2B 1381   5.001   1.042  10.010  0.8353  0.8242  1.8624
   19CHL1   C20 1382   4.693   1.102   9.099 -0.1725  0.1529  0.1975
   19CHL1   H20 1383   4.797   1.073   9.127  0.5493 -0.3160 -2.7597
   19CHL1   C21 1384   4.698   1.234   9.018  0.3548  0.4112 -0.8687
   19CHL1  H21A 1385   4.766   1.305   9.069  1.1355  0.6358 -2.2037
   19CHL1  H21B 1386   4.599   1.283   9.017  1.2603  2.2827 -1.6284
   19CHL1  H21C 1387   4.746   1.234   8.918  1.5708  1.5895 -0.2979
   19CHL1   C22 1388   4.649   0.987   9.004  0.3828 -0.0505  0.2061
   19CHL1  H22A 1389   4.621   0.907   9.075  1.9580 -1.0829 -0.3020
   19CHL1  H22B 1390   4.548   1.006   8.962  0.4207  0.9422  0.5461
   19CHL1   C23 1391   4.752   0.942   8.908 -0.5879 -0.5393 -0.1305
   19CHL1  H23A 1392   4.779   1.027   8.843 -0.0552 -0.2085  0.5130
   19CHL1  H23B 1393   4.847   0.921   8.962  0.3149  2.5286 -0.4084
   19CHL1   C24 1394   4.717   0.825   8.812 -0.0351 -0.1237  0.3415
   19CHL1  H24A 1395   4.698   0.743   8.885  0.4123 -1.4719 -1.0297
   19CHL1  H24B 1396   4.627   0.840   8.749 -1.2370 -0.2741  1.9972
   19CHL1   C25 1397   4.834   0.797   8.711  0.4677  0.1225  0.1761
   19CHL1   H25 1398   4.876   0.892   8.673 -2.1393  1.8042  1.3205
   19CHL1   C26 1399   4.952   0.731   8.778  0.2111  0.7045 -0.3169
   19CHL1  H26A 1400   4.984   0.794   8.864 -1.7542 -1.2865  1.9465
   19CHL1  H26B 1401   4.933   0.630   8.820  0.9905  0.3324 -0.8467
   19CHL1  H26C 1402   5.037   0.740   8.707  0.0086  3.0503 -0.3168
   19CHL1   C27 1403   4.771   0.707   8.603 -0.3850 -0.0578 -0.4455
   19CHL1  H27A 1404   4.685   0.755   8.551  1.0264  0.7509 -2.0496
   19CHL1  H27B 1405   4.834   0.663   8.524 -2.5539 -1.2865 -1.5366
   19CHL1  H27C 1406   4.726   0.617   8.650 -0.9837  1.1064  1.2719
   20CHL1    C3 1407   0.061   1.704  10.317  0.4057  0.0426 -1.3894
   20CHL1    H3 1408  -0.031   1.641  10.313 -0.3117  0.8812  0.9568
   20CHL1    O3 1409   0.086   1.713  10.456 -0.8768  0.4791 -0.2853
   20CHL1   H3' 1410   0.147   1.786  10.469 -1.2308  0.3838  2.1405
   20CHL1    C4 1411   0.184   1.635  10.248 -0.4865  0.3939 -0.1847
   20CHL1   H4A 1412   0.269   1.705  10.260 -0.4033  0.4061 -0.8263
   20CHL1   H4B 1413   0.200   1.542  10.307 -3.8669 -1.0156 -1.3512
   20CHL1    C5 1414   0.151   1.608  10.102 -0.2608  0.4861 -0.2609
   20CHL1    C6 1415   0.141   1.481  10.052 -0.1031 -0.4936  0.3459
   20CHL1    H6 1416   0.149   1.393  10.118  0.7049  0.0183  0.9516
   20CHL1    C7 1417   0.108   1.449   9.910 -0.1895  0.4088 -1.1325
   20CHL1   H7A 1418   0.176   1.366   9.883 -0.6311 -0.6641  0.9349
   20CHL1   H7B 1419   0.001   1.420   9.918 -0.1148  0.3970 -0.0801
   20CHL1    C8 1420   0.119   1.570   9.817  0.0536 -0.6520  0.6321
   20CHL1    H8 1421   0.227   1.585   9.797  0.0993 -0.7088  0.8316
   20CHL1   C14 1422   0.050   1.543   9.688 -0.1364 -0.0975  0.2957
   20CHL1   H14 1423  -0.055   1.541   9.725 -0.5818  0.1325 -0.9335
   20CHL1   C15 1424   0.079   1.406   9.616 -0.4459  0.3208  0.5259
   20CHL1  H15A 1425   0.179   1.359   9.630  1.1474  3.7943  1.4766
   20CHL1  H15B 1426   0.007   1.328   9.649 -0.7377 -0.2539 -1.3890
   20CHL1   C16 1427   0.039   1.433   9.473  0.3648 -0.1223  0.7382
   20CHL1  H16A 1428   0.129   1.418   9.408  0.0302  2.6223 -0.4113
   20CHL1  H16B 1429  -0.053   1.374   9.453 -2.4175  4.3649 -0.3519
   20CHL1   C17 1430  -0.016   1.580   9.467 -0.4149  0.1829 -0.1582
   20CHL1   H17 1431  -0.117   1.561   9.508 -0.0372 -0.7306  0.3642
   20CHL1   C13 1432   0.058   1.651   9.580  0.0131  0.0598 -0.3303
   20CHL1   C18 1433   0.205   1.674   9.542 -0.4672 -0.2064 -0.9885
   20CHL1  H18A 1434   0.256   1.583   9.505  1.6130  1.0681 -1.3206
   20CHL1  H18B 1435   0.192   1.751   9.463 -3.1521  0.2204 -0.1865
   20CHL1  H18C 1436   0.270   1.711   9.624 -0.1504  0.4374 -1.5266
   20CHL1   C12 1437  -0.013   1.776   9.644 -1.0265  0.7174 -0.1981
   20CHL1  H12A 1438   0.007   1.859   9.573  3.2819 -0.8764 -0.9976
   20CHL1  H12B 1439  -0.122   1.765   9.658 -0.9143  1.1675  1.1612
   20CHL1   C11 1440   0.050   1.819   9.778 -0.0434  0.7036 -0.3612
   20CHL1  H11A 1441   0.148   1.866   9.755  1.0178 -2.1749 -2.0758
   20CHL1  H11B 1442  -0.002   1.902   9.829 -2.9925 -1.4940  0.3194
   20CHL1    C9 1443   0.067   1.705   9.883  0.2972 -0.0605 -0.4691
   20CHL1    H9 1444  -0.040   1.680   9.902  0.5805 -1.7966 -1.0530
   20CHL1   C10 1445   0.117   1.740  10.020  0.5689  0.0615 -0.1864
   20CHL1   C19 1446   0.246   1.827  10.006  0.0764  0.3293 -0.2547
   20CHL1  H19A 1447   0.213   1.920   9.955  0.5817  1.1135  0.8371
   20CHL1  H19B 1448   0.287   1.853  10.105  1.6492 -0.9913 -0.5370
   20CHL1  H19C 1449   0.312   1.780   9.930 -0.3317 -0.4849 -0.1107
   20CHL1    C1 1450   0.006   1.821  10.099 -0.1991 -0.3306 -0.1674
   20CHL1   H1A 1451  -0.019   1.914  10.044  0.1512  0.3895  0.8812
   20CHL1   H1B 1452  -0.092   1.767  10.099 -0.4393  0.0949 -1.2670
   20CHL1    C2 1453   0.033   1.840  10.248 -0.0846 -0.2869  0.4845
   20CHL1   H2A 1454  -0.052   1.888  10.301 -1.1262 -1.1685 -0.3750
   20CHL1   H2B 1455   0.119   1.907  10.270 -0.1463  0.1088 -0.4591
   20CHL1   C20 1456  -0.045   1.655   9.338  0.2436  0.0206  0.9845
   20CHL1   H20 1457   0.036   1.728   9.315 -0.0885 -0.1490 -0.8251
   20CHL1   C21 1458  -0.175   1.739   9.352 -0.1523 -0.5265  0.4429
   20CHL1  H21A 1459  -0.184   1.822   9.425  0.8632  0.0744 -0.1128
   20CHL1  H21B 1460  -0.259   1.667   9.366 -2.6069  1.9700 -0.7960
   20CHL1  H21C 1461  -0.202   1.785   9.254  0.6433  0.4177  0.6641
   20CHL1   C22 1462  -0.060   1.560   9.215  0.2429  0.1585  0.2195
   20CHL1  H22A 1463   0.038   1.509   9.202 -0.1701 -0.4858 -0.4067
   20CHL1  H22B 1464  -0.139   1.484   9.229  0.3224  0.3211  1.5536
   20CHL1   C23 1465  -0.088   1.632   9.085  0.3311  0.5149  0.1291
   20CHL1  H23A 1466  -0.189   1.677   9.074  0.1814  0.2216  0.3185
   20CHL1  H23B 1467  -0.024   1.723   9.075 -0.9191  1.4095  0.1131
   20CHL1   C24 1468  -0.049   1.533   8.971  0.5055  0.6382  0.6295
   20CHL1  H24A 1469   0.061   1.518   8.973  0.3985 -0.4327 -1.0801
   20CHL1  H24B 1470  -0.090   1.430   8.975  0.3449  0.6108 -1.2664
   20CHL1   C25 1471  -0.086   1.591   8.832 -0.1601  0.0621 -0.1570
   20CHL1   H25 1472  -0.189   1.631   8.836 -0.4019 -0.4625 -1.0082
   20CHL1   C26 1473   0.013   1.700   8.783  0.8085 -0.0929  0.2013
   20CHL1  H26A 1474   0.120   1.674   8.792  0.8654  0.3832  0.9477
   20CHL1  H26B 1475  -0.009   1.722   8.676  1.8844  3.1719  0.5991
   20CHL1  H26C 1476  -0.005   1.793   8.842  3.1134  1.0068 -0.7632
   20CHL1   C27 1477  -0.071   1.485   8.718  0.3659  0.3506  1.0599
   20CHL1  H27A 1478  -0.094   1.380   8.748  0.3453  0.2704  0.7595
   20CHL1  H27B 1479  -0.123   1.520   8.626  0.3714  0.6247  1.1623
   20CHL1  H27C 1480   0.035   1.477   8.685 -1.0344 -1.1358 -3.4549
   21CHL1    C3 1481   6.572   4.967  10.010  0.6503  0.0704  0.0882
   21CHL1    H3 1482   6.680   4.946   9.995  0.8150  1.5499 -0.8836
   21CHL1    O3 1483   6.554   4.975  10.150  0.0471  0.2549  0.1372
   21CHL1   H3' 1484   6.630   5.023  10.183 -1.1278  0.9008  1.9503
   21CHL1    C4 1485   6.530   5.099   9.953  1.3282  0.2440 -0.1989
   21CHL1   H4A 1486   6.424   5.113   9.981  1.4921 -1.6675  1.4960
   21CHL1   H4B 1487   6.592   5.175  10.005  0.7767  0.3802  0.2661
   21CHL1    C5 1488   6.544   5.104   9.801 -0.6477 -0.0706  1.2008
   21CHL1    C6 1489   6.618   5.192   9.736 -0.0807  0.0826 -0.9876
   21CHL1    H6 1490   6.667   5.270   9.796 -2.1379 -0.1764  1.0798
   21CHL1    C7 1491   6.618   5.208   9.586 -0.2527 -0.0179 -0.0794
   21CHL1   H7A 1492   6.593   5.313   9.560  1.7778  0.2943 -0.7935
   21CHL1   H7B 1493   6.716   5.198   9.536  1.3935 -0.1968  3.0380
   21CHL1    C8 1494   6.506   5.118   9.514 -1.1528 -0.0996 -0.7865
   21CHL1    H8 1495   6.409   5.171   9.525 -1.0097 -0.0437  0.2824
   21CHL1   C14 1496   6.536   5.107   9.375  0.3654  0.1205  0.0820
   21CHL1   H14 1497   6.634   5.055   9.368  0.6755  0.8415 -1.0818
   21CHL1   C15 1498   6.564   5.231   9.290  0.1995 -0.4228  0.2485
   21CHL1  H15A 1499   6.510   5.316   9.337  0.9909 -0.8793  2.0427
   21CHL1  H15B 1500   6.673   5.245   9.271  0.2096  1.2097  1.3889
   21CHL1   C16 1501   6.500   5.202   9.150 -0.0569 -0.6789  0.7803
   21CHL1  H16A 1502   6.404   5.256   9.138  0.2872 -0.4860 -1.2936
   21CHL1  H16B 1503   6.563   5.229   9.062 -2.1093  0.3000 -0.4393
   21CHL1   C17 1504   6.475   5.050   9.144 -0.2981 -0.0896 -0.0754
   21CHL1   H17 1505   6.567   4.990   9.130 -0.1388 -0.5854  2.6325
   21CHL1   C13 1506   6.441   5.014   9.296 -1.4392 -0.1708 -0.1903
   21CHL1   C18 1507   6.294   5.054   9.333  0.1306  0.6543  0.0170
   21CHL1  H18A 1508   6.209   5.012   9.275 -0.5504  3.0233 -0.7640
   21CHL1  H18B 1509   6.275   5.032   9.440  1.5862  2.0739  0.5870
   21CHL1  H18C 1510   6.284   5.164   9.320  1.2597  0.9860  1.7887
   21CHL1   C12 1511   6.467   4.870   9.347 -0.6619  0.7586  0.2993
   21CHL1  H12A 1512   6.401   4.791   9.305 -0.4759 -0.5358  2.3680
   21CHL1  H12B 1513   6.567   4.838   9.310 -1.7258  0.1649 -2.1410
   21CHL1   C11 1514   6.444   4.860   9.499 -0.3602  0.3000 -0.8368
   21CHL1  H11A 1515   6.335   4.845   9.510  0.0185 -1.6136  0.5822
   21CHL1  H11B 1516   6.483   4.763   9.536  1.5336  1.1771 -0.4359
   21CHL1    C9 1517   6.515   4.976   9.578  0.2382 -0.3334 -0.1005
   21CHL1    H9 1518   6.622   4.947   9.569  0.1415 -0.9813  0.7312
   21CHL1   C10 1519   6.474   4.983   9.721 -0.0846  0.3256 -0.5862
   21CHL1   C19 1520   6.322   5.009   9.734 -0.7031  0.6340 -0.1720
   21CHL1  H19A 1521   6.288   5.105   9.689 -0.8565  1.3177  1.3665
   21CHL1  H19B 1522   6.263   4.938   9.673  2.4186 -0.4112 -2.0725
   21CHL1  H19C 1523   6.284   4.994   9.837 -1.0138 -0.0701 -0.3878
   21CHL1    C1 1524   6.515   4.848   9.791 -0.1195 -0.4461  0.0402
   21CHL1   H1A 1525   6.438   4.780   9.750  1.1214 -2.3743  0.8469
   21CHL1   H1B 1526   6.617   4.816   9.765  0.5071 -0.0871  1.9584
   21CHL1    C2 1527   6.502   4.850   9.950  0.1023 -0.6288  0.5378
   21CHL1   H2A 1528   6.539   4.750   9.980 -1.7787 -1.3878  0.4563
   21CHL1   H2B 1529   6.394   4.837   9.973  0.0686  3.2655  2.8863
   21CHL1   C20 1530   6.368   5.005   9.040 -0.5177  0.4196  0.2225
   21CHL1   H20 1531   6.274   5.057   9.071 -1.4541 -1.7910  1.2143
   21CHL1   C21 1532   6.335   4.849   9.050  0.3622 -0.4959  0.4002
   21CHL1  H21A 1533   6.261   4.834   8.968  0.4636  2.8907 -0.3926
   21CHL1  H21B 1534   6.276   4.831   9.143 -2.7363  0.7043 -1.2408
   21CHL1  H21C 1535   6.420   4.781   9.029 -1.5181 -2.1695 -2.1563
   21CHL1   C22 1536   6.397   5.048   8.899  0.0169  0.4301  0.0811
   21CHL1  H22A 1537   6.315   5.015   8.832 -1.4021  2.3597  0.8278
   21CHL1  H22B 1538   6.403   5.159   8.902  2.1810  0.3176  1.5763
   21CHL1   C23 1539   6.535   4.992   8.840 -0.4929 -0.0507 -0.2553
   21CHL1  H23A 1540   6.616   5.006   8.914  0.0988 -0.2661 -0.8575
   21CHL1  H23B 1541   6.542   4.882   8.824 -1.4886  0.0587 -1.4810
   21CHL1   C24 1542   6.573   5.063   8.711  0.7955  0.2811  0.1542
   21CHL1  H24A 1543   6.492   5.036   8.640 -2.0368  0.7271  3.1110
   21CHL1  H24B 1544   6.568   5.173   8.726 -0.7302 -0.1671  3.1619
   21CHL1   C25 1545   6.700   5.030   8.638  0.1627  0.1110 -0.2736
   21CHL1   H25 1546   6.712   4.921   8.618 -1.9001 -0.2778  0.5478
   21CHL1   C26 1547   6.686   5.086   8.494 -0.3492 -0.4308  0.2559
   21CHL1  H26A 1548   6.662   5.194   8.481 -0.9540 -0.7362 -1.1970
   21CHL1  H26B 1549   6.769   5.047   8.432 -0.4382  1.0525 -0.8169
   21CHL1  H26C 1550   6.594   5.040   8.452 -1.2257  0.2003  1.4412
   21CHL1   C27 1551   6.825   5.075   8.709  0.1143 -0.0544  0.8569
   21CHL1  H27A 1552   6.913   5.050   8.646  0.0080 -0.5264  0.8923
   21CHL1  H27B 1553   6.818   5.185   8.725 -1.5432  0.3822 -2.4335
   21CHL1  H27C 1554   6.827   5.022   8.807 -0.7449 -1.2020  0.2672
   22CHL1    C3 1555   6.150   6.125  10.014  0.0288 -0.0531 -0.3625
   22CHL1    H3 1556   6.236   6.056  10.001 -0.8306 -1.4967  1.4616
   22CHL1    O3 1557   6.142   6.179  10.145  0.1891  0.0239 -0.2650
   22CHL1   H3' 1558   6.054   6.217  10.151  0.7471  1.0250  2.6245
   22CHL1    C4 1559   6.145   6.241   9.906 -0.2127  0.5835 -0.2571
   22CHL1   H4A 1560   6.048   6.289   9.934 -2.7398 -3.1212 -2.2339
   22CHL1   H4B 1561   6.234   6.302   9.933  0.4048 -0.6439  0.5141
   22CHL1    C5 1562   6.131   6.202   9.762 -0.3294 -0.1562 -0.3240
   22CHL1    C6 1563   6.216   6.244   9.668  0.0889  0.4714  0.3133
   22CHL1    H6 1564   6.292   6.320   9.691 -1.6068  1.7958  1.6306
   22CHL1    C7 1565   6.201   6.197   9.528 -0.3456 -0.1609 -0.6814
   22CHL1   H7A 1566   6.206   6.284   9.460 -0.2978 -0.1366 -0.6452
   22CHL1   H7B 1567   6.278   6.123   9.501 -2.5108 -2.8084  0.1650
   22CHL1    C8 1568   6.063   6.127   9.494  0.4451 -0.7097  0.3625
   22CHL1    H8 1569   5.983   6.203   9.488  0.0486 -1.0240  1.5432
   22CHL1   C14 1570   6.075   6.063   9.354  0.4656  0.5012  0.5934
   22CHL1   H14 1571   6.153   5.986   9.370  1.7559  2.1949  2.6413
   22CHL1   C15 1572   6.123   6.148   9.238  0.3235 -0.0613  0.0568
   22CHL1  H15A 1573   6.081   6.251   9.235 -2.1752 -1.0671 -0.6566
   22CHL1  H15B 1574   6.234   6.159   9.239  0.1970  1.1873  1.3553
   22CHL1   C16 1575   6.063   6.066   9.118 -0.6034  0.0100 -0.1497
   22CHL1  H16A 1576   5.995   6.136   9.065 -0.1432  3.5696  3.6915
   22CHL1  H16B 1577   6.141   6.021   9.053 -0.6426 -0.5225  0.1668
   22CHL1   C17 1578   5.986   5.945   9.177  0.0019  0.5652  0.0547
   22CHL1   H17 1579   6.064   5.868   9.195 -0.4140 -0.4638 -2.3837
   22CHL1   C13 1580   5.942   5.989   9.315 -0.4475 -0.3881  0.0224
   22CHL1   C18 1581   5.820   6.080   9.296  0.0647 -0.2019 -0.0913
   22CHL1  H18A 1582   5.785   6.136   9.385 -1.1114 -1.1117  0.0310
   22CHL1  H18B 1583   5.845   6.148   9.212  2.9901 -1.2413 -0.1369
   22CHL1  H18C 1584   5.728   6.026   9.266  1.2381 -2.5944  0.4431
   22CHL1   C12 1585   5.921   5.880   9.419 -0.1093  0.7320  0.1433
   22CHL1  H12A 1586   5.829   5.820   9.398 -0.1733  1.0140 -0.3987
   22CHL1  H12B 1587   6.002   5.805   9.407 -0.2561  0.6031 -0.0468
   22CHL1   C11 1588   5.902   5.939   9.559  0.0119 -0.0410 -0.4514
   22CHL1  H11A 1589   5.804   5.991   9.565  1.0620  1.6736  2.9806
   22CHL1  H11B 1590   5.892   5.854   9.630  1.8628  1.8699  2.1691
   22CHL1    C9 1591   6.025   6.020   9.602  0.9020 -0.0184 -0.3397
   22CHL1    H9 1592   6.110   5.950   9.618  0.2816 -0.8715 -0.8130
   22CHL1   C10 1593   6.015   6.099   9.740 -0.4287 -0.0997  0.1803
   22CHL1   C19 1594   5.887   6.182   9.755  0.0056 -0.6478 -0.9576
   22CHL1  H19A 1595   5.889   6.274   9.693 -0.2229 -0.6486 -0.9665
   22CHL1  H19B 1596   5.797   6.123   9.725 -0.2610  0.0284 -1.4885
   22CHL1  H19C 1597   5.873   6.210   9.861  1.2538 -0.4615 -0.8326
   22CHL1    C1 1598   6.012   5.987   9.849 -0.2283  0.2475  0.6002
   22CHL1   H1A 1599   5.917   5.931   9.856 -0.7918  1.4643  3.4576
   22CHL1   H1B 1600   6.090   5.909   9.833 -2.1238 -2.0307  2.1913
   22CHL1    C2 1601   6.029   6.033   9.999 -0.0208  0.3030  1.0880
   22CHL1   H2A 1602   6.039   5.948  10.069  1.6969  0.7381  1.4135
   22CHL1   H2B 1603   5.935   6.085  10.025  0.3499  0.8516  1.3589
   22CHL1   C20 1604   5.878   5.893   9.075 -0.0842 -0.0763  0.4336
   22CHL1   H20 1605   5.792   5.962   9.066  1.4324  1.8265  0.1937
   22CHL1   C21 1606   5.829   5.761   9.130  0.3424 -0.1261  0.3721
   22CHL1  H21A 1607   5.773   5.707   9.051 -1.0227  1.1286  0.4732
   22CHL1  H21B 1608   5.752   5.781   9.208  1.0403  2.2309  0.5078
   22CHL1  H21C 1609   5.913   5.704   9.174  0.4353 -1.4041 -1.4243
   22CHL1   C22 1610   5.929   5.879   8.933  0.8369 -0.5816 -0.0679
   22CHL1  H22A 1611   5.842   5.848   8.871 -0.0509 -0.4516  1.0877
   22CHL1  H22B 1612   5.971   5.973   8.891  0.0458 -1.4422 -2.9158
   22CHL1   C23 1613   6.035   5.769   8.918 -0.3507 -0.4849 -0.3259
   22CHL1  H23A 1614   6.123   5.798   8.980 -0.0342  1.8232 -1.7763
   22CHL1  H23B 1615   6.003   5.673   8.965  3.9696 -1.9779 -0.1821
   22CHL1   C24 1616   6.085   5.739   8.769  0.3327  0.0260  0.0210
   22CHL1  H24A 1617   6.158   5.817   8.739 -1.0036  1.3610  0.1689
   22CHL1  H24B 1618   6.147   5.647   8.780  1.9779  1.2258  1.0844
   22CHL1   C25 1619   5.975   5.720   8.661 -0.0471 -0.2740 -0.1842
   22CHL1   H25 1620   5.896   5.799   8.664  0.5930  0.5813 -3.5714
   22CHL1   C26 1621   6.042   5.750   8.523 -0.3981 -0.1340  0.5359
   22CHL1  H26A 1622   6.116   5.673   8.492 -0.0441  0.6952 -0.7392
   22CHL1  H26B 1623   5.971   5.762   8.438 -1.1137  1.5398  1.3497
   22CHL1  H26C 1624   6.090   5.850   8.522 -1.3775  0.3368 -0.1874
   22CHL1   C27 1625   5.926   5.578   8.660  0.2881  0.2626  0.0875
   22CHL1  H27A 1626   6.008   5.509   8.629  0.4318  0.5325 -0.1374
   22CHL1  H27B 1627   5.891   5.541   8.758 -0.8899  1.9812  0.3240
   22CHL1  H27C 1628   5.836   5.568   8.596 -0.9855  2.4015  1.4976
   23CHL1    C3 1629   2.578   0.534  10.299 -0.7148  0.2083 -0.0619
   23CHL1    H3 1630   2.664   0.471  10.267 -0.9592 -0.5865  0.8095
   23CHL1    O3 1631   2.579   0.532  10.445 -0.6983  0.4741 -0.3162
   23CHL1   H3' 1632   2.643   0.602  10.463 -0.5123  0.0803  0.5471
   23CHL1    C4 1633   2.595   0.679  10.253  0.0582  0.5134 -0.2644
   23CHL1   H4A 1634   2.514   0.731  10.309 -1.5585 -1.5480 -0.6542
   23CHL1   H4B 1635   2.688   0.729  10.289  1.6744  0.3602 -4.0339
   23CHL1    C5 1636   2.571   0.702  10.110 -0.1139 -0.2466  0.7159
   23CHL1    C6 1637   2.677   0.742  10.035  0.4391  0.1784 -0.4096
   23CHL1    H6 1638   2.765   0.784  10.087  1.4168 -3.1849  0.7245
   23CHL1    C7 1639   2.672   0.755   9.883  0.4391  0.1169  0.9038
   23CHL1   H7A 1640   2.724   0.850   9.860  0.7619 -0.6670 -1.7479
   23CHL1   H7B 1641   2.733   0.678   9.831 -0.3174  0.5422 -0.6281
   23CHL1    C8 1642   2.530   0.749   9.830 -0.2816  0.2514 -0.2285
   23CHL1    H8 1643   2.487   0.848   9.856 -1.4889  0.6773 -3.5734
   23CHL1   C14 1644   2.528   0.721   9.685  0.3432 -0.1756 -0.3193
   23CHL1   H14 1645   2.567   0.618   9.668  0.7558  0.0821 -0.9476
   23CHL1   C15 1646   2.616   0.810   9.600 -0.7665  0.2148  0.3156
   23CHL1  H15A 1647   2.609   0.916   9.629  1.4999  1.0429 -1.9551
   23CHL1  H15B 1648   2.720   0.772   9.592 -0.2161  2.1268 -2.3622
   23CHL1   C16 1649   2.553   0.808   9.459  0.2657 -0.4353  0.9430
   23CHL1  H16A 1650   2.520   0.911   9.437  0.8404 -0.8961 -2.1900
   23CHL1  H16B 1651   2.620   0.772   9.378 -0.1358  0.7440  0.0827
   23CHL1   C17 1652   2.429   0.704   9.468 -0.2383  0.0125  0.2557
   23CHL1   H17 1653   2.460   0.597   9.467  0.3381  0.1492 -4.0807
   23CHL1   C13 1654   2.393   0.718   9.617 -0.3340  0.0319  0.6271
   23CHL1   C18 1655   2.324   0.853   9.644 -0.1628 -0.0578 -0.5231
   23CHL1  H18A 1656   2.220   0.843   9.606 -0.0527 -1.0292 -0.5782
   23CHL1  H18B 1657   2.329   0.883   9.751  2.5288  0.4756 -0.7815
   23CHL1  H18C 1658   2.371   0.935   9.586 -2.5456  1.1354 -0.8622
   23CHL1   C12 1659   2.317   0.593   9.680  0.4029 -0.3869 -0.0150
   23CHL1  H12A 1660   2.214   0.593   9.639  0.0074  1.0752  0.9575
   23CHL1  H12B 1661   2.365   0.501   9.641  0.1855 -0.6107  0.2383
   23CHL1   C11 1662   2.309   0.610   9.826 -0.5621 -0.2837 -0.2313
   23CHL1  H11A 1663   2.235   0.686   9.858  1.8321  2.5491 -1.1593
   23CHL1  H11B 1664   2.281   0.513   9.871  3.2976  0.2575  3.6509
   23CHL1    C9 1665   2.449   0.636   9.895 -0.2013  0.1701  0.0063
   23CHL1    H9 1666   2.494   0.540   9.861  0.8866  0.5094  0.4640
   23CHL1   C10 1667   2.447   0.638  10.048  0.4935 -0.3584  0.5883
   23CHL1   C19 1668   2.319   0.716  10.099 -0.1652  0.0942  0.3855
   23CHL1  H19A 1669   2.234   0.648  10.078  1.0335 -1.0293 -1.0413
   23CHL1  H19B 1670   2.319   0.748  10.205  0.7341  2.0421 -0.1755
   23CHL1  H19C 1671   2.332   0.802  10.029  2.0493 -0.6795 -0.2104
   23CHL1    C1 1672   2.448   0.489  10.096  0.2536  0.3590  0.5916
   23CHL1   H1A 1673   2.368   0.425  10.052  1.7442  0.1582 -1.8869
   23CHL1   H1B 1674   2.538   0.443  10.052 -0.2148 -1.4584  1.4523
   23CHL1    C2 1675   2.455   0.468  10.249  0.0776 -0.6604 -0.0617
   23CHL1   H2A 1676   2.454   0.359  10.269  2.7610 -0.6281  0.4010
   23CHL1   H2B 1677   2.371   0.521  10.297 -0.1335 -0.6213 -0.4699
   23CHL1   C20 1678   2.327   0.734   9.357  0.3694  0.1937  0.4392
   23CHL1   H20 1679   2.303   0.841   9.372 -0.4779  0.0605  0.0479
   23CHL1   C21 1680   2.192   0.653   9.372 -0.4684  0.6262 -0.1899
   23CHL1  H21A 1681   2.139   0.687   9.464 -1.8407  0.6228 -0.9684
   23CHL1  H21B 1682   2.222   0.547   9.383 -1.4699  0.3533 -0.0588
   23CHL1  H21C 1683   2.132   0.676   9.282  2.6312  1.8533 -1.9972
   23CHL1   C22 1684   2.384   0.729   9.218  0.4581  0.0298 -0.4275
   23CHL1  H22A 1685   2.300   0.734   9.146 -0.2277  1.0533  0.4403
   23CHL1  H22B 1686   2.455   0.812   9.198 -0.8977  2.2223  3.2954
   23CHL1   C23 1687   2.460   0.595   9.183 -0.5702 -0.6224  0.4160
   23CHL1  H23A 1688   2.541   0.589   9.259 -0.9405 -0.1446  0.8578
   23CHL1  H23B 1689   2.389   0.510   9.181 -1.5141  0.1501  0.5344
   23CHL1   C24 1690   2.512   0.605   9.033 -0.0465  0.3137 -0.0157
   23CHL1  H24A 1691   2.421   0.622   8.971 -1.5602 -2.6269  1.2998
   23CHL1  H24B 1692   2.574   0.697   9.032  0.4607 -0.0149  0.6133
   23CHL1   C25 1693   2.610   0.493   8.992 -0.1157  0.3101 -0.9631
   23CHL1   H25 1694   2.679   0.474   9.077 -0.0496  2.0919 -0.5990
   23CHL1   C26 1695   2.533   0.362   8.970  0.3369 -0.0397 -0.5261
   23CHL1  H26A 1696   2.474   0.358   8.877 -0.6503  0.8735  0.0414
   23CHL1  H26B 1697   2.600   0.274   8.973  1.3114  0.7168  0.0876
   23CHL1  H26C 1698   2.462   0.345   9.055  0.4977  0.2097 -0.3411
   23CHL1   C27 1699   2.693   0.524   8.867  0.0264  0.2771 -0.3017
   23CHL1  H27A 1700   2.624   0.521   8.780 -0.2723 -0.9787 -0.0304
   23CHL1  H27B 1701   2.735   0.626   8.885 -0.1460  0.4991 -1.1207
   23CHL1  H27C 1702   2.778   0.453   8.865 -0.4888 -0.3875  0.9746
   24CHL1    C3 1703   4.020   1.014  10.084 -0.1169 -0.7710 -0.3206
   24CHL1    H3 1704   4.092   0.941  10.041 -0.0828 -0.9027 -0.0416
   24CHL1    O3 1705   4.004   0.996  10.221  0.1689  0.3586 -0.1322
   24CHL1   H3' 1706   3.949   1.068  10.253  0.4140 -0.0808  1.3152
   24CHL1    C4 1707   4.072   1.158  10.062  0.6576  0.3296  0.0791
   24CHL1   H4A 1708   4.004   1.224  10.120  1.6408  0.0575  1.5487
   24CHL1   H4B 1709   4.173   1.153  10.107  1.2233  0.4040 -1.1588
   24CHL1    C5 1710   4.075   1.202   9.917  0.4083  0.0130  0.0609
   24CHL1    C6 1711   4.189   1.242   9.856  0.6626  0.9333  0.0155
   24CHL1    H6 1712   4.277   1.265   9.917 -0.0763  1.8262  0.7562
   24CHL1    C7 1713   4.209   1.267   9.708 -0.3436  0.5636  0.0620
   24CHL1   H7A 1714   4.272   1.357   9.692  1.7028 -0.5372  1.6127
   24CHL1   H7B 1715   4.258   1.177   9.666 -0.9700 -0.0805  0.6994
   24CHL1    C8 1716   4.072   1.285   9.642 -0.3122 -0.3668  0.1665
   24CHL1    H8 1717   4.030   1.380   9.679  0.2958  1.1402 -2.9174
   24CHL1   C14 1718   4.085   1.293   9.492  0.4639 -0.1191 -0.6050
   24CHL1   H14 1719   4.141   1.201   9.461  2.6831  0.7330  0.7454
   24CHL1   C15 1720   4.172   1.410   9.442  0.8553  0.4297  0.8870
   24CHL1  H15A 1721   4.138   1.504   9.491  1.7647 -0.5584  3.4989
   24CHL1  H15B 1722   4.280   1.391   9.459  0.8177 -0.5696  0.0184
   24CHL1   C16 1723   4.137   1.409   9.299  0.2055 -0.2636 -0.1564
   24CHL1  H16A 1724   4.118   1.515   9.272  1.4588  0.3582  1.3333
   24CHL1  H16B 1725   4.219   1.381   9.229 -0.3405  3.8565 -2.5894
   24CHL1   C17 1726   4.005   1.325   9.275 -0.1918  0.1147  0.9840
   24CHL1   H17 1727   4.033   1.224   9.238  0.9292  0.6785  0.2860
   24CHL1   C13 1728   3.955   1.304   9.417 -0.2849  0.5387  0.1712
   24CHL1   C18 1729   3.879   1.432   9.464 -0.0180  0.2915  0.2673
   24CHL1  H18A 1730   3.789   1.438   9.399  0.6484 -3.0362 -1.0417
   24CHL1  H18B 1731   3.858   1.427   9.573  1.3261  1.5307  0.5945
   24CHL1  H18C 1732   3.934   1.528   9.452 -0.0073  0.5858  2.3865
   24CHL1   C12 1733   3.876   1.177   9.444  0.2683  0.2833 -0.2550
   24CHL1  H12A 1734   3.780   1.175   9.388  1.5924  0.2332 -2.6210
   24CHL1  H12B 1735   3.935   1.088   9.412 -0.5105  0.1699 -1.4154
   24CHL1   C11 1736   3.848   1.152   9.596 -0.5565  0.2433 -0.3595
   24CHL1  H11A 1737   3.763   1.215   9.629 -0.0728  1.9242 -2.2759
   24CHL1  H11B 1738   3.806   1.049   9.600  0.1392 -0.1173 -2.0849
   24CHL1    C9 1739   3.974   1.171   9.681  0.0080 -0.0153 -0.1860
   24CHL1    H9 1740   4.032   1.078   9.662  0.9059  0.3556  0.6786
   24CHL1   C10 1741   3.944   1.162   9.834  0.1416  0.2396 -0.1924
   24CHL1   C19 1742   3.829   1.263   9.873  0.6285  1.2092 -0.1911
   24CHL1  H19A 1743   3.818   1.247   9.982  0.9360 -0.3819 -0.3708
   24CHL1  H19B 1744   3.845   1.368   9.840  1.3607  1.4587  0.9200
   24CHL1  H19C 1745   3.736   1.227   9.824  1.1884 -0.3932 -0.1246
   24CHL1    C1 1746   3.898   1.020   9.868 -0.1317  0.1600  0.8083
   24CHL1   H1A 1747   3.795   1.012   9.830 -0.1242 -0.5287  0.9295
   24CHL1   H1B 1748   3.962   0.940   9.825 -1.5189  0.0418 -1.0674
   24CHL1    C2 1749   3.888   0.987  10.018 -0.2910 -0.6851  0.7287
   24CHL1   H2A 1750   3.855   0.881  10.019 -1.2304 -0.4149 -0.2786
   24CHL1   H2B 1751   3.804   1.043  10.066 -1.6310 -2.2728  0.2658
   24CHL1   C20 1752   3.916   1.380   9.169  0.0169 -0.4727 -0.5172
   24CHL1   H20 1753   3.892   1.482   9.204  2.1414  0.0710 -0.5651
   24CHL1   C21 1754   3.776   1.307   9.162 -0.2594  0.6327  0.5070
   24CHL1  H21A 1755   3.717   1.350   9.077  1.1643  0.2196 -0.6976
   24CHL1  H21B 1756   3.713   1.319   9.253  1.1286  0.2462  1.5348
   24CHL1  H21C 1757   3.790   1.198   9.150 -0.7748  0.6374 -0.1854
   24CHL1   C22 1758   3.975   1.386   9.022  1.0679  0.4750 -0.5898
   24CHL1  H22A 1759   3.896   1.422   8.952 -1.8454 -3.1667  0.6225
   24CHL1  H22B 1760   4.059   1.458   9.015  2.6876 -1.3052  0.1084
   24CHL1   C23 1761   4.037   1.247   8.973  0.6347 -0.4248 -0.1274
   24CHL1  H23A 1762   4.131   1.224   9.028  0.2830 -1.7766 -0.0768
   24CHL1  H23B 1763   3.967   1.166   9.001 -2.9904  2.9183  0.9324
   24CHL1   C24 1764   4.070   1.258   8.821  0.2611 -0.3821  1.1689
   24CHL1  H24A 1765   4.070   1.156   8.777  1.6719  0.6704 -1.3658
   24CHL1  H24B 1766   3.995   1.314   8.762 -0.1248 -2.5431 -0.4581
   24CHL1   C25 1767   4.208   1.327   8.788 -0.3358 -0.0286  0.3924
   24CHL1   H25 1768   4.202   1.436   8.809  0.2964  0.5556 -2.2389
   24CHL1   C26 1769   4.331   1.268   8.861  0.0780  0.0342  0.1037
   24CHL1  H26A 1770   4.321   1.159   8.880  0.9761  0.3324  2.3759
   24CHL1  H26B 1771   4.419   1.290   8.797 -0.6335  3.5746  0.2564
   24CHL1  H26C 1772   4.340   1.325   8.955 -0.2814  2.1088 -1.0895
   24CHL1   C27 1773   4.235   1.326   8.638  0.1987 -0.2900 -0.1600
   24CHL1  H27A 1774   4.261   1.220   8.614  0.2632  0.0117 -1.4417
   24CHL1  H27B 1775   4.147   1.344   8.574  1.6394 -1.3509 -2.5024
   24CHL1  H27C 1776   4.318   1.393   8.608 -0.8922  1.2118  0.1381
   25CHL1    C3 1777   5.390   2.539  10.375 -0.4360  0.4978 -0.6482
   25CHL1    H3 1778   5.387   2.650  10.370  1.3422  0.6119  0.3751
   25CHL1    O3 1779   5.393   2.502  10.514  0.2181 -0.1507 -0.1929
   25CHL1   H3' 1780   5.402   2.407  10.515 -1.5827 -0.3299 -0.0464
   25CHL1    C4 1781   5.274   2.486  10.296 -0.2994 -0.1242  0.2288
   25CHL1   H4A 1782   5.258   2.376  10.300 -1.1961 -0.1195 -2.1950
   25CHL1   H4B 1783   5.180   2.520  10.344 -0.7061 -0.5419 -0.2723
   25CHL1    C5 1784   5.277   2.523  10.150  0.4934  0.1815  0.4048
   25CHL1    C6 1785   5.173   2.586  10.094 -0.0601  0.0720  0.5947
   25CHL1    H6 1786   5.084   2.615  10.151 -0.1474  1.2320 -0.1053
   25CHL1    C7 1787   5.172   2.601   9.940  0.1987  0.2886 -0.0950
   25CHL1   H7A 1788   5.081   2.571   9.884  1.9245 -0.6058 -2.4683
   25CHL1   H7B 1789   5.196   2.708   9.925 -1.0480  0.4917 -0.7281
   25CHL1    C8 1790   5.289   2.538   9.863  0.2304 -0.0983 -0.2933
   25CHL1    H8 1791   5.272   2.429   9.851 -0.0765 -0.3030  1.7547
   25CHL1   C14 1792   5.291   2.598   9.730  0.5481  0.3900 -0.0273
   25CHL1   H14 1793   5.316   2.704   9.749  0.1977  0.0946  2.2602
   25CHL1   C15 1794   5.168   2.595   9.639  0.3286 -0.3694 -0.2147
   25CHL1  H15A 1795   5.125   2.494   9.653 -0.1079 -0.0853  0.5163
   25CHL1  H15B 1796   5.085   2.664   9.664  0.7841  0.1240 -0.0656
   25CHL1   C16 1797   5.218   2.622   9.499 -0.2995  0.0195  0.1819
   25CHL1  H16A 1798   5.173   2.549   9.428  2.7360 -1.4095 -0.3580
   25CHL1  H16B 1799   5.167   2.716   9.468 -0.8634 -1.1521 -2.5780
   25CHL1   C17 1800   5.374   2.628   9.512 -0.8051 -0.0494  0.4554
   25CHL1   H17 1801   5.396   2.733   9.540  0.9005 -0.7615  1.9450
   25CHL1   C13 1802   5.407   2.545   9.640  0.5631  0.1270  0.5564
   25CHL1   C18 1803   5.391   2.399   9.597 -0.4394 -0.3330  0.5998
   25CHL1  H18A 1804   5.298   2.373   9.542 -0.0414  0.0759 -0.2814
   25CHL1  H18B 1805   5.472   2.365   9.528 -0.2704 -0.1203  0.6936
   25CHL1  H18C 1806   5.397   2.334   9.687  1.0762 -1.5965 -0.3821
   25CHL1   C12 1807   5.543   2.561   9.718 -0.4607 -0.3744  0.7760
   25CHL1  H12A 1808   5.628   2.523   9.657 -0.5743 -0.0089  0.3894
   25CHL1  H12B 1809   5.560   2.670   9.731  0.8867 -0.8873  3.8112
   25CHL1   C11 1810   5.544   2.490   9.852 -0.1281 -0.3319  0.4237
   25CHL1  H11A 1811   5.540   2.381   9.833 -0.4273 -0.0521 -1.1928
   25CHL1  H11B 1812   5.640   2.512   9.903 -0.5869 -2.0360  2.0622
   25CHL1    C9 1813   5.422   2.543   9.937  0.7029  0.3051 -0.5073
   25CHL1    H9 1814   5.440   2.651   9.958 -0.8742  0.9104 -2.1333
   25CHL1   C10 1815   5.405   2.483  10.079  0.3552 -0.0177  0.8218
   25CHL1   C19 1816   5.415   2.333  10.072 -0.4288 -0.1391  0.2581
   25CHL1  H19A 1817   5.393   2.277  10.166  3.1029 -1.6138  0.2944
   25CHL1  H19B 1818   5.335   2.290  10.009 -1.4272  0.2326  1.2659
   25CHL1  H19C 1819   5.519   2.304  10.044 -0.5067 -0.9468  0.7841
   25CHL1    C1 1820   5.527   2.539  10.169  0.0315 -0.2354  0.3822
   25CHL1   H1A 1821   5.626   2.511  10.126 -0.0679  0.1704 -0.1080
   25CHL1   H1B 1822   5.520   2.649  10.175  1.7225 -0.0411 -0.8098
   25CHL1    C2 1823   5.522   2.496  10.311 -0.7566 -0.0436  0.4266
   25CHL1   H2A 1824   5.604   2.525  10.381 -0.7139 -0.9330  0.7559
   25CHL1   H2B 1825   5.525   2.385  10.324  0.7544  0.0114  0.6451
   25CHL1   C20 1826   5.454   2.600   9.382  0.2756  0.3460  0.4355
   25CHL1   H20 1827   5.476   2.493   9.362  1.9358  0.7154  0.2257
   25CHL1   C21 1828   5.587   2.677   9.397  0.2515  0.4510 -0.4123
   25CHL1  H21A 1829   5.581   2.787   9.406 -1.3399  0.3030  0.3830
   25CHL1  H21B 1830   5.651   2.649   9.310  1.5473 -0.3725  0.7704
   25CHL1  H21C 1831   5.637   2.642   9.491  0.2012 -0.6624 -0.7950
   25CHL1   C22 1832   5.372   2.654   9.264  0.2151 -0.4385 -0.2009
   25CHL1  H22A 1833   5.281   2.594   9.245 -0.0245 -0.1525  0.0461
   25CHL1  H22B 1834   5.344   2.762   9.273 -0.5466 -0.5721 -0.9491
   25CHL1   C23 1835   5.454   2.641   9.129 -0.5234 -0.1266  0.4562
   25CHL1  H23A 1836   5.545   2.704   9.138 -0.4545  0.1648 -2.0067
   25CHL1  H23B 1837   5.483   2.534   9.124 -0.4987 -0.0135 -2.9862
   25CHL1   C24 1838   5.390   2.667   8.988  0.1929 -0.2818 -0.3149
   25CHL1  H24A 1839   5.305   2.597   8.969  0.4254 -1.2122  1.8353
   25CHL1  H24B 1840   5.370   2.776   8.991  0.9533 -0.1613  4.1822
   25CHL1   C25 1841   5.494   2.647   8.876  0.5416  0.2465 -0.7622
   25CHL1   H25 1842   5.557   2.559   8.903  1.6580  0.4529 -2.6099
   25CHL1   C26 1843   5.422   2.635   8.743  0.0023 -0.4606 -0.8957
   25CHL1  H26A 1844   5.349   2.552   8.741 -1.0557  0.4402  0.0279
   25CHL1  H26B 1845   5.372   2.732   8.719  0.5626 -0.3781 -1.7820
   25CHL1  H26C 1846   5.494   2.638   8.658 -0.4107 -0.5638 -1.2496
   25CHL1   C27 1847   5.584   2.773   8.862  0.1293  0.2893 -0.0285
   25CHL1  H27A 1848   5.660   2.758   8.782 -0.8570 -1.8377 -0.6118
   25CHL1  H27B 1849   5.524   2.863   8.837  0.5147  0.0290 -1.9954
   25CHL1  H27C 1850   5.640   2.794   8.956  2.0568 -0.3191 -0.9925
   26CHL1    C3 1851   6.563   5.966   9.917  0.1159 -0.1781 -0.1183
   26CHL1    H3 1852   6.488   5.884   9.908  1.9965 -2.3679  3.2812
   26CHL1    O3 1853   6.561   6.009  10.048 -0.1165  0.1604 -0.4865
   26CHL1   H3' 1854   6.653   6.029  10.069 -0.8045  2.3210  0.6673
   26CHL1    C4 1855   6.701   5.919   9.869  0.0190 -0.2172  0.1722
   26CHL1   H4A 1856   6.772   6.005   9.873  2.2851 -2.0035 -0.7140
   26CHL1   H4B 1857   6.741   5.858   9.953  2.0827  1.4602  0.4481
   26CHL1    C5 1858   6.694   5.864   9.728 -0.1014  0.6994  0.0479
   26CHL1    C6 1859   6.729   5.730   9.703 -0.4181  0.1622  0.4970
   26CHL1    H6 1860   6.762   5.669   9.788 -0.9224  1.2247  1.4740
   26CHL1    C7 1861   6.726   5.668   9.566  0.2923  0.9758 -0.5155
   26CHL1   H7A 1862   6.828   5.626   9.555  0.8806  2.0147  0.8712
   26CHL1   H7B 1863   6.643   5.596   9.550  1.8791 -1.0045 -0.0332
   26CHL1    C8 1864   6.716   5.771   9.452 -0.7044  0.1276 -0.4598
   26CHL1    H8 1865   6.814   5.819   9.430 -0.9405  0.9632  0.2894
   26CHL1   C14 1866   6.669   5.702   9.318  0.5401  0.6038  0.0865
   26CHL1   H14 1867   6.564   5.672   9.341  0.9023  0.5259  1.6816
   26CHL1   C15 1868   6.747   5.580   9.275 -0.3866 -0.0806  0.5384
   26CHL1  H15A 1869   6.855   5.599   9.294 -0.3006  1.0063 -0.9413
   26CHL1  H15B 1870   6.729   5.484   9.328  1.4230  0.3585  2.0031
   26CHL1   C16 1871   6.718   5.564   9.130 -0.0290 -0.2372 -0.0997
   26CHL1  H16A 1872   6.811   5.565   9.068 -0.1110  1.0612 -0.2191
   26CHL1  H16B 1873   6.658   5.471   9.123 -2.5421  1.3673 -0.2696
   26CHL1   C17 1874   6.628   5.690   9.087 -0.9186 -0.4793  0.3411
   26CHL1   H17 1875   6.522   5.657   9.087 -0.8202 -0.9238 -2.8823
   26CHL1   C13 1876   6.655   5.795   9.201 -0.2041  0.6130 -0.0005
   26CHL1   C18 1877   6.791   5.870   9.168  0.2232  0.2625  0.2652
   26CHL1  H18A 1878   6.856   5.801   9.110 -0.2590  0.4027 -0.4404
   26CHL1  H18B 1879   6.757   5.957   9.108 -0.0898 -1.1408 -1.6481
   26CHL1  H18C 1880   6.839   5.902   9.263  0.5214 -0.7071  0.4549
   26CHL1   C12 1881   6.545   5.895   9.225 -0.4350 -0.6751  0.4703
   26CHL1  H12A 1882   6.535   5.963   9.138  2.3298 -1.8103 -0.7984
   26CHL1  H12B 1883   6.451   5.837   9.240 -0.1154 -1.5201 -0.7159
   26CHL1   C11 1884   6.581   5.973   9.353 -0.3909 -0.6351 -0.0891
   26CHL1  H11A 1885   6.674   6.031   9.335 -1.8530  1.4802 -1.0460
   26CHL1  H11B 1886   6.506   6.050   9.381 -0.2957 -0.5304 -0.1229
   26CHL1    C9 1887   6.620   5.887   9.478  0.1896 -0.2613  0.0926
   26CHL1    H9 1888   6.525   5.834   9.501 -2.0920  3.5762 -0.0925
   26CHL1   C10 1889   6.650   5.961   9.617  0.1503 -0.1133  0.1772
   26CHL1   C19 1890   6.755   6.075   9.601  0.4093 -0.0393 -0.2768
   26CHL1  H19A 1891   6.848   6.037   9.554 -0.2273 -1.9008 -0.0824
   26CHL1  H19B 1892   6.706   6.145   9.530 -1.2802 -1.2909 -0.3733
   26CHL1  H19C 1893   6.781   6.128   9.696 -0.6362 -1.4500  0.8287
   26CHL1    C1 1894   6.519   6.024   9.674 -0.1114  0.3550 -0.1214
   26CHL1   H1A 1895   6.503   6.118   9.616  0.0058 -1.0377 -2.4557
   26CHL1   H1B 1896   6.430   5.958   9.665 -2.0708  2.8388  0.2977
   26CHL1    C2 1897   6.518   6.074   9.824  0.2978  0.6748  0.2338
   26CHL1   H2A 1898   6.415   6.109   9.846  0.5385  1.4696  0.1337
   26CHL1   H2B 1899   6.590   6.157   9.844  2.9214 -1.2742 -0.7905
   26CHL1   C20 1900   6.659   5.725   8.934  0.2173 -0.0359  0.0549
   26CHL1   H20 1901   6.767   5.746   8.921  0.5643 -2.2618 -0.8806
   26CHL1   C21 1902   6.575   5.849   8.900 -0.1713  0.6381 -0.3673
   26CHL1  H21A 1903   6.467   5.830   8.917 -0.2825  0.4823 -1.2286
   26CHL1  H21B 1904   6.597   5.867   8.793  0.8324  0.2892 -0.2233
   26CHL1  H21C 1905   6.613   5.943   8.945  2.1050 -0.5326  0.2124
   26CHL1   C22 1906   6.616   5.597   8.847 -0.2257 -0.0008  0.0432
   26CHL1  H22A 1907   6.575   5.515   8.910 -0.5911 -1.8623 -2.5348
   26CHL1  H22B 1908   6.539   5.621   8.771 -0.5939 -2.8096 -0.5211
   26CHL1   C23 1909   6.750   5.533   8.780 -0.1249 -0.2216  0.3422
   26CHL1  H23A 1910   6.830   5.505   8.852  0.1576 -2.3567 -0.7533
   26CHL1  H23B 1911   6.717   5.438   8.733  0.1567  0.1524 -0.6295
   26CHL1   C24 1912   6.813   5.638   8.681 -0.4292  0.8246 -0.5632
   26CHL1  H24A 1913   6.737   5.672   8.607  0.3043  1.2439 -1.1295
   26CHL1  H24B 1914   6.846   5.731   8.733 -2.5044  1.1614  0.2004
   26CHL1   C25 1915   6.939   5.590   8.604  0.1535 -0.0995  0.5407
   26CHL1   H25 1916   7.026   5.565   8.668  3.7905  4.1275 -2.4521
   26CHL1   C26 1917   6.909   5.467   8.516 -0.4430 -0.8355 -0.0731
   26CHL1  H26A 1918   6.879   5.381   8.578 -0.9898 -0.7503 -0.2192
   26CHL1  H26B 1919   6.829   5.480   8.440 -0.3712 -0.7647 -0.1365
   26CHL1  H26C 1920   7.007   5.434   8.475 -0.6798 -0.7271 -0.7333
   26CHL1   C27 1921   6.980   5.705   8.516  0.6936 -0.5532  0.3340
   26CHL1  H27A 1922   6.896   5.735   8.451 -0.6382 -1.1804  1.7494
   26CHL1  H27B 1923   7.005   5.797   8.572  1.4178  1.7432 -3.5859
   26CHL1  H27C 1924   7.064   5.673   8.450 -0.9888  0.5443 -2.4505
   27CHL1    C3 1925   6.106   2.662  10.388 -0.4545 -0.1148  0.2988
   27CHL1    H3 1926   6.084   2.770  10.373 -0.5036  0.1637  2.2148
   27CHL1    O3 1927   6.096   2.629  10.526  0.1226 -1.0408 -0.2399
   27CHL1   H3' 1928   6.159   2.558  10.539 -0.0944 -1.1811  0.0777
   27CHL1    C4 1929   6.005   2.576  10.309  0.4084 -0.9103 -0.0300
   27CHL1   H4A 1930   6.029   2.469  10.326 -0.5444 -1.4751 -2.0295
   27CHL1   H4B 1931   5.900   2.595  10.340  0.3067 -0.4769 -0.6260
   27CHL1    C5 1932   6.009   2.603  10.162 -0.1698  0.2344 -0.2681
   27CHL1    C6 1933   5.902   2.656  10.105  0.6084  0.4367 -1.2651
   27CHL1    H6 1934   5.812   2.674  10.166  0.6564  4.1289 -2.1701
   27CHL1    C7 1935   5.900   2.705   9.960  0.2196 -0.4749 -0.1893
   27CHL1   H7A 1936   5.804   2.685   9.907 -1.1029  0.0264  1.9591
   27CHL1   H7B 1937   5.917   2.815   9.962  0.1213 -0.4636  0.1791
   27CHL1    C8 1938   6.012   2.638   9.879 -0.5650 -0.0728 -0.6744
   27CHL1    H8 1939   5.983   2.532   9.866 -1.0226  0.0902 -1.0152
   27CHL1   C14 1940   6.030   2.697   9.743  0.7676 -0.3873  0.2986
   27CHL1   H14 1941   6.076   2.798   9.746 -2.6366  1.2191  1.7809
   27CHL1   C15 1942   5.896   2.726   9.657 -1.1374  0.0428 -0.3763
   27CHL1  H15A 1943   5.827   2.643   9.683 -0.1399  0.0106  2.2901
   27CHL1  H15B 1944   5.860   2.829   9.679  0.8694  0.8141 -0.5828
   27CHL1   C16 1945   5.953   2.711   9.513  0.2269 -0.3004 -0.4359
   27CHL1  H16A 1946   5.910   2.623   9.460 -0.4962 -1.6320  2.2534
   27CHL1  H16B 1947   5.909   2.796   9.456  0.4575 -0.3622 -0.7046
   27CHL1   C17 1948   6.110   2.693   9.523 -0.1066  0.0857 -0.8107
   27CHL1   H17 1949   6.152   2.795   9.541  1.8260 -0.5764 -1.3911
   27CHL1   C13 1950   6.132   2.618   9.655  0.2230 -0.2737  0.3859
   27CHL1   C18 1951   6.090   2.462   9.642  0.2790  0.2275 -0.2574
   27CHL1  H18A 1952   6.170   2.418   9.578 -1.1254 -1.4809 -0.8685
   27CHL1  H18B 1953   6.104   2.417   9.743  2.3650 -0.4250 -0.8031
   27CHL1  H18C 1954   5.987   2.447   9.603 -0.0772  2.3323 -0.2009
   27CHL1   C12 1955   6.273   2.625   9.711 -0.4760  0.1769  0.0622
   27CHL1  H12A 1956   6.346   2.555   9.667  0.6720  0.2439  1.8062
   27CHL1  H12B 1957   6.315   2.727   9.699  1.8664 -0.7217  0.3797
   27CHL1   C11 1958   6.269   2.585   9.864  0.1738 -0.0146  0.2412
   27CHL1  H11A 1959   6.269   2.474   9.856  2.3902  0.0382 -0.9730
   27CHL1  H11B 1960   6.364   2.613   9.914  1.1949 -3.6353  0.4814
   27CHL1    C9 1961   6.153   2.641   9.947 -0.2008  0.4225 -0.1586
   27CHL1    H9 1962   6.182   2.748   9.953  0.0741  0.3507 -0.1873
   27CHL1   C10 1963   6.147   2.592  10.092 -0.4188 -0.1015 -0.0967
   27CHL1   C19 1964   6.172   2.439  10.093  0.1854 -0.3281 -0.5740
   27CHL1  H19A 1965   6.101   2.383  10.029  2.0889 -2.4753 -0.8923
   27CHL1  H19B 1966   6.276   2.415  10.064  0.2702 -1.5341  0.6418
   27CHL1  H19C 1967   6.168   2.402  10.198 -0.5334  1.7634  0.1626
   27CHL1    C1 1968   6.248   2.670  10.187 -0.5568  0.3926 -0.2600
   27CHL1   H1A 1969   6.351   2.656  10.148 -0.5679  0.4236 -0.2985
   27CHL1   H1B 1970   6.226   2.778  10.172  0.4778  1.1016  2.9562
   27CHL1    C2 1971   6.245   2.641  10.335 -0.2543  0.4564 -1.0016
   27CHL1   H2A 1972   6.317   2.703  10.393 -1.0889  0.8449 -0.3820
   27CHL1   H2B 1973   6.273   2.535  10.353 -1.5489 -0.0241 -1.8036
   27CHL1   C20 1974   6.186   2.643   9.397 -0.8280  0.3198  0.1147
   27CHL1   H20 1975   6.177   2.532   9.396  1.3698  0.1194  0.3153
   27CHL1   C21 1976   6.332   2.689   9.406  0.1654 -0.1665 -0.0556
   27CHL1  H21A 1977   6.377   2.666   9.307 -1.3125 -2.9504 -0.1097
   27CHL1  H21B 1978   6.405   2.660   9.484  0.7893 -2.7751 -1.5634
   27CHL1  H21C 1979   6.329   2.800   9.405  2.3445 -0.0625  1.8608
   27CHL1   C22 1980   6.116   2.699   9.267 -0.2043  0.5522 -0.7178
   27CHL1  H22A 1981   6.006   2.693   9.277 -0.3222  2.6062 -0.5412
   27CHL1  H22B 1982   6.149   2.803   9.248  1.0328  0.2058 -0.5397
   27CHL1   C23 1983   6.158   2.625   9.139 -0.1473 -0.1733 -0.6289
   27CHL1  H23A 1984   6.267   2.604   9.137 -0.5174 -2.2686  0.0822
   27CHL1  H23B 1985   6.116   2.522   9.144 -2.9792  0.8762 -1.6766
   27CHL1   C24 1986   6.114   2.693   9.016  0.6589  0.8737  0.1181
   27CHL1  H24A 1987   6.012   2.736   9.022  1.0441  1.5861  1.6319
   27CHL1  H24B 1988   6.172   2.787   9.000  3.7252 -1.2607 -1.8954
   27CHL1   C25 1989   6.131   2.610   8.885 -0.1251  0.3983  0.6541
   27CHL1   H25 1990   6.108   2.505   8.911 -4.1117  1.0767  0.1826
   27CHL1   C26 1991   6.025   2.655   8.778  0.0365 -0.2701  0.0982
   27CHL1  H26A 1992   6.035   2.586   8.691 -0.1934 -0.4564  0.2198
   27CHL1  H26B 1993   5.920   2.647   8.812 -0.2582 -2.2453 -1.1839
   27CHL1  H26C 1994   6.044   2.760   8.746  3.8954 -1.0973 -0.5578
   27CHL1   C27 1995   6.265   2.621   8.822  0.3076 -0.5505 -0.1288
   27CHL1  H27A 1996   6.301   2.726   8.813 -0.9738  0.1655  2.6740
   27CHL1  H27B 1997   6.342   2.562   8.875 -0.6198  0.4939  2.4387
   27CHL1  H27C 1998   6.276   2.585   8.717 -2.1903  0.6068 -0.8270
   28CHL1    C3 1999   5.365   1.208  10.042  0.4999  0.4395 -0.5477
   28CHL1    H3 2000   5.258   1.228  10.062  0.5065 -0.7788  0.7570
   28CHL1    O3 2001   5.433   1.196  10.166  0.5612  0.2104  0.1267
   28CHL1   H3' 2002   5.407   1.266  10.226 -2.3388 -1.2471  0.6670
   28CHL1    C4 2003   5.381   1.072   9.973  0.0744 -0.7415 -0.2672
   28CHL1   H4A 2004   5.491   1.056   9.966  0.0042 -0.9058 -1.0460
   28CHL1   H4B 2005   5.332   0.998  10.039 -2.1642 -0.2382 -1.3415
   28CHL1    C5 2006   5.337   1.077   9.834 -0.1271 -0.6152  0.6285
   28CHL1    C6 2007   5.267   0.976   9.782  0.0624  0.0565  0.8007
   28CHL1    H6 2008   5.243   0.897   9.854  2.4109 -0.4802  1.0276
   28CHL1    C7 2009   5.233   0.961   9.639 -0.4903 -0.1567 -0.5441
   28CHL1   H7A 2010   5.252   0.859   9.599 -2.7550 -0.2850 -1.3660
   28CHL1   H7B 2011   5.125   0.986   9.631 -0.7324 -0.7313  0.7507
   28CHL1    C8 2012   5.302   1.056   9.549 -0.0947 -0.2195  0.8638
   28CHL1    H8 2013   5.405   1.021   9.527 -0.8469 -1.2351 -1.1369
   28CHL1   C14 2014   5.231   1.063   9.410  0.6021 -0.2197  0.3284
   28CHL1   H14 2015   5.135   1.116   9.427  0.4856 -0.2948 -0.0881
   28CHL1   C15 2016   5.194   0.936   9.331  0.4481  1.3182  0.3414
   28CHL1  H15A 2017   5.281   0.866   9.330 -1.7518 -1.4783 -0.7796
   28CHL1  H15B 2018   5.112   0.880   9.380 -0.0740 -0.3548 -2.3509
   28CHL1   C16 2019   5.165   0.986   9.188  0.5798  0.1751 -0.0593
   28CHL1  H16A 2020   5.230   0.927   9.119 -0.4376 -2.4833  1.2089
   28CHL1  H16B 2021   5.056   0.970   9.173  0.5892  0.6357 -0.6343
   28CHL1   C17 2022   5.202   1.140   9.191  0.0669  0.1339  0.4937
   28CHL1   H17 2023   5.116   1.205   9.216  0.0480  0.7966 -1.2153
   28CHL1   C13 2024   5.299   1.159   9.309 -0.5442 -0.4307  0.1737
   28CHL1   C18 2025   5.439   1.113   9.278  0.1361  0.5878  0.2462
   28CHL1  H18A 2026   5.480   1.179   9.199 -0.6829 -2.4670 -2.8873
   28CHL1  H18B 2027   5.502   1.125   9.369 -0.1442 -0.4607  0.5909
   28CHL1  H18C 2028   5.458   1.009   9.241  1.5901  1.0724 -0.4254
   28CHL1   C12 2029   5.300   1.295   9.377 -0.5430 -0.0855  0.3004
   28CHL1  H12A 2030   5.352   1.367   9.311  0.3643  0.5954  1.7301
   28CHL1  H12B 2031   5.202   1.344   9.395  0.6752  2.2995  0.6660
   28CHL1   C11 2032   5.368   1.304   9.515  0.3239  0.1904  0.0226
   28CHL1  H11A 2033   5.478   1.289   9.509  0.6939  2.2556  1.1246
   28CHL1  H11B 2034   5.354   1.407   9.553  1.8164  0.1968  0.5803
   28CHL1    C9 2035   5.311   1.200   9.610 -0.3999 -0.1828  0.2346
   28CHL1    H9 2036   5.206   1.234   9.624  0.3898  1.6847  1.9176
   28CHL1   C10 2037   5.391   1.195   9.745 -0.4914 -0.0895 -0.5423
   28CHL1   C19 2038   5.548   1.156   9.727  0.9166 -1.3058 -0.1504
   28CHL1  H19A 2039   5.588   1.230   9.655  0.9652 -4.0222 -2.9775
   28CHL1  H19B 2040   5.610   1.151   9.820 -0.4720 -0.6401  0.8323
   28CHL1  H19C 2041   5.559   1.064   9.667 -1.2423 -1.0433 -0.9783
   28CHL1    C1 2042   5.373   1.329   9.821  1.1306 -0.4287 -0.1561
   28CHL1   H1A 2043   5.420   1.412   9.764  0.1743 -0.4682 -1.0248
   28CHL1   H1B 2044   5.268   1.364   9.826  1.3528  0.5860 -1.9487
   28CHL1    C2 2045   5.434   1.317   9.963 -0.0043 -0.0248 -0.2377
   28CHL1   H2A 2046   5.425   1.421   9.999 -0.3548  0.0464 -0.5314
   28CHL1   H2B 2047   5.542   1.292   9.969 -0.2143 -0.8054  0.4889
   28CHL1   C20 2048   5.245   1.188   9.051  0.4090  0.3758  0.5534
   28CHL1   H20 2049   5.336   1.134   9.016 -0.1271  1.3237 -2.3756
   28CHL1   C21 2050   5.293   1.337   9.047 -0.4068  1.1806  0.5310
   28CHL1  H21A 2051   5.205   1.395   9.084 -1.6711 -0.5100  0.2474
   28CHL1  H21B 2052   5.313   1.368   8.943  2.5249 -0.4385  0.5708
   28CHL1  H21C 2053   5.381   1.355   9.112  2.3367 -1.6193 -2.2776
   28CHL1   C22 2054   5.136   1.160   8.943  0.1827 -0.4625 -0.2696
   28CHL1  H22A 2055   5.101   1.055   8.940 -0.8367 -0.0881 -2.7854
   28CHL1  H22B 2056   5.052   1.230   8.962  1.2287  0.7432 -0.0531
   28CHL1   C23 2057   5.185   1.187   8.796  0.5672  0.3341 -0.2266
   28CHL1  H23A 2058   5.245   1.279   8.782  0.0388  0.7837  0.4378
   28CHL1  H23B 2059   5.247   1.101   8.762  0.1370 -0.5558  1.1831
   28CHL1   C24 2060   5.062   1.200   8.702  0.2476  0.3724 -0.1664
   28CHL1  H24A 2061   4.988   1.118   8.712 -0.1672  0.5321 -1.8523
   28CHL1  H24B 2062   5.001   1.289   8.729 -0.4563 -0.0362 -0.4066
   28CHL1   C25 2063   5.096   1.220   8.553  0.1206  1.1628  0.1529
   28CHL1   H25 2064   5.166   1.307   8.545 -0.4680  1.3034 -4.7463
   28CHL1   C26 2065   5.160   1.089   8.506 -0.0077  0.5292  0.1239
   28CHL1  H26A 2066   5.099   0.999   8.529 -0.3649  0.9441  0.8374
   28CHL1  H26B 2067   5.179   1.093   8.397 -0.8347 -2.0683 -0.1332
   28CHL1  H26C 2068   5.257   1.076   8.557 -0.1184  3.3083  1.1641
   28CHL1   C27 2069   4.972   1.265   8.472 -0.4176 -0.6255  0.2982
   28CHL1  H27A 2070   4.988   1.263   8.362  1.9619  0.4449  0.5963
   28CHL1  H27B 2071   4.892   1.195   8.505 -0.2891  0.0474  2.0758
   28CHL1  H27C 2072   4.945   1.365   8.512  0.0026 -0.7850  0.9907
   29CHL1    C3 2073   0.477   5.457   6.574 -0.1371  0.8657 -0.0641
   29CHL1    H3 2074   0.512   5.355   6.600 -1.9713 -0.2283 -1.6822
   29CHL1    O3 2075   0.484   5.459   6.432  0.9355 -0.5869  0.0156
   29CHL1   H3' 2076   0.579   5.459   6.415  0.5821 -2.9585 -2.5100
   29CHL1    C4 2077   0.341   5.494   6.616  0.3394 -0.1193  0.2854
   29CHL1   H4A 2078   0.308   5.581   6.555  0.1642 -0.6025 -0.3134
   29CHL1   H4B 2079   0.270   5.414   6.584  0.4269  0.5788 -1.7640
   29CHL1    C5 2080   0.336   5.512   6.770  0.0720  0.0513  0.1685
   29CHL1    C6 2081   0.269   5.417   6.847 -0.8285  0.3125 -0.0572
   29CHL1    H6 2082   0.201   5.344   6.801 -1.2378  1.0979 -0.7251
   29CHL1    C7 2083   0.264   5.444   6.989 -0.1028  0.2517  0.4165
   29CHL1   H7A 2084   0.157   5.428   7.012 -0.4091 -0.8058 -1.6016
   29CHL1   H7B 2085   0.320   5.363   7.040 -3.0393 -1.8536  0.3677
   29CHL1    C8 2086   0.317   5.582   7.041 -0.4799 -0.0461 -0.0984
   29CHL1    H8 2087   0.240   5.658   7.014 -2.1236 -1.1686  1.2780
   29CHL1   C14 2088   0.331   5.580   7.191 -0.5142 -0.3380 -0.4343
   29CHL1   H14 2089   0.409   5.506   7.220 -0.3664  0.3664  1.0216
   29CHL1   C15 2090   0.211   5.537   7.276  0.1236 -0.1515  0.0520
   29CHL1  H15A 2091   0.119   5.593   7.249  0.7749  0.3815 -1.0735
   29CHL1  H15B 2092   0.181   5.430   7.273  0.2966 -0.1807 -0.7178
   29CHL1   C16 2093   0.246   5.579   7.417 -0.2301 -0.2301 -0.4322
   29CHL1  H16A 2094   0.170   5.644   7.465  0.2715 -0.6833  1.0008
   29CHL1  H16B 2095   0.253   5.488   7.480  0.6999  0.1388  0.0122
   29CHL1   C17 2096   0.381   5.660   7.408 -0.4008  0.3084  0.0321
   29CHL1   H17 2097   0.455   5.578   7.418  1.0945  1.4190 -1.5875
   29CHL1   C13 2098   0.390   5.703   7.259 -0.1628 -0.1942 -0.9443
   29CHL1   C18 2099   0.299   5.824   7.244 -0.5029  0.1576  0.0777
   29CHL1  H18A 2100   0.355   5.910   7.286 -0.7411  0.8380 -0.9735
   29CHL1  H18B 2101   0.267   5.844   7.139  0.8723  1.4196 -0.1166
   29CHL1  H18C 2102   0.204   5.812   7.301 -0.3206 -0.2086  0.3010
   29CHL1   C12 2103   0.529   5.728   7.196 -0.1534 -0.0995  0.2361
   29CHL1  H12A 2104   0.577   5.822   7.230 -0.8062 -0.4147  2.0524
   29CHL1  H12B 2105   0.598   5.641   7.207 -0.6011 -0.2817  1.6079
   29CHL1   C11 2106   0.526   5.736   7.042 -0.0747  0.6363 -0.7956
   29CHL1  H11A 2107   0.471   5.833   7.033 -1.5782 -0.1315 -0.1173
   29CHL1  H11B 2108   0.633   5.743   7.015  0.5145 -0.4291  1.1620
   29CHL1    C9 2109   0.453   5.619   6.976 -0.6577 -0.2636 -0.8734
   29CHL1    H9 2110   0.516   5.533   7.005  0.7222  1.5097  1.6717
   29CHL1   C10 2111   0.431   5.619   6.822  0.5380  0.5699 -0.3780
   29CHL1   C19 2112   0.375   5.765   6.774 -0.0487 -0.7247 -0.3299
   29CHL1  H19A 2113   0.272   5.785   6.811  0.3383  0.9553 -0.0701
   29CHL1  H19B 2114   0.440   5.850   6.805 -0.2307 -1.5833  2.5406
   29CHL1  H19C 2115   0.373   5.759   6.663 -0.4350  1.7111 -0.4901
   29CHL1    C1 2116   0.572   5.603   6.763 -0.5648 -0.1249  0.5461
   29CHL1   H1A 2117   0.644   5.683   6.790  1.5212 -1.9242  0.5312
   29CHL1   H1B 2118   0.615   5.518   6.821 -1.4694 -1.1851 -0.2979
   29CHL1    C2 2119   0.570   5.577   6.613  0.0880 -0.8249 -0.2610
   29CHL1   H2A 2120   0.672   5.552   6.576  0.8170  1.5451  0.1067
   29CHL1   H2B 2121   0.542   5.661   6.547  0.9899 -0.4274 -0.1483
   29CHL1   C20 2122   0.410   5.758   7.523  0.2215 -0.6737 -0.3650
   29CHL1   H20 2123   0.350   5.850   7.509 -1.2901 -1.7610 -1.2054
   29CHL1   C21 2124   0.563   5.797   7.523 -0.0920 -0.6036 -0.6216
   29CHL1  H21A 2125   0.574   5.838   7.626 -0.2016  0.6480 -1.0993
   29CHL1  H21B 2126   0.578   5.876   7.447 -1.9117  0.0396 -0.3396
   29CHL1  H21C 2127   0.643   5.724   7.503  1.1920  0.8471 -0.8409
   29CHL1   C22 2128   0.371   5.698   7.662 -0.3917  0.1341  0.2650
   29CHL1  H22A 2129   0.277   5.638   7.654  0.8151 -1.7293 -0.4661
   29CHL1  H22B 2130   0.452   5.629   7.694  0.3648 -0.5500 -2.9843
   29CHL1   C23 2131   0.357   5.807   7.768  0.6893 -0.1047  0.4414
   29CHL1  H23A 2132   0.453   5.844   7.810  0.8036 -1.3681  1.3339
   29CHL1  H23B 2133   0.302   5.891   7.722 -0.5978 -0.6976  0.8676
   29CHL1   C24 2134   0.272   5.763   7.892 -0.7087  0.5041 -0.0421
   29CHL1  H24A 2135   0.175   5.722   7.856 -0.6732  1.4891 -1.3067
   29CHL1  H24B 2136   0.324   5.677   7.938 -0.8935  1.2401  1.5973
   29CHL1   C25 2137   0.266   5.875   7.995 -0.5625 -0.3223 -0.5420
   29CHL1   H25 2138   0.368   5.915   8.008 -1.3573  1.8185 -0.6684
   29CHL1   C26 2139   0.173   5.988   7.946 -0.2110 -0.7916 -0.0702
   29CHL1  H26A 2140   0.213   6.027   7.850 -1.1791 -0.4173 -0.3231
   29CHL1  H26B 2141   0.071   5.947   7.932 -1.0366  0.8165  0.9668
   29CHL1  H26C 2142   0.161   6.066   8.025 -1.5103 -2.5563  1.5033
   29CHL1   C27 2143   0.210   5.812   8.124 -0.4200  0.0965  0.0400
   29CHL1  H27A 2144   0.269   5.725   8.161 -0.4629  0.3384  0.6791
   29CHL1  H27B 2145   0.220   5.889   8.203  0.1701  0.1231 -0.0520
   29CHL1  H27C 2146   0.101   5.792   8.126 -0.4587  0.0849 -1.5517
   30CHL1    C3 2147   4.890   4.956   7.261 -0.3814  0.6464  0.2621
   30CHL1    H3 2148   4.794   5.001   7.293  0.3937  3.3717 -1.1558
   30CHL1    O3 2149   4.878   4.929   7.121 -1.0531  0.6226 -0.3404
   30CHL1   H3' 2150   4.931   4.997   7.079  0.8186  0.7241  2.1340
   30CHL1    C4 2151   5.005   5.046   7.286 -0.5842  0.5792  0.2787
   30CHL1   H4A 2152   5.096   4.995   7.250 -0.0888  0.5258  1.5810
   30CHL1   H4B 2153   4.991   5.145   7.239 -0.1473  1.1476  1.3211
   30CHL1    C5 2154   5.011   5.077   7.437 -0.2501 -0.2982 -0.2108
   30CHL1    C6 2155   5.010   5.207   7.478  0.9467 -0.3232  0.1055
   30CHL1    H6 2156   5.003   5.294   7.411 -1.5058  0.4738  1.3344
   30CHL1    C7 2157   5.018   5.237   7.624 -0.2813 -0.4345  0.3391
   30CHL1   H7A 2158   5.098   5.311   7.646  0.4557 -0.9579 -0.5454
   30CHL1   H7B 2159   4.919   5.284   7.641 -1.8167 -2.0149 -3.7365
   30CHL1    C8 2160   5.038   5.118   7.729  0.2919 -0.0058 -0.0070
   30CHL1    H8 2161   5.147   5.096   7.731  0.3604 -0.1541 -2.8092
   30CHL1   C14 2162   4.993   5.158   7.867  0.0782 -0.5507  0.1672
   30CHL1   H14 2163   4.883   5.176   7.863  0.1367  0.3282  2.1276
   30CHL1   C15 2164   5.051   5.289   7.924  0.3932  0.1984  0.1350
   30CHL1  H15A 2165   5.160   5.279   7.905  0.5169 -0.6909  1.2095
   30CHL1  H15B 2166   5.008   5.380   7.878  2.2573  0.7823 -0.4582
   30CHL1   C16 2167   5.008   5.280   8.070 -0.3882 -0.4405 -0.7427
   30CHL1  H16A 2168   5.101   5.289   8.131 -1.8128  0.0284  1.4072
   30CHL1  H16B 2169   4.933   5.357   8.095 -1.0478 -1.2773 -0.1090
   30CHL1   C17 2170   4.957   5.126   8.091  0.9822 -0.5192  0.1176
   30CHL1   H17 2171   4.847   5.135   8.088  0.6180 -2.8560  3.2435
   30CHL1   C13 2172   5.017   5.049   7.973 -0.6269 -0.0862  0.4125
   30CHL1   C18 2173   5.171   5.019   7.997 -0.4735  0.2048  0.5985
   30CHL1  H18A 2174   5.187   4.929   8.060 -2.0974 -1.0369 -0.6977
   30CHL1  H18B 2175   5.215   4.986   7.901 -1.0610  2.2950 -0.4360
   30CHL1  H18C 2176   5.226   5.107   8.036  1.8734 -0.7539 -0.4510
   30CHL1   C12 2177   4.948   4.922   7.938 -0.5247 -0.6882 -0.0627
   30CHL1  H12A 2178   4.972   4.837   8.006 -0.0621 -0.8481 -0.4267
   30CHL1  H12B 2179   4.838   4.939   7.947 -1.0171 -3.0789 -1.1407
   30CHL1   C11 2180   4.981   4.879   7.787  0.3316  0.2207  0.4377
   30CHL1  H11A 2181   5.085   4.839   7.788  0.3205  0.1842  0.2421
   30CHL1  H11B 2182   4.912   4.798   7.756  1.6794 -0.4148 -1.0066
   30CHL1    C9 2183   4.969   4.987   7.682  0.4401  0.2608 -0.4541
   30CHL1    H9 2184   4.863   5.020   7.689  0.4475  0.6062 -1.9187
   30CHL1   C10 2185   5.009   4.952   7.537  0.8978 -0.5293 -0.1585
   30CHL1   C19 2186   5.152   4.882   7.544  0.0939  0.4075 -0.4957
   30CHL1  H19A 2187   5.236   4.942   7.584  1.2668 -1.2724 -0.3626
   30CHL1  H19B 2188   5.149   4.780   7.589  0.4724 -0.3166 -2.0785
   30CHL1  H19C 2189   5.176   4.863   7.437  2.1282 -0.7923  0.1506
   30CHL1    C1 2190   4.908   4.843   7.485 -0.6087 -0.1159 -0.1143
   30CHL1   H1A 2191   4.928   4.753   7.546  1.5396  0.3527 -0.1039
   30CHL1   H1B 2192   4.811   4.885   7.522 -1.2391 -0.7609 -1.0312
   30CHL1    C2 2193   4.913   4.822   7.332  0.3373 -0.2487  0.0843
   30CHL1   H2A 2194   4.831   4.751   7.305  0.6490  0.3592 -2.6372
   30CHL1   H2B 2195   5.008   4.775   7.300  0.7709  0.1770  0.7343
   30CHL1   C20 2196   4.996   5.072   8.229 -0.4403 -0.5296 -0.5760
   30CHL1   H20 2197   5.107   5.075   8.237 -0.4501  0.1522 -0.6691
   30CHL1   C21 2198   4.939   4.934   8.253  0.5387 -0.5766 -0.3397
   30CHL1  H21A 2199   4.834   4.926   8.217 -0.1768  2.6799  0.8629
   30CHL1  H21B 2200   4.947   4.913   8.362  1.4959  1.3170 -0.0124
   30CHL1  H21C 2201   5.007   4.870   8.193 -0.6794 -2.4244  0.2143
   30CHL1   C22 2202   4.950   5.181   8.338 -0.6550  0.2932 -0.6550
   30CHL1  H22A 2203   5.024   5.264   8.339 -0.9448  0.5997 -2.6137
   30CHL1  H22B 2204   4.846   5.217   8.321 -1.5270 -1.3720  0.8976
   30CHL1   C23 2205   4.962   5.126   8.483 -0.5576  1.3161 -0.8101
   30CHL1  H23A 2206   4.872   5.064   8.503  0.9851 -0.3665  1.1096
   30CHL1  H23B 2207   5.048   5.056   8.491 -0.4130  1.5822 -0.0266
   30CHL1   C24 2208   4.963   5.239   8.584 -0.5090  0.7628 -0.2178
   30CHL1  H24A 2209   5.055   5.300   8.577  0.3668 -0.3620  1.1765
   30CHL1  H24B 2210   4.876   5.306   8.565 -1.6229 -0.3493  0.8640
   30CHL1   C25 2211   4.944   5.203   8.736  0.0257  0.2198  0.0487
   30CHL1   H25 2212   5.032   5.143   8.769  0.1510  0.2156 -0.2863
   30CHL1   C26 2213   4.942   5.336   8.810 -0.5716  0.4064  0.5523
   30CHL1  H26A 2214   5.036   5.395   8.806 -1.2528  1.4937  0.1757
   30CHL1  H26B 2215   4.868   5.408   8.768 -0.2546  0.0206 -0.7002
   30CHL1  H26C 2216   4.923   5.318   8.917  1.7478 -2.4845  0.5380
   30CHL1   C27 2217   4.813   5.136   8.764 -0.4495 -0.0887  0.0305
   30CHL1  H27A 2218   4.730   5.185   8.708 -0.0633 -0.7116 -1.1113
   30CHL1  H27B 2219   4.822   5.030   8.732  0.7284 -0.3015  1.0329
   30CHL1  H27C 2220   4.775   5.127   8.868 -0.4713  1.5717  0.1898
   31CHL1    C3 2221   4.903   6.357   6.901 -0.3483  0.5114 -0.0135
   31CHL1    H3 2222   4.930   6.464   6.888 -2.4458  0.8960 -1.3959
   31CHL1    O3 2223   4.860   6.297   6.780 -0.3514  0.0412 -0.1302
   31CHL1   H3' 2224   4.918   6.343   6.719  0.8704 -1.2842  0.0097
   31CHL1    C4 2225   5.028   6.273   6.937  0.6211 -0.1846 -0.1308
   31CHL1   H4A 2226   5.004   6.165   6.923  2.5540 -0.5994 -0.4292
   31CHL1   H4B 2227   5.097   6.304   6.856 -0.1832 -0.4279 -0.9056
   31CHL1    C5 2228   5.082   6.289   7.081 -0.2604  0.2586 -0.1884
   31CHL1    C6 2229   5.206   6.316   7.103 -0.1547 -0.0511 -0.3836
   31CHL1    H6 2230   5.283   6.321   7.024  1.2555  1.4440  1.0308
   31CHL1    C7 2231   5.261   6.339   7.238  0.0298  0.6874 -0.4507
   31CHL1   H7A 2232   5.342   6.269   7.267 -1.2198  0.0539  1.5974
   31CHL1   H7B 2233   5.305   6.440   7.253 -0.2793  0.8747 -0.7765
   31CHL1    C8 2234   5.167   6.297   7.356  0.3962 -0.5503 -0.0983
   31CHL1    H8 2235   5.172   6.186   7.361  2.7195 -0.4045  1.8174
   31CHL1   C14 2236   5.219   6.350   7.486 -0.1694 -0.7122  0.2864
   31CHL1   H14 2237   5.218   6.460   7.478  1.1202 -0.5583  1.8320
   31CHL1   C15 2238   5.367   6.354   7.529  0.1628  0.5583 -0.2393
   31CHL1  H15A 2239   5.434   6.266   7.513  1.4901  1.0813  2.2402
   31CHL1  H15B 2240   5.414   6.441   7.480  1.1954 -0.2684 -0.7451
   31CHL1   C16 2241   5.362   6.373   7.685  0.3536  0.3003 -0.0695
   31CHL1  H16A 2242   5.397   6.275   7.723 -1.3256  0.7385  2.7723
   31CHL1  H16B 2243   5.424   6.457   7.725 -1.0679  1.8188 -0.9602
   31CHL1   C17 2244   5.215   6.395   7.725  0.1453 -0.6484  0.4257
   31CHL1   H17 2245   5.183   6.501   7.716  1.3053 -0.5175 -2.2922
   31CHL1   C13 2246   5.133   6.322   7.611  0.3024  0.4795  0.7303
   31CHL1   C18 2247   5.135   6.171   7.644  0.6155 -0.1907  0.9071
   31CHL1  H18A 2248   5.239   6.133   7.657  1.1406  0.2366 -1.6899
   31CHL1  H18B 2249   5.068   6.150   7.730 -1.1325 -0.6549 -0.5506
   31CHL1  H18C 2250   5.094   6.116   7.557  0.1806  1.0459  0.3198
   31CHL1   C12 2251   4.998   6.383   7.586  0.3936  0.2142  1.2292
   31CHL1  H12A 2252   4.929   6.374   7.673 -2.0466  1.0456 -0.5646
   31CHL1  H12B 2253   5.013   6.493   7.582  0.3740  0.1696 -0.8191
   31CHL1   C11 2254   4.934   6.323   7.451  0.8327 -0.3269  0.3282
   31CHL1  H11A 2255   4.926   6.215   7.473  0.5959 -0.4895 -0.5291
   31CHL1  H11B 2256   4.833   6.364   7.428  1.2267  0.2501 -0.4268
   31CHL1    C9 2257   5.027   6.344   7.324  0.5424  0.8700  0.3306
   31CHL1    H9 2258   5.034   6.453   7.306 -0.1638  0.5661 -1.9047
   31CHL1   C10 2259   4.977   6.286   7.194 -0.6780  0.3079 -0.0609
   31CHL1   C19 2260   4.935   6.140   7.223  0.0293 -1.2645  0.0390
   31CHL1  H19A 2261   5.020   6.075   7.254  1.6061  0.3506 -0.7808
   31CHL1  H19B 2262   4.863   6.134   7.307 -0.3163 -0.9715 -0.2381
   31CHL1  H19C 2263   4.877   6.103   7.136 -0.9545 -0.7885  0.4794
   31CHL1    C1 2264   4.851   6.366   7.156 -0.0807 -1.0305  0.3365
   31CHL1   H1A 2265   4.771   6.338   7.228 -0.5696 -0.2250  0.1082
   31CHL1   H1B 2266   4.866   6.474   7.175 -1.5150 -0.7942  0.1765
   31CHL1    C2 2267   4.798   6.348   7.014 -0.4706  0.0243  0.9057
   31CHL1   H2A 2268   4.715   6.421   7.002  0.4826  0.7160 -1.7069
   31CHL1   H2B 2269   4.757   6.245   7.002  1.2974 -0.7468  1.3740
   31CHL1   C20 2270   5.178   6.358   7.874  0.0265 -0.6621 -0.1223
   31CHL1   H20 2271   5.195   6.248   7.881 -1.4254 -0.8566  0.6036
   31CHL1   C21 2272   5.030   6.404   7.910 -0.4434 -0.0562  0.8865
   31CHL1  H21A 2273   5.020   6.508   7.870  2.6951 -0.3638 -0.8673
   31CHL1  H21B 2274   5.024   6.411   8.021  2.0046 -0.1892  1.0673
   31CHL1  H21C 2275   4.954   6.333   7.871 -0.6829  0.1298  1.0113
   31CHL1   C22 2276   5.286   6.416   7.971 -0.3588  0.1135  0.2715
   31CHL1  H22A 2277   5.385   6.367   7.962 -0.3187 -0.1736  2.0247
   31CHL1  H22B 2278   5.294   6.524   7.950  2.2599 -0.2913 -0.9697
   31CHL1   C23 2279   5.251   6.397   8.121 -0.0672  0.7374 -0.1014
   31CHL1  H23A 2280   5.159   6.454   8.147 -0.0764  0.5726  0.2254
   31CHL1  H23B 2281   5.215   6.293   8.137 -1.4069  1.1647 -0.2573
   31CHL1   C24 2282   5.370   6.424   8.216  0.3616  0.8467  0.0022
   31CHL1  H24A 2283   5.447   6.489   8.169  0.6579  0.8015  0.4216
   31CHL1  H24B 2284   5.320   6.466   8.306 -1.3630 -0.2405 -0.4191
   31CHL1   C25 2285   5.437   6.295   8.265 -0.5619 -0.2048 -0.8952
   31CHL1   H25 2286   5.372   6.225   8.322  0.7275  0.5946  1.6671
   31CHL1   C26 2287   5.472   6.202   8.151 -0.8434 -0.0839  0.1595
   31CHL1  H26A 2288   5.533   6.257   8.076 -0.9176 -0.4643 -0.1798
   31CHL1  H26B 2289   5.527   6.117   8.196 -2.3064 -0.1122  1.9678
   31CHL1  H26C 2290   5.372   6.186   8.106 -1.5907  1.8786  1.0718
   31CHL1   C27 2291   5.564   6.324   8.344  0.8158 -0.1766  0.0989
   31CHL1  H27A 2292   5.617   6.228   8.358 -0.9938 -1.3449 -0.9887
   31CHL1  H27B 2293   5.552   6.378   8.441 -0.6591  3.2886 -1.9227
   31CHL1  H27C 2294   5.636   6.397   8.300  0.4213  0.2968  0.2259
   32CHL1    C3 2295   5.322   5.218   7.102 -0.6266  0.5381 -0.0054
   32CHL1    H3 2296   5.228   5.214   7.161  0.3739  2.1327  1.7758
   32CHL1    O3 2297   5.290   5.215   6.963 -0.5967  0.3492  0.4010
   32CHL1   H3' 2298   5.229   5.286   6.942 -1.2869 -0.8484 -1.8930
   32CHL1    C4 2299   5.391   5.349   7.143 -0.3009 -0.7029 -0.3959
   32CHL1   H4A 2300   5.491   5.354   7.097  0.3682  0.7773  1.1888
   32CHL1   H4B 2301   5.339   5.440   7.107 -0.8228 -1.5121 -1.7330
   32CHL1    C5 2302   5.421   5.348   7.295  0.1422  0.3301 -0.7632
   32CHL1    C6 2303   5.377   5.445   7.369 -0.8443  0.3165  0.0826
   32CHL1    H6 2304   5.329   5.532   7.323 -0.6779  0.3611 -0.0099
   32CHL1    C7 2305   5.400   5.448   7.518 -0.4522  0.4270 -0.1473
   32CHL1   H7A 2306   5.421   5.551   7.555 -0.8995  0.5313 -0.1839
   32CHL1   H7B 2307   5.305   5.420   7.567  0.5624 -1.5552  0.7423
   32CHL1    C8 2308   5.516   5.358   7.568  0.5539 -0.1143 -0.3705
   32CHL1    H8 2309   5.613   5.400   7.534  0.6255  0.7712  0.8782
   32CHL1   C14 2310   5.517   5.342   7.726  0.3433 -0.0599 -0.2642
   32CHL1   H14 2311   5.421   5.296   7.758 -1.1401  2.1425 -1.3897
   32CHL1   C15 2312   5.532   5.469   7.813 -0.0414  0.0567 -1.5998
   32CHL1  H15A 2313   5.619   5.525   7.773  1.4654 -0.7286  0.5369
   32CHL1  H15B 2314   5.433   5.520   7.810 -0.3443 -0.4121  0.3434
   32CHL1   C16 2315   5.582   5.411   7.949  0.3595 -0.3229 -0.0523
   32CHL1  H16A 2316   5.668   5.471   7.986 -0.9895  1.6540 -0.0930
   32CHL1  H16B 2317   5.499   5.424   8.022  0.7234  0.3334  0.2477
   32CHL1   C17 2318   5.623   5.264   7.919 -0.1272 -0.9097 -0.0440
   32CHL1   H17 2319   5.537   5.197   7.941 -0.7827  0.5722  2.1119
   32CHL1   C13 2320   5.629   5.246   7.770 -0.4247  0.1998 -0.0792
   32CHL1   C18 2321   5.764   5.300   7.718 -0.2487  0.2694  0.3676
   32CHL1  H18A 2322   5.764   5.316   7.608 -2.4574  0.1836  0.3240
   32CHL1  H18B 2323   5.786   5.401   7.757 -0.7528  0.9541 -1.0878
   32CHL1  H18C 2324   5.852   5.240   7.749  0.1837  0.5819 -0.2499
   32CHL1   C12 2325   5.596   5.109   7.701 -0.1092 -0.4108 -0.7610
   32CHL1  H12A 2326   5.668   5.033   7.739  2.0394  1.2270 -1.4795
   32CHL1  H12B 2327   5.494   5.077   7.731 -0.3174 -0.9000 -1.9604
   32CHL1   C11 2328   5.598   5.118   7.550  0.4844 -0.5475 -0.0604
   32CHL1  H11A 2329   5.704   5.137   7.520 -0.6747  1.3940 -3.1184
   32CHL1  H11B 2330   5.556   5.021   7.516  1.9205 -1.5848  1.0294
   32CHL1    C9 2331   5.499   5.224   7.498  0.6516  0.5854 -0.1091
   32CHL1    H9 2332   5.399   5.186   7.525  0.4310 -0.0719 -1.8280
   32CHL1   C10 2333   5.495   5.225   7.341  0.0346 -0.1829  0.0777
   32CHL1   C19 2334   5.644   5.226   7.282  0.3946  0.2399  0.6221
   32CHL1  H19A 2335   5.711   5.140   7.306  0.8118  0.7873  1.4071
   32CHL1  H19B 2336   5.643   5.244   7.172 -2.5817  1.7853  0.8604
   32CHL1  H19C 2337   5.690   5.318   7.321  2.3146 -0.2388 -0.4369
   32CHL1    C1 2338   5.417   5.098   7.298  0.3683  0.4037  0.7558
   32CHL1   H1A 2339   5.478   5.009   7.322 -1.6183 -1.1354  0.1462
   32CHL1   H1B 2340   5.318   5.093   7.348  0.2094 -2.9450  0.1966
   32CHL1    C2 2341   5.402   5.096   7.146  0.0741  0.6323  0.3691
   32CHL1   H2A 2342   5.344   5.007   7.117  2.2495 -0.2275 -1.4998
   32CHL1   H2B 2343   5.503   5.093   7.101  1.1167 -3.3745  2.6921
   32CHL1   C20 2344   5.741   5.219   8.006 -0.0582 -0.8513  0.0269
   32CHL1   H20 2345   5.830   5.282   7.985  1.3380 -2.5266  0.7696
   32CHL1   C21 2346   5.784   5.069   7.974  0.2643  0.0539 -0.6114
   32CHL1  H21A 2347   5.809   5.049   7.868  2.3868 -1.1165  0.0733
   32CHL1  H21B 2348   5.703   5.012   8.024 -1.9674  2.5818 -1.2396
   32CHL1  H21C 2349   5.874   5.038   8.031 -0.1593  1.4135  0.8442
   32CHL1   C22 2350   5.700   5.219   8.157  0.3513 -0.3531  0.4537
   32CHL1  H22A 2351   5.676   5.322   8.190  1.1477 -0.9770  3.1830
   32CHL1  H22B 2352   5.610   5.155   8.168 -1.7933  2.7548  1.5928
   32CHL1   C23 2353   5.809   5.173   8.261  0.0160 -0.5605  0.5526
   32CHL1  H23A 2354   5.838   5.067   8.245  1.2084 -0.3373  1.2223
   32CHL1  H23B 2355   5.899   5.236   8.246 -1.3666  1.3028 -0.1318
   32CHL1   C24 2356   5.748   5.200   8.400 -0.0889  1.2078  0.5660
   32CHL1  H24A 2357   5.758   5.305   8.435  0.0413  1.4946 -0.3388
   32CHL1  H24B 2358   5.638   5.190   8.410 -0.0804  0.1023 -0.3321
   32CHL1   C25 2359   5.801   5.117   8.520  0.0214  1.0163 -0.4080
   32CHL1   H25 2360   5.805   5.009   8.498 -0.5853  0.9091  0.0056
   32CHL1   C26 2361   5.952   5.157   8.543  0.1298 -0.7028  0.1927
   32CHL1  H26A 2362   5.949   5.268   8.558 -0.7918 -0.6086 -0.6620
   32CHL1  H26B 2363   5.995   5.118   8.638  0.4332  1.5299  1.0188
   32CHL1  H26C 2364   6.020   5.130   8.460 -1.6162 -3.1505 -0.4694
   32CHL1   C27 2365   5.718   5.133   8.650  0.0508 -0.0889 -0.0094
   32CHL1  H27A 2366   5.699   5.240   8.676 -1.2511 -0.7700  1.9638
   32CHL1  H27B 2367   5.617   5.092   8.631 -0.2643  1.1132 -0.9817
   32CHL1  H27C 2368   5.764   5.081   8.737  1.4087  0.8291 -0.1656
   33CHL1    C3 2369   6.330   4.851   6.656  0.0806  0.0234 -0.7579
   33CHL1    H3 2370   6.439   4.858   6.636  0.3156 -2.0394 -0.3655
   33CHL1    O3 2371   6.255   4.843   6.542  0.0139  0.2736  0.3804
   33CHL1   H3' 2372   6.177   4.899   6.552 -0.6293 -0.3811 -0.8228
   33CHL1    C4 2373   6.317   4.718   6.732  0.1892 -0.2941  0.1711
   33CHL1   H4A 2374   6.212   4.685   6.747  0.4434 -0.9164  0.6337
   33CHL1   H4B 2375   6.363   4.641   6.667 -1.5260 -0.1030 -1.2961
   33CHL1    C5 2376   6.373   4.726   6.874  0.8230  0.6061  0.5646
   33CHL1    C6 2377   6.458   4.631   6.923  0.2027  0.3182 -0.2310
   33CHL1    H6 2378   6.471   4.548   6.852 -4.1561 -1.4966  0.9172
   33CHL1    C7 2379   6.528   4.638   7.053  0.5620  0.1891  0.2449
   33CHL1   H7A 2380   6.523   4.539   7.103 -1.2950  1.1580  2.0878
   33CHL1   H7B 2381   6.634   4.669   7.051  0.3267  0.9980 -0.0023
   33CHL1    C8 2382   6.462   4.739   7.157  0.8161  0.0617  0.2022
   33CHL1    H8 2383   6.370   4.685   7.191 -0.8073  2.2928 -0.5710
   33CHL1   C14 2384   6.559   4.776   7.271  0.3571  0.0239 -0.1377
   33CHL1   H14 2385   6.640   4.848   7.244 -0.8646  2.3393  2.1872
   33CHL1   C15 2386   6.623   4.649   7.341 -0.7823  0.4969  0.1943
   33CHL1  H15A 2387   6.541   4.576   7.360 -0.3924  0.1911  0.7153
   33CHL1  H15B 2388   6.704   4.609   7.276  0.9237  2.4074  1.0730
   33CHL1   C16 2389   6.669   4.706   7.481 -0.5050  0.3097 -0.6879
   33CHL1  H16A 2390   6.634   4.635   7.559 -1.9525  2.4139  0.6219
   33CHL1  H16B 2391   6.778   4.713   7.465 -0.3545 -1.9897 -0.9171
   33CHL1   C17 2392   6.601   4.848   7.489  0.6463 -0.4704  0.0029
   33CHL1   H17 2393   6.677   4.923   7.459  0.3045  0.4509  1.3734
   33CHL1   C13 2394   6.488   4.848   7.387  0.6050 -0.0369 -0.5471
   33CHL1   C18 2395   6.366   4.774   7.444  0.3043 -0.3286  0.1544
   33CHL1  H18A 2396   6.377   4.677   7.497 -1.4262 -2.6464 -3.5132
   33CHL1  H18B 2397   6.304   4.841   7.506 -0.6829 -0.3277 -0.8186
   33CHL1  H18C 2398   6.290   4.757   7.364 -1.6263  1.0960  1.6434
   33CHL1   C12 2399   6.449   4.982   7.325 -0.4384 -0.1828 -0.3705
   33CHL1  H12A 2400   6.395   5.044   7.400 -0.2166  0.1297 -0.4669
   33CHL1  H12B 2401   6.541   5.038   7.297  0.0965 -1.4245 -1.1190
   33CHL1   C11 2402   6.358   4.964   7.200  0.2615 -0.1772 -0.3613
   33CHL1  H11A 2403   6.268   4.918   7.246  0.2387 -0.7847 -1.0123
   33CHL1  H11B 2404   6.343   5.062   7.149  0.9376  0.2378  0.2180
   33CHL1    C9 2405   6.426   4.874   7.092 -0.2896  0.4245 -0.1364
   33CHL1    H9 2406   6.524   4.909   7.054 -0.5485  1.0594 -0.2219
   33CHL1   C10 2407   6.338   4.845   6.965  0.0027 -0.3765  0.1186
   33CHL1   C19 2408   6.186   4.831   7.009 -0.9278  0.1941 -0.3902
   33CHL1  H19A 2409   6.150   4.929   7.046  2.2402  0.7561  1.3754
   33CHL1  H19B 2410   6.123   4.811   6.920 -2.9534 -0.5206  1.1509
   33CHL1  H19C 2411   6.177   4.754   7.089  0.1469  0.7507  0.2774
   33CHL1    C1 2412   6.354   4.974   6.874 -0.7443  0.0864  0.3110
   33CHL1   H1A 2413   6.311   5.064   6.922 -1.7297 -0.2169  0.0160
   33CHL1   H1B 2414   6.463   4.993   6.864 -0.6882 -0.4475 -0.1717
   33CHL1    C2 2415   6.279   4.966   6.739 -0.3464  0.4299 -0.1545
   33CHL1   H2A 2416   6.307   5.058   6.683  2.4117 -2.2029 -3.2885
   33CHL1   H2B 2417   6.168   4.961   6.745 -0.5793  0.8813 -3.1818
   33CHL1   C20 2418   6.563   4.879   7.632  0.9421  0.0247  0.6844
   33CHL1   H20 2419   6.480   4.810   7.659  0.3706  0.7958  0.9173
   33CHL1   C21 2420   6.513   5.027   7.637 -1.2603 -0.6861  0.3345
   33CHL1  H21A 2421   6.579   5.106   7.594 -0.4972  0.1207  2.8978
   33CHL1  H21B 2422   6.496   5.070   7.738  1.1391  4.0804 -1.1507
   33CHL1  H21C 2423   6.411   5.037   7.595 -0.9068  0.8494 -0.1985
   33CHL1   C22 2424   6.687   4.875   7.727 -0.2754  0.2795  0.8003
   33CHL1  H22A 2425   6.729   4.775   7.703 -0.3425  0.4795 -0.2039
   33CHL1  H22B 2426   6.765   4.949   7.699 -1.2356  0.8031 -0.5894
   33CHL1   C23 2427   6.655   4.878   7.876  0.0789  0.5508  0.7518
   33CHL1  H23A 2428   6.751   4.868   7.931  0.0472 -0.5679  0.6162
   33CHL1  H23B 2429   6.598   4.969   7.903  1.1710  1.3200  0.5081
   33CHL1   C24 2430   6.553   4.780   7.923  0.3839 -0.3993 -0.1123
   33CHL1  H24A 2431   6.454   4.797   7.876  0.3732  1.8859  0.6571
   33CHL1  H24B 2432   6.584   4.680   7.886  0.1022 -0.5050 -0.0648
   33CHL1   C25 2433   6.537   4.766   8.078 -0.2752 -0.1397 -0.3180
   33CHL1   H25 2434   6.451   4.696   8.088 -1.4065  1.0443 -1.6356
   33CHL1   C26 2435   6.653   4.701   8.152 -0.0531 -0.3369  0.6223
   33CHL1  H26A 2436   6.675   4.597   8.120 -0.1435  0.1040 -0.9598
   33CHL1  H26B 2437   6.747   4.757   8.132  0.4450 -1.6101 -0.6866
   33CHL1  H26C 2438   6.634   4.704   8.261  2.0474 -2.2347  1.0840
   33CHL1   C27 2439   6.488   4.899   8.137  0.2422 -0.3806 -0.1318
   33CHL1  H27A 2440   6.552   4.986   8.110 -0.3460 -0.7138 -2.7837
   33CHL1  H27B 2441   6.387   4.922   8.096 -1.9832 -0.9592  4.6801
   33CHL1  H27C 2442   6.483   4.894   8.248  1.1356 -1.0067 -0.1201
   34CHL1    C3 2443   0.346   3.281   6.943 -0.0575 -0.1818 -0.1322
   34CHL1    H3 2444   0.241   3.317   6.940  0.0420  0.0543 -1.2264
   34CHL1    O3 2445   0.404   3.287   6.811  0.3158 -0.0698 -0.3906
   34CHL1   H3' 2446   0.460   3.209   6.807  1.0927  0.4776 -0.3792
   34CHL1    C4 2447   0.419   3.387   7.029 -0.2709 -0.1543 -0.0743
   34CHL1   H4A 2448   0.527   3.361   7.027  0.3275  2.2465 -1.5012
   34CHL1   H4B 2449   0.417   3.481   6.970 -1.1405  1.3909  2.3309
   34CHL1    C5 2450   0.374   3.391   7.174 -0.4126  0.3182  0.7186
   34CHL1    C6 2451   0.343   3.511   7.236 -0.5563  0.4836 -1.0181
   34CHL1    H6 2452   0.355   3.607   7.185 -0.5923  0.3134 -1.3489
   34CHL1    C7 2453   0.295   3.512   7.378  0.3489  0.4330 -0.3141
   34CHL1   H7A 2454   0.333   3.605   7.424 -1.2188  1.2291 -0.6087
   34CHL1   H7B 2455   0.185   3.526   7.382  0.1927 -0.8206  0.2875
   34CHL1    C8 2456   0.330   3.386   7.463  0.4082  0.8748  0.3883
   34CHL1    H8 2457   0.439   3.396   7.483  0.1144  2.9899  1.0029
   34CHL1   C14 2458   0.251   3.386   7.588 -0.1917 -0.8808 -0.3767
   34CHL1   H14 2459   0.141   3.380   7.575 -0.0396 -0.2206 -1.9887
   34CHL1   C15 2460   0.267   3.507   7.687 -0.8593  0.7031  0.0082
   34CHL1  H15A 2461   0.373   3.539   7.694 -0.4516  0.6958 -4.2795
   34CHL1  H15B 2462   0.206   3.594   7.654  1.2178  1.3400 -2.3632
   34CHL1   C16 2463   0.219   3.455   7.815  0.4148  0.1755 -0.0551
   34CHL1  H16A 2464   0.298   3.488   7.886 -0.0927  1.7447 -0.1926
   34CHL1  H16B 2465   0.121   3.495   7.849  0.1150  2.2733 -3.2080
   34CHL1   C17 2466   0.203   3.304   7.808  1.0877  0.7409 -0.1620
   34CHL1   H17 2467   0.100   3.279   7.774  0.1767 -1.1847  3.6886
   34CHL1   C13 2468   0.286   3.263   7.683 -0.2316 -0.1787  0.2806
   34CHL1   C18 2469   0.438   3.258   7.718  0.4976 -1.0380 -0.2493
   34CHL1  H18A 2470   0.483   3.359   7.712  1.5048 -1.5257 -0.9080
   34CHL1  H18B 2471   0.461   3.210   7.815  0.6662  1.7319  1.1444
   34CHL1  H18C 2472   0.495   3.208   7.637 -3.4539 -4.5166 -1.0363
   34CHL1   C12 2473   0.239   3.142   7.601  0.3085 -0.2456 -0.9531
   34CHL1  H12A 2474   0.247   3.040   7.645 -3.2865 -0.2334 -0.0471
   34CHL1  H12B 2475   0.129   3.153   7.591  0.1828  0.3822  0.8730
   34CHL1   C11 2476   0.300   3.135   7.461 -0.1447  0.0949 -0.1059
   34CHL1  H11A 2477   0.402   3.094   7.481  0.4674  1.5159 -0.2449
   34CHL1  H11B 2478   0.232   3.063   7.411  0.1797 -0.4111  0.1811
   34CHL1    C9 2479   0.297   3.269   7.379  0.2339  0.0139 -0.3329
   34CHL1    H9 2480   0.190   3.286   7.357  0.5228  0.5777 -1.3342
   34CHL1   C10 2481   0.370   3.254   7.248 -0.2918  0.8834 -0.1927
   34CHL1   C19 2482   0.522   3.212   7.277  0.1541 -0.4604 -0.0836
   34CHL1  H19A 2483   0.537   3.116   7.331 -2.6724 -0.3038  1.0598
   34CHL1  H19B 2484   0.575   3.208   7.179 -1.6204  1.8792 -1.2013
   34CHL1  H19C 2485   0.572   3.295   7.331 -0.5842 -0.0967  0.0425
   34CHL1    C1 2486   0.296   3.155   7.157 -0.3176  0.3385  0.1812
   34CHL1   H1A 2487   0.312   3.057   7.207  1.5888  0.8322  0.5629
   34CHL1   H1B 2488   0.189   3.186   7.161 -0.8427 -1.0017 -1.8809
   34CHL1    C2 2489   0.348   3.146   7.012  0.4696  0.6924  0.7848
   34CHL1   H2A 2490   0.310   3.069   6.941  1.9250  0.9575 -0.3191
   34CHL1   H2B 2491   0.455   3.116   7.010  0.1715 -0.4327 -2.8399
   34CHL1   C20 2492   0.228   3.251   7.947 -0.1823 -0.1337  0.6170
   34CHL1   H20 2493   0.333   3.277   7.971  0.2355 -1.3722  0.1932
   34CHL1   C21 2494   0.208   3.094   7.944  0.2112 -0.0959  0.0981
   34CHL1  H21A 2495   0.217   3.055   8.048 -0.5047  1.1098  0.6220
   34CHL1  H21B 2496   0.285   3.048   7.878  0.3545 -1.0358  0.8916
   34CHL1  H21C 2497   0.108   3.065   7.906 -0.2950  0.3186  1.1073
   34CHL1   C22 2498   0.135   3.318   8.050  0.2208 -0.0707  0.9892
   34CHL1  H22A 2499   0.145   3.428   8.052  0.4756 -0.0841  0.5153
   34CHL1  H22B 2500   0.031   3.280   8.038  0.6533 -1.4310  1.4355
   34CHL1   C23 2501   0.184   3.289   8.196  0.2580 -0.0623  0.0499
   34CHL1  H23A 2502   0.170   3.182   8.220  1.7417 -0.4064 -0.5627
   34CHL1  H23B 2503   0.292   3.313   8.209  0.0427 -1.1832  4.5329
   34CHL1   C24 2504   0.110   3.372   8.307 -0.1906  0.4332 -0.0020
   34CHL1  H24A 2505   0.111   3.477   8.271  2.7053  0.0987 -1.0405
   34CHL1  H24B 2506   0.005   3.340   8.324  0.2192  0.3652  2.5316
   34CHL1   C25 2507   0.188   3.370   8.435 -0.7096 -0.1244  0.1027
   34CHL1   H25 2508   0.286   3.422   8.435  1.1949 -3.4992  1.7964
   34CHL1   C26 2509   0.123   3.469   8.538  0.1840  0.7870  0.0651
   34CHL1  H26A 2510   0.180   3.467   8.633  0.1850 -0.4618  0.0425
   34CHL1  H26B 2511   0.123   3.575   8.504 -0.5163  0.5516 -0.6731
   34CHL1  H26C 2512   0.016   3.456   8.562  0.2814 -1.2859 -0.5229
   34CHL1   C27 2513   0.209   3.227   8.499  0.3573  0.4219  0.0000
   34CHL1  H27A 2514   0.250   3.225   8.602 -0.6050  1.7291  0.4215
   34CHL1  H27B 2515   0.122   3.158   8.506  1.1712 -0.6496 -0.3101
   34CHL1  H27C 2516   0.289   3.184   8.435 -0.9279 -2.4313  0.2136
   35CHL1    C3 2517   4.175   4.578   7.307 -0.6665 -0.4306  0.0437
   35CHL1    H3 2518   4.282   4.593   7.333 -1.1662  0.0122  1.9446
   35CHL1    O3 2519   4.168   4.573   7.163 -0.3880 -0.3644  0.0171
   35CHL1   H3' 2520   4.245   4.520   7.142  1.0305  0.9094  1.8305
   35CHL1    C4 2521   4.135   4.434   7.366  0.2910  0.4140  0.1921
   35CHL1   H4A 2522   4.029   4.422   7.334  0.4264  0.2606 -0.2042
   35CHL1   H4B 2523   4.186   4.350   7.314  0.5597  0.5986  0.1547
   35CHL1    C5 2524   4.142   4.443   7.516 -0.3071  0.0523 -0.4309
   35CHL1    C6 2525   4.220   4.356   7.577 -0.3985 -0.3868  0.0425
   35CHL1    H6 2526   4.282   4.292   7.513  1.1316 -0.7339  1.8470
   35CHL1    C7 2527   4.245   4.343   7.722 -0.1498  0.1486 -0.0489
   35CHL1   H7A 2528   4.235   4.236   7.753  0.0082  0.3085  0.5653
   35CHL1   H7B 2529   4.352   4.367   7.738 -0.5518  2.5235 -0.8535
   35CHL1    C8 2530   4.159   4.436   7.805 -0.2007 -0.0563 -0.0465
   35CHL1    H8 2531   4.074   4.370   7.832 -1.4267  0.7280 -1.8634
   35CHL1   C14 2532   4.224   4.476   7.936  0.0909  0.5579  0.1283
   35CHL1   H14 2533   4.305   4.547   7.910  1.2101 -1.0150 -0.7723
   35CHL1   C15 2534   4.296   4.371   8.027 -0.3784  0.5574 -0.1949
   35CHL1  H15A 2535   4.243   4.274   8.017  0.8012 -0.0627 -0.5119
   35CHL1  H15B 2536   4.398   4.342   7.994 -1.5033 -0.6680 -2.7758
   35CHL1   C16 2537   4.275   4.418   8.167  0.0782 -0.5493  0.1241
   35CHL1  H16A 2538   4.191   4.352   8.198 -1.5584  0.1132 -2.6506
   35CHL1  H16B 2539   4.359   4.395   8.236  2.1285 -2.3436 -2.8288
   35CHL1   C17 2540   4.220   4.563   8.158 -0.6112 -0.0980  0.4006
   35CHL1   H17 2541   4.304   4.633   8.139 -0.5980  0.8156  3.5864
   35CHL1   C13 2542   4.131   4.560   8.026  0.3495  0.1258 -0.1213
   35CHL1   C18 2543   3.995   4.491   8.045  0.1135  0.0051 -1.3632
   35CHL1  H18A 2544   4.002   4.386   8.079  2.3263  0.7658  0.6880
   35CHL1  H18B 2545   3.933   4.539   8.124  0.3758  1.6359 -2.1297
   35CHL1  H18C 2546   3.929   4.486   7.956 -1.1524 -1.5527 -0.3666
   35CHL1   C12 2547   4.099   4.692   7.955  0.0659  0.3950  0.3204
   35CHL1  H12A 2548   4.032   4.751   8.020 -0.7834  0.3961 -0.5490
   35CHL1  H12B 2549   4.192   4.752   7.942  1.7957 -2.3049 -0.1374
   35CHL1   C11 2550   4.041   4.680   7.819  0.2367  0.6251 -0.0031
   35CHL1  H11A 2551   3.933   4.653   7.830  0.6274 -1.3612 -0.8438
   35CHL1  H11B 2552   4.051   4.775   7.763  0.9569 -1.2991 -3.2667
   35CHL1    C9 2553   4.109   4.570   7.734  0.0514  0.1402  0.8406
   35CHL1    H9 2554   4.206   4.623   7.721 -0.4375  0.9483  0.4629
   35CHL1   C10 2555   4.060   4.552   7.588 -0.2157  0.4110  0.3054
   35CHL1   C19 2556   3.911   4.511   7.592 -0.0386 -0.5057  0.0483
   35CHL1  H19A 2557   3.889   4.415   7.644  3.1362 -0.9901  0.6231
   35CHL1  H19B 2558   3.850   4.584   7.648 -0.5504  0.6376 -1.9703
   35CHL1  H19C 2559   3.876   4.510   7.486 -0.0206  0.2654  0.0345
   35CHL1    C1 2560   4.077   4.686   7.508  0.4641 -0.0292 -0.2991
   35CHL1   H1A 2561   4.001   4.760   7.541 -1.7554 -0.7073 -3.6175
   35CHL1   H1B 2562   4.175   4.734   7.528  1.4962 -1.9135 -0.7027
   35CHL1    C2 2563   4.079   4.674   7.356  0.2081  0.0511 -0.0127
   35CHL1   H2A 2564   4.089   4.772   7.304  0.5347  0.6099  1.0746
   35CHL1   H2B 2565   3.981   4.634   7.323  1.0056 -3.4801  1.6831
   35CHL1   C20 2566   4.155   4.626   8.289  0.2771 -0.3149  0.4871
   35CHL1   H20 2567   4.044   4.629   8.285  0.2312 -0.5129  1.6519
   35CHL1   C21 2568   4.203   4.772   8.306  0.0877 -0.1207 -0.1575
   35CHL1  H21A 2569   4.147   4.819   8.389  0.6165  0.3849 -0.0804
   35CHL1  H21B 2570   4.173   4.823   8.211 -1.1974  0.3664  0.4953
   35CHL1  H21C 2571   4.312   4.772   8.329  0.4411 -0.3354 -1.7488
   35CHL1   C22 2572   4.189   4.548   8.418 -0.6288  0.2098  0.0707
   35CHL1  H22A 2573   4.193   4.438   8.399 -0.7844  0.1642  0.3024
   35CHL1  H22B 2574   4.290   4.578   8.454 -0.6982  0.3091  0.1815
   35CHL1   C23 2575   4.093   4.572   8.538 -1.1481 -0.1446  0.4815
   35CHL1  H23A 2576   4.119   4.667   8.589 -1.2364  1.0729 -1.6966
   35CHL1  H23B 2577   3.985   4.574   8.511 -0.6019  0.2566 -1.7663
   35CHL1   C24 2578   4.092   4.467   8.654 -0.5774  0.1100  0.0262
   35CHL1  H24A 2579   4.190   4.459   8.705 -0.4875 -1.4059 -0.3859
   35CHL1  H24B 2580   4.008   4.495   8.721  0.6902  3.5323  0.3109
   35CHL1   C25 2581   4.058   4.319   8.610  0.4873 -0.3789 -0.2018
   35CHL1   H25 2582   4.130   4.280   8.535 -0.9290  0.4552 -2.0187
   35CHL1   C26 2583   4.061   4.215   8.725  0.3592  0.2618 -0.0964
   35CHL1  H26A 2584   3.975   4.235   8.792 -1.1955 -0.6783 -1.7725
   35CHL1  H26B 2585   4.062   4.112   8.683  0.7193  0.5025 -0.6818
   35CHL1  H26C 2586   4.156   4.233   8.780  0.9712  1.7717 -1.6071
   35CHL1   C27 2587   3.919   4.314   8.541 -0.2977 -0.6133  0.6404
   35CHL1  H27A 2588   3.906   4.216   8.490  0.2484 -0.6613  0.5877
   35CHL1  H27B 2589   3.904   4.388   8.460 -2.1507 -2.5025 -0.7951
   35CHL1  H27C 2590   3.836   4.327   8.614  0.0325 -0.2511  0.9524
   36CHL1    C3 2591   5.089   3.972   7.064 -0.0694  0.2459 -1.2623
   36CHL1    H3 2592   5.196   3.993   7.083  0.2243 -1.5354 -0.8654
   36CHL1    O3 2593   5.068   4.032   6.936 -0.0756  0.0265 -0.0989
   36CHL1   H3' 2594   4.974   4.051   6.943 -0.3202 -1.5106  1.1500
   36CHL1    C4 2595   5.059   3.821   7.054 -0.4596 -0.0078 -0.0617
   36CHL1   H4A 2596   4.955   3.815   7.016  0.0220 -0.3859 -1.3299
   36CHL1   H4B 2597   5.133   3.778   6.984  0.1436  2.0001 -0.7168
   36CHL1    C5 2598   5.076   3.757   7.197 -0.7401  0.5182  0.7499
   36CHL1    C6 2599   5.152   3.652   7.216 -0.3865 -0.6035 -0.9876
   36CHL1    H6 2600   5.205   3.607   7.131  0.7000  1.2546 -1.3197
   36CHL1    C7 2601   5.185   3.606   7.356 -0.1390  0.0958  0.5410
   36CHL1   H7A 2602   5.192   3.495   7.360 -2.5098 -0.2204 -2.4931
   36CHL1   H7B 2603   5.289   3.638   7.377  0.1856 -0.0033 -0.8761
   36CHL1    C8 2604   5.086   3.642   7.464 -0.1242 -0.1693  0.0376
   36CHL1    H8 2605   4.988   3.591   7.450 -0.7532  0.4160  2.1029
   36CHL1   C14 2606   5.137   3.614   7.600 -0.5615 -0.4344 -0.3591
   36CHL1   H14 2607   5.227   3.678   7.608  0.9248 -2.5184  0.0699
   36CHL1   C15 2608   5.202   3.473   7.635 -0.0557  0.3761 -0.8247
   36CHL1  H15A 2609   5.124   3.397   7.612 -0.4431  0.5483 -0.0940
   36CHL1  H15B 2610   5.294   3.452   7.578 -0.6462  0.2668 -1.7495
   36CHL1   C16 2611   5.206   3.477   7.789  0.3367 -0.0345 -0.0738
   36CHL1  H16A 2612   5.157   3.387   7.831  0.4866 -0.0939 -0.0245
   36CHL1  H16B 2613   5.314   3.483   7.815  0.3740  0.2901 -0.2973
   36CHL1   C17 2614   5.134   3.606   7.842 -0.2081  1.0264 -0.7305
   36CHL1   H17 2615   5.191   3.699   7.862  1.2509  0.1092 -0.6266
   36CHL1   C13 2616   5.043   3.650   7.724 -0.6655 -0.2349  0.0971
   36CHL1   C18 2617   4.915   3.570   7.734  0.6411 -0.0086 -0.3561
   36CHL1  H18A 2618   4.855   3.595   7.824  1.1698 -0.2784  0.0763
   36CHL1  H18B 2619   4.850   3.567   7.644 -1.3107  0.4584  0.9978
   36CHL1  H18C 2620   4.944   3.465   7.754  1.3902  0.2889  0.1562
   36CHL1   C12 2621   5.013   3.802   7.708 -0.2445 -0.1067  0.3265
   36CHL1  H12A 2622   4.934   3.843   7.775  3.5709  2.3825  3.5018
   36CHL1  H12B 2623   5.107   3.859   7.726 -0.1634 -0.5746  1.4152
   36CHL1   C11 2624   4.959   3.830   7.563  0.1680 -0.1832 -0.1668
   36CHL1  H11A 2625   4.869   3.766   7.558 -0.5310  0.7268  0.6043
   36CHL1  H11B 2626   4.913   3.931   7.556  0.5452  0.0189  0.2122
   36CHL1    C9 2627   5.056   3.787   7.456 -0.3406 -0.5486  0.0681
   36CHL1    H9 2628   5.154   3.836   7.474 -0.3220 -0.5391 -0.0629
   36CHL1   C10 2629   5.000   3.834   7.315 -0.3067 -0.1737  0.2246
   36CHL1   C19 2630   4.850   3.809   7.298  0.3618 -0.6901 -0.1229
   36CHL1  H19A 2631   4.798   3.854   7.386  1.3006 -1.9123  1.0902
   36CHL1  H19B 2632   4.807   3.848   7.204 -4.1194 -1.4148  1.5283
   36CHL1  H19C 2633   4.831   3.700   7.291 -0.4441 -0.7554  2.4712
   36CHL1    C1 2634   5.023   3.991   7.308 -0.9867 -0.4736 -0.2008
   36CHL1   H1A 2635   4.956   4.026   7.390 -1.1243 -1.9508  0.3205
   36CHL1   H1B 2636   5.129   4.007   7.335  0.1274 -2.9045 -2.9408
   36CHL1    C2 2637   5.001   4.046   7.167  0.5400  0.2315 -0.4794
   36CHL1   H2A 2638   5.021   4.156   7.164 -0.4539  0.4055 -1.0777
   36CHL1   H2B 2639   4.894   4.049   7.137  0.4922 -0.2664 -0.3647
   36CHL1   C20 2640   5.065   3.582   7.984  0.2667 -0.3788 -0.1488
   36CHL1   H20 2641   4.994   3.497   7.977  0.2437 -0.5095  1.3569
   36CHL1   C21 2642   4.989   3.703   8.039 -0.9692 -0.0295  0.5517
   36CHL1  H21A 2643   5.064   3.770   8.087 -0.0459 -1.2846  0.8777
   36CHL1  H21B 2644   4.908   3.667   8.105 -1.1428 -0.8009 -0.0832
   36CHL1  H21C 2645   4.939   3.760   7.958  0.2244  0.3413  0.0624
   36CHL1   C22 2646   5.178   3.536   8.086  0.3172 -0.2154 -0.6361
   36CHL1  H22A 2647   5.228   3.450   8.037 -1.4353 -0.2256 -2.4709
   36CHL1  H22B 2648   5.256   3.615   8.093 -1.9612  1.9141  1.2945
   36CHL1   C23 2649   5.127   3.485   8.221  0.2286  0.4846 -0.2130
   36CHL1  H23A 2650   5.221   3.492   8.281  0.8263  0.7218 -1.1603
   36CHL1  H23B 2651   5.052   3.549   8.272  1.4028  3.0056 -1.5218
   36CHL1   C24 2652   5.087   3.336   8.208 -0.2688  0.3783 -0.5209
   36CHL1  H24A 2653   4.982   3.331   8.172 -0.6064 -1.1216  0.6342
   36CHL1  H24B 2654   5.143   3.288   8.125  0.0363  1.0592 -0.7127
   36CHL1   C25 2655   5.099   3.251   8.340  0.1189  0.6780 -0.8364
   36CHL1   H25 2656   5.178   3.287   8.408  0.5591 -1.0525 -0.3946
   36CHL1   C26 2657   4.973   3.273   8.423 -0.6574 -0.1140 -0.4063
   36CHL1  H26A 2658   4.958   3.383   8.436 -1.5237 -0.1121 -1.3451
   36CHL1  H26B 2659   4.878   3.236   8.379 -1.9197  1.2481  1.0820
   36CHL1  H26C 2660   4.975   3.218   8.519 -1.3833 -1.4502 -1.1415
   36CHL1   C27 2661   5.112   3.101   8.302  0.1351  0.2655  0.3571
   36CHL1  H27A 2662   5.136   3.037   8.390 -2.7917 -0.5475  0.6162
   36CHL1  H27B 2663   5.019   3.061   8.255  0.4546 -1.3449  1.0457
   36CHL1  H27C 2664   5.194   3.089   8.229 -1.2920  1.6587 -1.5347
   37CHL1    C3 2665   1.195   6.208   6.940  0.0470  0.2732 -0.1021
   37CHL1    H3 2666   1.099   6.260   6.959 -0.5697 -0.8285 -0.1951
   37CHL1    O3 2667   1.214   6.201   6.799 -0.7304  0.1520  0.5960
   37CHL1   H3' 2668   1.138   6.243   6.758 -0.7849  0.2657  0.8163
   37CHL1    C4 2669   1.305   6.304   6.991  0.4239 -0.1412  0.0854
   37CHL1   H4A 2670   1.406   6.271   6.959  1.2867 -1.1374  3.6427
   37CHL1   H4B 2671   1.284   6.403   6.945 -2.8061 -0.7853  0.0402
   37CHL1    C5 2672   1.297   6.321   7.143 -0.5034 -0.3532 -0.4410
   37CHL1    C6 2673   1.289   6.444   7.192 -0.2916 -0.4373  0.6447
   37CHL1    H6 2674   1.294   6.531   7.126 -1.6358 -1.1493 -0.4173
   37CHL1    C7 2675   1.296   6.471   7.342  0.2317 -0.3977  0.1549
   37CHL1   H7A 2676   1.372   6.549   7.363 -2.0210  1.6368  1.0337
   37CHL1   H7B 2677   1.203   6.519   7.379  0.1269 -0.1662 -0.4065
   37CHL1    C8 2678   1.333   6.353   7.429  0.4523  0.7461  0.1187
   37CHL1    H8 2679   1.443   6.337   7.425  0.2762 -0.1201 -4.5410
   37CHL1   C14 2680   1.292   6.377   7.571 -0.8489 -0.8123 -0.5065
   37CHL1   H14 2681   1.181   6.385   7.579 -0.5062  2.1024  3.2414
   37CHL1   C15 2682   1.342   6.504   7.653  0.5071  0.3062  1.2141
   37CHL1  H15A 2683   1.446   6.533   7.629 -0.0305  2.1178  1.0011
   37CHL1  H15B 2684   1.274   6.588   7.627  0.5486 -0.3380 -1.1081
   37CHL1   C16 2685   1.339   6.460   7.800 -0.5191 -0.0855  0.2307
   37CHL1  H16A 2686   1.443   6.479   7.833 -0.6954  0.3431  0.5303
   37CHL1  H16B 2687   1.271   6.524   7.859 -0.7930  0.6755 -0.8916
   37CHL1   C17 2688   1.287   6.317   7.796 -0.4014 -0.1413  0.4210
   37CHL1   H17 2689   1.176   6.316   7.801 -0.3451 -2.2360  2.2618
   37CHL1   C13 2690   1.326   6.256   7.663  0.2495 -0.0998  0.2860
   37CHL1   C18 2691   1.477   6.225   7.664  0.2618  0.3206 -0.0369
   37CHL1  H18A 2692   1.524   6.305   7.725  1.0516  0.7175 -1.1414
   37CHL1  H18B 2693   1.504   6.134   7.721 -0.0730 -0.6703 -1.4315
   37CHL1  H18C 2694   1.520   6.195   7.565  2.1653  2.9514 -0.0576
   37CHL1   C12 2695   1.247   6.135   7.611  0.3401 -0.9169 -0.0771
   37CHL1  H12A 2696   1.284   6.045   7.665  2.3242  1.5706  2.9770
   37CHL1  H12B 2697   1.138   6.153   7.614  0.4663  0.1714 -1.3585
   37CHL1   C11 2698   1.272   6.102   7.466  0.7185 -0.7148  0.1897
   37CHL1  H11A 2699   1.378   6.069   7.461  0.4061 -1.7069  0.1547
   37CHL1  H11B 2700   1.212   6.015   7.431  1.4090 -1.1110 -0.0194
   37CHL1    C9 2701   1.263   6.226   7.370  0.1332  0.1288 -0.5007
   37CHL1    H9 2702   1.154   6.251   7.364  0.2063  0.6935  0.4760
   37CHL1   C10 2703   1.294   6.190   7.219 -0.4932 -0.3850 -0.4496
   37CHL1   C19 2704   1.430   6.124   7.210  0.4158  0.2242  0.2469
   37CHL1  H19A 2705   1.423   6.027   7.263  1.9837 -1.4621 -2.5100
   37CHL1  H19B 2706   1.462   6.109   7.105 -1.1966  0.7739 -0.3425
   37CHL1  H19C 2707   1.502   6.182   7.273  0.0140  0.9740  0.0255
   37CHL1    C1 2708   1.199   6.086   7.155  0.2619  0.7050  0.4867
   37CHL1   H1A 2709   1.205   5.987   7.206  2.0353  0.2781 -0.5278
   37CHL1   H1B 2710   1.096   6.125   7.169  0.1484 -0.1167  2.0523
   37CHL1    C2 2711   1.202   6.068   7.006  0.0883 -0.3883  0.1061
   37CHL1   H2A 2712   1.117   6.000   6.981 -0.4304  0.4861 -0.4949
   37CHL1   H2B 2713   1.287   6.006   6.969  1.5474  0.7361  1.5019
   37CHL1   C20 2714   1.320   6.233   7.920  0.2551  0.1029 -0.3799
   37CHL1   H20 2715   1.431   6.229   7.923  0.1791 -2.1776  0.1862
   37CHL1   C21 2716   1.268   6.087   7.916  0.5750  0.3333  0.4395
   37CHL1  H21A 2717   1.164   6.078   7.877  1.6015  0.1552 -2.3675
   37CHL1  H21B 2718   1.267   6.052   8.022  1.3875  1.3059  0.7758
   37CHL1  H21C 2719   1.335   6.021   7.858  0.3768  1.2513 -0.8507
   37CHL1   C22 2720   1.279   6.289   8.058 -0.4182  0.6157 -1.3118
   37CHL1  H22A 2721   1.304   6.398   8.056  2.0028  0.2134  2.0176
   37CHL1  H22B 2722   1.171   6.267   8.063 -0.0526 -1.1751 -1.2006
   37CHL1   C23 2723   1.368   6.242   8.179 -0.0694  0.7403 -0.1656
   37CHL1  H23A 2724   1.361   6.131   8.181 -0.2397  0.7567  0.3554
   37CHL1  H23B 2725   1.472   6.280   8.167 -0.3251  1.5386  0.1114
   37CHL1   C24 2726   1.321   6.284   8.317  0.8843 -0.9962  0.4814
   37CHL1  H24A 2727   1.329   6.390   8.348 -2.7203  0.0312 -1.8079
   37CHL1  H24B 2728   1.212   6.265   8.310  0.9893 -1.1353 -1.1708
   37CHL1   C25 2729   1.378   6.203   8.432 -0.8176 -0.2277 -0.6876
   37CHL1   H25 2730   1.478   6.157   8.417  0.2845  1.6090  0.8437
   37CHL1   C26 2731   1.388   6.293   8.559  0.0413 -0.2491 -0.2115
   37CHL1  H26A 2732   1.287   6.329   8.589  0.8520  1.8681  0.0729
   37CHL1  H26B 2733   1.428   6.237   8.647 -4.0339  0.8401  2.4714
   37CHL1  H26C 2734   1.457   6.377   8.536 -0.0445  0.8626  3.2709
   37CHL1   C27 2735   1.279   6.080   8.470 -0.9135 -0.5138  0.9664
   37CHL1  H27A 2736   1.177   6.119   8.491 -1.6874 -1.8786 -0.2301
   37CHL1  H27B 2737   1.285   6.001   8.393 -1.2130  0.2733  0.1378
   37CHL1  H27C 2738   1.306   6.040   8.570  0.6494 -1.9485 -0.0075
   38CHL1    C3 2739   4.666   0.225   6.736  0.1251 -0.1235  0.0511
   38CHL1    H3 2740   4.656   0.333   6.759  1.8614  0.2205 -0.7219
   38CHL1    O3 2741   4.676   0.207   6.596 -0.2135  0.2679 -0.1845
   38CHL1   H3' 2742   4.679   0.113   6.579  1.5567  0.3274 -0.3800
   38CHL1    C4 2743   4.796   0.173   6.805 -1.3542  0.2111 -0.0486
   38CHL1   H4A 2744   4.819   0.069   6.771 -1.6541 -0.4699  1.7805
   38CHL1   H4B 2745   4.885   0.224   6.762 -0.6629 -2.4744 -1.9801
   38CHL1    C5 2746   4.791   0.162   6.958  0.9112 -0.5484 -1.0448
   38CHL1    C6 2747   4.879   0.223   7.043 -0.2226  0.3683  0.8123
   38CHL1    H6 2748   4.968   0.274   7.004 -0.8387  0.0058 -1.1227
   38CHL1    C7 2749   4.887   0.200   7.192  0.0388  0.0877 -0.5681
   38CHL1   H7A 2750   4.993   0.173   7.213 -0.5011 -0.3247  1.6904
   38CHL1   H7B 2751   4.862   0.292   7.248  2.2689 -0.7392  1.9106
   38CHL1    C8 2752   4.792   0.079   7.232  0.0244 -0.0779 -0.0150
   38CHL1    H8 2753   4.838  -0.017   7.202  1.1679  0.0636  1.2605
   38CHL1   C14 2754   4.775   0.084   7.383  0.3356  0.0210 -0.1589
   38CHL1   H14 2755   4.748   0.190   7.404  2.2878  0.8244 -1.5149
   38CHL1   C15 2756   4.906   0.075   7.475  0.1623 -0.1921  0.2069
   38CHL1  H15A 2757   4.976   0.001   7.431 -0.7139 -1.4002  0.8153
   38CHL1  H15B 2758   4.966   0.168   7.487  1.6329 -0.7789 -2.2125
   38CHL1   C16 2759   4.853   0.035   7.615 -0.2004 -0.3449  0.1847
   38CHL1  H16A 2760   4.902  -0.056   7.656  0.9271 -0.5868 -1.6065
   38CHL1  H16B 2761   4.875   0.122   7.680 -1.3810 -0.5731  0.9055
   38CHL1   C17 2762   4.695   0.024   7.597 -0.4926  0.4269 -0.8676
   38CHL1   H17 2763   4.654   0.127   7.609  2.0967  1.6875 -2.4949
   38CHL1   C13 2764   4.673  -0.012   7.454 -0.3561  0.4356 -0.0224
   38CHL1   C18 2765   4.705  -0.156   7.437  0.7923 -0.7662  0.0870
   38CHL1  H18A 2766   4.619  -0.217   7.472  0.5690 -0.2211  0.5098
   38CHL1  H18B 2767   4.722  -0.182   7.331 -0.3055 -0.2059 -0.2344
   38CHL1  H18C 2768   4.786  -0.197   7.501  2.6447  0.7582 -1.2206
   38CHL1   C12 2769   4.537   0.020   7.397  0.0280 -0.3843 -0.2558
   38CHL1  H12A 2770   4.462  -0.054   7.432  1.4627 -1.9333 -0.4191
   38CHL1  H12B 2771   4.499   0.119   7.430  1.9767  0.4122 -0.3233
   38CHL1   C11 2772   4.539   0.016   7.239  0.9052 -0.1759  0.2879
   38CHL1  H11A 2773   4.544  -0.087   7.199 -2.5070 -0.5173  0.5675
   38CHL1  H11B 2774   4.444   0.068   7.215  0.8247 -0.0245  0.9480
   38CHL1    C9 2775   4.658   0.099   7.166 -0.0817 -0.5313  0.2065
   38CHL1    H9 2776   4.633   0.204   7.189  0.8437 -0.5309  1.2778
   38CHL1   C10 2777   4.666   0.082   7.010  0.0503 -0.9535  0.7946
   38CHL1   C19 2778   4.690  -0.060   6.967 -0.1877 -0.4453 -0.1344
   38CHL1  H19A 2779   4.600  -0.119   6.990 -0.6194 -0.4177 -1.7014
   38CHL1  H19B 2780   4.711  -0.075   6.858 -0.4306 -0.1416 -0.2238
   38CHL1  H19C 2781   4.774  -0.106   7.022 -0.8510 -0.9048  0.4878
   38CHL1    C1 2782   4.531   0.130   6.936 -0.3683  0.1054 -0.0312
   38CHL1   H1A 2783   4.450   0.056   6.957  0.1608  0.0485  1.9588
   38CHL1   H1B 2784   4.502   0.226   6.983 -1.1265 -1.5233  2.9610
   38CHL1    C2 2785   4.544   0.141   6.785  0.0785 -0.6560  0.0827
   38CHL1   H2A 2786   4.451   0.169   6.731 -0.3609 -0.8527  0.7383
   38CHL1   H2B 2787   4.556   0.038   6.745 -1.9463  0.1452 -2.7275
   38CHL1   C20 2788   4.631  -0.058   7.710  0.2001  0.1570 -0.1936
   38CHL1   H20 2789   4.687  -0.154   7.707  2.1945  1.3069 -0.8031
   38CHL1   C21 2790   4.486  -0.081   7.690 -0.4071  0.7640 -0.1405
   38CHL1  H21A 2791   4.468  -0.154   7.608  1.0099  0.1683  0.0721
   38CHL1  H21B 2792   4.423   0.010   7.680  0.6163  1.4465 -0.3863
   38CHL1  H21C 2793   4.439  -0.125   7.780 -0.4058  0.4286 -0.3034
   38CHL1   C22 2794   4.668   0.005   7.851  0.0810  0.0807  0.6516
   38CHL1  H22A 2795   4.778  -0.005   7.856  0.2432 -0.5772 -2.9357
   38CHL1  H22B 2796   4.633   0.110   7.853 -0.2160 -0.0073  0.0687
   38CHL1   C23 2797   4.621  -0.068   7.974 -0.2702 -0.5773 -0.3483
   38CHL1  H23A 2798   4.511  -0.067   7.964 -0.3026  2.4150 -0.3037
   38CHL1  H23B 2799   4.653  -0.174   7.974 -1.0119 -0.8011 -1.2008
   38CHL1   C24 2800   4.659   0.016   8.109 -0.3520 -0.1760  0.4321
   38CHL1  H24A 2801   4.770   0.005   8.117 -0.1319  1.2846 -0.5598
   38CHL1  H24B 2802   4.632   0.121   8.088 -1.1411 -0.4923 -0.1449
   38CHL1   C25 2803   4.597  -0.032   8.243 -0.0932 -0.2386  0.3783
   38CHL1   H25 2804   4.648   0.024   8.324  0.9192 -0.7333  0.0925
   38CHL1   C26 2805   4.444  -0.011   8.247 -0.2968  0.1159  0.6468
   38CHL1  H26A 2806   4.409  -0.016   8.353 -0.0524 -0.5076  0.7027
   38CHL1  H26B 2807   4.413   0.081   8.193 -0.0695 -0.1258  0.1083
   38CHL1  H26C 2808   4.399  -0.102   8.200  2.2145 -1.7126  1.6708
   38CHL1   C27 2809   4.636  -0.179   8.286 -0.0165 -0.2827  0.4841
   38CHL1  H27A 2810   4.611  -0.195   8.393  0.8941 -1.2050  0.5666
   38CHL1  H27B 2811   4.581  -0.256   8.228  1.1518 -1.2499  0.6540
   38CHL1  H27C 2812   4.746  -0.189   8.275 -0.0249 -1.9814  1.7171
   39CHL1    C3 2813   4.021   5.748   6.853 -0.2811  0.9121  0.8260
   39CHL1    H3 2814   3.966   5.652   6.859  1.9217 -0.4196  0.3261
   39CHL1    O3 2815   4.040   5.791   6.711  0.3463  0.0961 -0.8134
   39CHL1   H3' 2816   4.045   5.708   6.661 -1.0420 -1.1267  1.0059
   39CHL1    C4 2817   3.942   5.849   6.933 -0.1193  0.3059 -0.0569
   39CHL1   H4A 2818   3.979   5.952   6.914 -0.4121  0.9353  2.6514
   39CHL1   H4B 2819   3.839   5.842   6.891 -0.1489 -2.6531  0.4565
   39CHL1    C5 2820   3.942   5.797   7.077 -0.5393  0.3752 -0.0281
   39CHL1    C6 2821   3.831   5.754   7.143 -0.4794  0.1191 -0.3947
   39CHL1    H6 2822   3.734   5.744   7.092 -1.1993 -0.0980  0.9981
   39CHL1    C7 2823   3.829   5.717   7.286 -0.7057  0.9352 -0.0376
   39CHL1   H7A 2824   3.739   5.764   7.332 -0.7032 -0.3442  1.3010
   39CHL1   H7B 2825   3.813   5.610   7.309  1.1579  0.7171  0.2730
   39CHL1    C8 2826   3.950   5.769   7.363  0.3439  0.2048  0.4154
   39CHL1    H8 2827   3.941   5.879   7.367 -2.3117 -0.0210  1.1335
   39CHL1   C14 2828   3.971   5.717   7.501  1.1460 -1.2402  0.0585
   39CHL1   H14 2829   3.989   5.607   7.491  1.6383 -1.0690 -0.9574
   39CHL1   C15 2830   3.843   5.733   7.589 -0.3897 -0.6315  0.3061
   39CHL1  H15A 2831   3.790   5.830   7.575 -1.2256 -1.1181  0.0728
   39CHL1  H15B 2832   3.771   5.652   7.569  1.9853 -2.1726 -2.2502
   39CHL1   C16 2833   3.891   5.739   7.732 -0.3861  0.4595  0.0637
   39CHL1  H16A 2834   3.863   5.837   7.776 -1.9566  0.5642 -1.1163
   39CHL1  H16B 2835   3.832   5.662   7.786  0.3783 -0.1333  0.0684
   39CHL1   C17 2836   4.043   5.721   7.727  0.0710 -0.5452  0.1021
   39CHL1   H17 2837   4.058   5.611   7.732  0.4378 -0.5926 -1.8060
   39CHL1   C13 2838   4.089   5.768   7.581 -0.5420  0.7047 -0.6187
   39CHL1   C18 2839   4.106   5.928   7.578 -0.1011  0.5847  0.4773
   39CHL1  H18A 2840   4.200   5.958   7.629  0.9143 -0.5192 -0.7279
   39CHL1  H18B 2841   4.108   5.965   7.474  1.1948 -1.4876 -0.2476
   39CHL1  H18C 2842   4.012   5.973   7.619 -2.8675 -2.6862 -1.9234
   39CHL1   C12 2843   4.212   5.702   7.509  0.2824  0.1324  0.2634
   39CHL1  H12A 2844   4.307   5.739   7.554  0.7385  0.1143 -0.6777
   39CHL1  H12B 2845   4.206   5.592   7.518 -1.2350  0.3210  1.8006
   39CHL1   C11 2846   4.209   5.741   7.358  0.2048  0.5071 -0.7871
   39CHL1  H11A 2847   4.247   5.845   7.361  1.3917  0.1224 -1.8129
   39CHL1  H11B 2848   4.280   5.681   7.297  0.9101  0.1674  0.3607
   39CHL1    C9 2849   4.074   5.730   7.280 -0.3414 -0.7250 -1.4289
   39CHL1    H9 2850   4.065   5.620   7.267 -0.7182 -0.8496 -0.2221
   39CHL1   C10 2851   4.081   5.795   7.136 -0.0875 -0.6815 -0.1159
   39CHL1   C19 2852   4.146   5.932   7.135 -0.6485  0.1766  0.0973
   39CHL1  H19A 2853   4.093   5.995   7.210  0.8754 -0.8986  2.1162
   39CHL1  H19B 2854   4.252   5.935   7.167 -1.0738  2.0913  1.3949
   39CHL1  H19C 2855   4.140   5.980   7.034 -1.4828  0.8513  0.4592
   39CHL1    C1 2856   4.161   5.698   7.050 -0.8388 -0.1256 -0.1935
   39CHL1   H1A 2857   4.269   5.702   7.076 -0.2966 -0.4810 -2.2677
   39CHL1   H1B 2858   4.119   5.598   7.075 -2.1328  0.3162 -0.5973
   39CHL1    C2 2859   4.165   5.728   6.904 -0.5938  0.0533 -0.4292
   39CHL1   H2A 2860   4.217   5.647   6.849 -0.3674 -1.0915  1.4070
   39CHL1   H2B 2861   4.213   5.828   6.890 -4.5022  2.3576  1.6926
   39CHL1   C20 2862   4.129   5.783   7.846 -1.0580 -0.6195  0.2164
   39CHL1   H20 2863   4.112   5.892   7.840  1.9718  0.0102  1.9390
   39CHL1   C21 2864   4.278   5.759   7.823 -0.0032  0.8681 -0.1838
   39CHL1  H21A 2865   4.303   5.658   7.784 -1.7220  0.6728 -0.7970
   39CHL1  H21B 2866   4.334   5.780   7.917  0.1741  1.0876 -0.3382
   39CHL1  H21C 2867   4.323   5.821   7.742  2.0002  2.1801  1.8493
   39CHL1   C22 2868   4.082   5.735   7.985  0.2115  0.0615  1.1116
   39CHL1  H22A 2869   3.971   5.739   7.990  0.1618  0.4047 -0.2836
   39CHL1  H22B 2870   4.115   5.632   8.012  0.9871  0.8222  3.1996
   39CHL1   C23 2871   4.135   5.830   8.093  0.2929  0.8751  0.4062
   39CHL1  H23A 2872   4.245   5.825   8.108 -0.0532 -4.8869  1.9643
   39CHL1  H23B 2873   4.111   5.934   8.062  0.8828  1.2509  1.1945
   39CHL1   C24 2874   4.065   5.811   8.228 -0.1075 -0.1439  0.0085
   39CHL1  H24A 2875   3.954   5.811   8.216  0.0956  0.1051 -1.9787
   39CHL1  H24B 2876   4.090   5.713   8.275  1.3402 -0.7073 -1.9211
   39CHL1   C25 2877   4.111   5.921   8.327  0.2138  0.2226 -0.0496
   39CHL1   H25 2878   4.115   6.019   8.274 -2.6861 -0.4150 -1.6049
   39CHL1   C26 2879   4.028   5.932   8.458  0.6104  0.3545  0.0250
   39CHL1  H26A 2880   4.045   5.840   8.518  1.8123  2.1245  2.4683
   39CHL1  H26B 2881   4.075   6.013   8.518  0.7210  0.4825 -0.2386
   39CHL1  H26C 2882   3.925   5.949   8.419  0.8708  2.2013  0.0898
   39CHL1   C27 2883   4.248   5.895   8.368 -0.5119  0.0946  1.5345
   39CHL1  H27A 2884   4.240   5.834   8.461  0.5038  0.8979  2.1642
   39CHL1  H27B 2885   4.307   5.846   8.287 -1.4921  0.8016  0.3836
   39CHL1  H27C 2886   4.312   5.984   8.388 -1.0098  1.2507 -1.8339
   40CHL1    C3 2887   0.216   4.846   6.921  1.1035  0.0290  0.5733
   40CHL1    H3 2888   0.108   4.837   6.946  1.0532  0.5229  0.5515
   40CHL1    O3 2889   0.234   4.841   6.778 -0.6165  0.1028 -0.5418
   40CHL1   H3' 2890   0.178   4.768   6.749  0.5561  0.0793 -2.8679
   40CHL1    C4 2891   0.294   4.968   6.971  0.4903  0.0207  0.1001
   40CHL1   H4A 2892   0.401   4.964   6.942  0.1647  1.1729 -1.3200
   40CHL1   H4B 2893   0.259   5.054   6.910  1.0456 -2.1020 -3.3341
   40CHL1    C5 2894   0.276   4.972   7.118 -0.0541  0.3449 -0.1932
   40CHL1    C6 2895   0.213   5.080   7.173  0.5066  0.5958  0.3256
   40CHL1    H6 2896   0.164   5.151   7.105  3.3411 -0.6847 -3.2205
   40CHL1    C7 2897   0.210   5.106   7.320  0.2573  0.4124 -0.7313
   40CHL1   H7A 2898   0.221   5.214   7.345 -0.5565  0.4070 -0.3271
   40CHL1   H7B 2899   0.105   5.089   7.352  1.3379  0.3682  3.0590
   40CHL1    C8 2900   0.305   5.017   7.403 -0.1798  0.7362  0.1095
   40CHL1    H8 2901   0.408   5.059   7.400  0.2798 -0.3423  0.6991
   40CHL1   C14 2902   0.260   5.012   7.549  0.4764  0.4018 -0.5185
   40CHL1   H14 2903   0.164   4.956   7.539  0.9522 -0.1913 -2.0017
   40CHL1   C15 2904   0.238   5.141   7.623  0.2147 -0.4060  0.3267
   40CHL1  H15A 2905   0.331   5.199   7.607 -0.2215 -0.2665 -1.7815
   40CHL1  H15B 2906   0.145   5.192   7.591 -0.1611  0.1565  2.2291
   40CHL1   C16 2907   0.242   5.105   7.774 -0.1421  0.1347 -0.0282
   40CHL1  H16A 2908   0.317   5.173   7.819  3.4581 -2.3735 -1.9579
   40CHL1  H16B 2909   0.145   5.131   7.822 -0.1237 -0.1960  0.1907
   40CHL1   C17 2910   0.278   4.952   7.778 -0.6113 -0.6259 -0.9617
   40CHL1   H17 2911   0.182   4.896   7.767 -0.3537 -1.2063 -0.3144
   40CHL1   C13 2912   0.341   4.916   7.635 -0.3841 -0.7959 -0.4723
   40CHL1   C18 2913   0.483   4.958   7.646 -0.0650 -0.6999 -0.8561
   40CHL1  H18A 2914   0.543   4.919   7.731 -0.4416 -3.2217 -1.6857
   40CHL1  H18B 2915   0.545   4.915   7.565  2.6147  1.5890 -0.0694
   40CHL1  H18C 2916   0.492   5.067   7.632  4.5154 -0.8845 -0.1209
   40CHL1   C12 2917   0.335   4.770   7.594 -0.5315 -1.5040  0.7602
   40CHL1  H12A 2918   0.413   4.719   7.654  3.5979  1.8465 -1.4509
   40CHL1  H12B 2919   0.241   4.719   7.623 -0.0779 -2.2477  0.9312
   40CHL1   C11 2920   0.367   4.757   7.441  0.3700  0.6518 -0.2617
   40CHL1  H11A 2921   0.477   4.749   7.432  0.2719  0.0772 -1.0050
   40CHL1  H11B 2922   0.339   4.654   7.412  0.6059  0.6509 -0.4862
   40CHL1    C9 2923   0.302   4.864   7.350  0.3252 -0.6887  0.3183
   40CHL1    H9 2924   0.192   4.843   7.353  0.5139 -2.2552 -1.8857
   40CHL1   C10 2925   0.332   4.853   7.197 -0.7875 -0.6185  0.4329
   40CHL1   C19 2926   0.485   4.856   7.186 -0.2831 -0.1675  0.3481
   40CHL1  H19A 2927   0.517   4.871   7.081  1.0333  0.3563  0.8076
   40CHL1  H19B 2928   0.521   4.943   7.245 -1.5887 -0.7209  2.0176
   40CHL1  H19C 2929   0.530   4.765   7.232  0.6359  0.0230 -0.1734
   40CHL1    C1 2930   0.267   4.721   7.137 -0.7607 -0.0779 -0.7790
   40CHL1   H1A 2931   0.315   4.630   7.179 -0.1636  0.8025  0.4565
   40CHL1   H1B 2932   0.161   4.705   7.165 -0.6673 -0.0959 -0.4335
   40CHL1    C2 2933   0.280   4.725   6.981  0.6104 -0.2342  0.4638
   40CHL1   H2A 2934   0.242   4.625   6.949 -2.3832  1.3398 -1.0402
   40CHL1   H2B 2935   0.384   4.719   6.942  0.2121 -0.7734 -0.5401
   40CHL1   C20 2936   0.342   4.921   7.913  0.8007  0.4229  0.1029
   40CHL1   H20 2937   0.430   4.988   7.926  1.0274  0.0543  0.5073
   40CHL1   C21 2938   0.382   4.769   7.923 -0.6030 -0.4695 -0.4924
   40CHL1  H21A 2939   0.412   4.750   8.029  2.3941 -0.1731 -1.2273
   40CHL1  H21B 2940   0.477   4.742   7.872  2.1295 -0.9622  4.5223
   40CHL1  H21C 2941   0.295   4.701   7.907 -1.7132  1.2533 -1.9385
   40CHL1   C22 2942   0.240   4.947   8.031 -0.5129  0.5341  0.5740
   40CHL1  H22A 2943   0.179   5.039   8.020 -1.1263  0.1727  0.9449
   40CHL1  H22B 2944   0.176   4.858   8.014  0.9459  0.0810 -3.0824
   40CHL1   C23 2945   0.298   4.951   8.169 -0.5838 -0.1760 -0.3145
   40CHL1  H23A 2946   0.208   4.952   8.233 -0.8584 -1.3145 -0.6749
   40CHL1  H23B 2947   0.356   4.858   8.187 -0.7483 -0.4351 -1.0784
   40CHL1   C24 2948   0.388   5.078   8.190 -0.1354  0.3886  0.5210
   40CHL1  H24A 2949   0.466   5.080   8.111  0.7902 -0.0530  1.4143
   40CHL1  H24B 2950   0.337   5.176   8.180  1.2764  1.1182  0.4982
   40CHL1   C25 2951   0.449   5.095   8.329  0.0716 -0.6105  1.2140
   40CHL1   H25 2952   0.487   5.001   8.375  0.7952  0.0961  2.0818
   40CHL1   C26 2953   0.566   5.201   8.321 -0.5446 -0.4138 -0.4279
   40CHL1  H26A 2954   0.602   5.232   8.421 -1.8738 -1.2980  0.3474
   40CHL1  H26B 2955   0.652   5.151   8.272 -2.4203 -2.0107 -2.2353
   40CHL1  H26C 2956   0.534   5.292   8.266  3.9087  0.6882 -1.3452
   40CHL1   C27 2957   0.334   5.142   8.421  0.1695  0.3177  0.1465
   40CHL1  H27A 2958   0.309   5.245   8.387  3.6912  1.9822  2.1977
   40CHL1  H27B 2959   0.251   5.068   8.417  2.7325 -2.7500  1.5110
   40CHL1  H27C 2960   0.372   5.154   8.525  0.8847 -0.4488 -0.0161
   41CHL1    C3 2961   0.841   4.759   6.963  0.1228  0.3726 -0.0105
   41CHL1    H3 2962   0.736   4.749   7.001  0.2148  1.3007  0.5027
   41CHL1    O3 2963   0.857   4.796   6.826  0.1632  0.3267  0.3852
   41CHL1   H3' 2964   0.952   4.808   6.826  0.1480  0.7773  2.7458
   41CHL1    C4 2965   0.906   4.865   7.062  0.5202 -0.5286  1.0363
   41CHL1   H4A 2966   1.009   4.879   7.024 -0.0803  0.4646 -0.2470
   41CHL1   H4B 2967   0.849   4.959   7.047  0.0699 -0.5885  2.3353
   41CHL1    C5 2968   0.912   4.827   7.207 -0.0343  1.0114 -0.5727
   41CHL1    C6 2969   0.852   4.898   7.306 -1.0029 -0.5645 -0.4423
   41CHL1    H6 2970   0.797   4.990   7.281 -0.8314  0.4007  2.4879
   41CHL1    C7 2971   0.843   4.864   7.450  0.4557  0.2491 -0.1720
   41CHL1   H7A 2972   0.873   4.941   7.524  0.8343  0.6568 -0.7457
   41CHL1   H7B 2973   0.739   4.830   7.472  1.0369 -2.6773 -1.6613
   41CHL1    C8 2974   0.935   4.748   7.477 -0.1064 -0.6414  0.4357
   41CHL1    H8 2975   1.038   4.787   7.462 -0.3000  0.0575  0.8926
   41CHL1   C14 2976   0.931   4.687   7.621 -0.1971  0.0542 -0.1042
   41CHL1   H14 2977   0.834   4.633   7.625 -0.9512  1.2228 -1.9008
   41CHL1   C15 2978   0.922   4.780   7.739 -0.0750 -0.8635 -0.8266
   41CHL1  H15A 2979   0.998   4.861   7.729 -0.5839 -0.4140 -1.0475
   41CHL1  H15B 2980   0.818   4.817   7.747 -0.0452 -1.3245  2.2639
   41CHL1   C16 2981   0.965   4.697   7.861  0.1350  0.0453 -0.7500
   41CHL1  H16A 2982   1.053   4.743   7.911 -0.6041 -0.7231  1.3494
   41CHL1  H16B 2983   0.879   4.686   7.930 -1.5638 -3.2406 -3.2240
   41CHL1   C17 2984   1.000   4.552   7.811 -0.1460  0.5082  0.5938
   41CHL1   H17 2985   0.910   4.488   7.801  0.9332 -1.2997  2.2655
   41CHL1   C13 2986   1.027   4.573   7.656  0.4618  0.3558 -0.9904
   41CHL1   C18 2987   1.168   4.628   7.639  0.0298  0.0577  0.4788
   41CHL1  H18A 2988   1.195   4.641   7.532 -0.6820 -1.6448  0.0762
   41CHL1  H18B 2989   1.185   4.727   7.687  0.2012 -0.0554  0.6538
   41CHL1  H18C 2990   1.243   4.555   7.678 -2.1390 -3.7978 -2.1803
   41CHL1   C12 2991   1.003   4.460   7.555 -0.3151 -0.0741  0.4265
   41CHL1  H12A 2992   1.088   4.391   7.573 -0.3328  0.3074  2.0706
   41CHL1  H12B 2993   0.913   4.399   7.575 -0.2676 -0.4237 -0.4130
   41CHL1   C11 2994   1.002   4.509   7.410 -0.1794 -0.3127 -0.1575
   41CHL1  H11A 2995   1.110   4.515   7.385 -0.0815 -0.9383  0.1217
   41CHL1  H11B 2996   0.965   4.423   7.351 -0.0595 -0.8863  0.5971
   41CHL1    C9 2997   0.928   4.643   7.369  0.6864 -0.2271 -0.1738
   41CHL1    H9 2998   0.823   4.604   7.375  0.5041  0.3731  0.6005
   41CHL1   C10 2999   0.973   4.692   7.229  1.1605 -0.5825  0.2198
   41CHL1   C19 3000   1.130   4.706   7.223 -0.0449 -0.1689  0.2609
   41CHL1  H19A 3001   1.191   4.613   7.216  1.3687  0.6086  1.8340
   41CHL1  H19B 3002   1.147   4.768   7.132  0.7851 -0.1522  0.4235
   41CHL1  H19C 3003   1.165   4.756   7.316  2.7778  0.5506 -1.1131
   41CHL1    C1 3004   0.921   4.582   7.125 -0.0418  0.0386 -0.6748
   41CHL1   H1A 3005   0.987   4.493   7.137  1.5938  1.3802  0.4784
   41CHL1   H1B 3006   0.817   4.563   7.159 -0.8139  1.6727 -2.0506
   41CHL1    C2 3007   0.923   4.623   6.976 -0.0939 -0.3666  0.2742
   41CHL1   H2A 3008   0.885   4.548   6.903  1.0632 -0.4265 -0.2846
   41CHL1   H2B 3009   1.031   4.637   6.953 -0.0746  1.5891  1.4463
   41CHL1   C20 3010   1.108   4.494   7.901  0.0017 -0.2980  0.0557
   41CHL1   H20 3011   1.195   4.562   7.886 -1.4694  1.3955 -0.9374
   41CHL1   C21 3012   1.157   4.358   7.850 -0.2732 -0.7249  0.2254
   41CHL1  H21A 3013   1.065   4.295   7.856 -0.5992 -0.3868 -1.1499
   41CHL1  H21B 3014   1.249   4.320   7.901  1.6262  2.4328 -0.7426
   41CHL1  H21C 3015   1.185   4.351   7.743  0.9503 -2.9267  0.6514
   41CHL1   C22 3016   1.072   4.494   8.058  0.5766 -0.0275 -0.0840
   41CHL1  H22A 3017   1.020   4.582   8.101  0.2182 -0.2948  0.0278
   41CHL1  H22B 3018   0.999   4.411   8.062 -0.7010  1.0571 -0.3107
   41CHL1   C23 3019   1.198   4.464   8.145 -0.2327  0.2995 -0.4090
   41CHL1  H23A 3020   1.221   4.359   8.118 -1.2633  0.1411 -0.6928
   41CHL1  H23B 3021   1.292   4.513   8.113 -0.4006  2.4871  2.2703
   41CHL1   C24 3022   1.172   4.485   8.293 -0.4943 -0.1170  0.6132
   41CHL1  H24A 3023   1.107   4.575   8.298  0.8587  0.8861  0.4071
   41CHL1  H24B 3024   1.126   4.392   8.333  1.1595 -1.9319 -1.6101
   41CHL1   C25 3025   1.301   4.521   8.362  0.6343 -0.0166 -0.5427
   41CHL1   H25 3026   1.349   4.605   8.309  2.0345 -0.4405  0.0232
   41CHL1   C26 3027   1.294   4.569   8.508  0.4302 -0.2360 -0.0878
   41CHL1  H26A 3028   1.268   4.487   8.579 -0.0714  0.3840  0.4482
   41CHL1  H26B 3029   1.393   4.608   8.541  0.3088 -1.0586  1.3141
   41CHL1  H26C 3030   1.213   4.641   8.529 -1.9018 -3.0479  0.9221
   41CHL1   C27 3031   1.397   4.402   8.350 -0.6328  0.0216 -0.0012
   41CHL1  H27A 3032   1.388   4.337   8.440 -0.5703  2.9862  2.2209
   41CHL1  H27B 3033   1.375   4.327   8.271  0.0001 -1.1033  0.8736
   41CHL1  H27C 3034   1.501   4.440   8.342 -0.7331  0.1679 -0.5869
   42CHL1    C3 3035   1.605   1.664   6.927  0.7369  0.5361 -0.3297
   42CHL1    H3 3036   1.500   1.700   6.928  0.9099  1.1837 -2.7924
   42CHL1    O3 3037   1.651   1.660   6.797 -0.1210 -0.2109  0.1597
   42CHL1   H3' 3038   1.744   1.675   6.814  0.3100 -1.7051 -0.7301
   42CHL1    C4 3039   1.691   1.745   7.014 -0.5867 -0.4091  0.2387
   42CHL1   H4A 3040   1.793   1.701   7.013  0.6994  2.2943  3.6189
   42CHL1   H4B 3041   1.695   1.847   6.970  1.4845 -0.6273 -0.1372
   42CHL1    C5 3042   1.641   1.733   7.158  0.1858 -0.7561  0.5241
   42CHL1    C6 3043   1.626   1.846   7.220 -0.9228 -0.2559  0.2153
   42CHL1    H6 3044   1.652   1.941   7.172 -0.8227  0.3072  1.3714
   42CHL1    C7 3045   1.591   1.864   7.367 -0.7414 -0.2953 -0.1139
   42CHL1   H7A 3046   1.651   1.939   7.424  0.6866 -2.1399  0.8993
   42CHL1   H7B 3047   1.487   1.902   7.368 -0.3847  0.7176 -1.0830
   42CHL1    C8 3048   1.581   1.727   7.442 -0.3890 -0.8224  0.7042
   42CHL1    H8 3049   1.686   1.702   7.467 -0.0705  0.5542  0.8052
   42CHL1   C14 3050   1.494   1.733   7.570  0.1622 -0.3955  0.2484
   42CHL1   H14 3051   1.389   1.748   7.540 -0.0948 -2.3850  0.1180
   42CHL1   C15 3052   1.524   1.849   7.675  0.1468 -0.3453  1.2091
   42CHL1  H15A 3053   1.634   1.847   7.691  0.4663  1.9680 -0.4029
   42CHL1  H15B 3054   1.493   1.948   7.636  0.9431 -0.1063  1.1708
   42CHL1   C16 3055   1.447   1.792   7.792 -0.0622  0.9250 -0.0983
   42CHL1  H16A 3056   1.506   1.811   7.884 -0.5254  0.7738  0.2285
   42CHL1  H16B 3057   1.353   1.851   7.798 -1.2283 -0.4879 -3.1904
   42CHL1   C17 3058   1.404   1.643   7.765  0.2110 -0.1639 -0.0952
   42CHL1   H17 3059   1.302   1.648   7.723  0.7107 -0.7154 -1.4223
   42CHL1   C13 3060   1.495   1.597   7.643 -0.2780 -0.0632  0.9228
   42CHL1   C18 3061   1.635   1.547   7.689 -0.3868 -0.0736 -0.0745
   42CHL1  H18A 3062   1.706   1.536   7.604  1.7080  1.2606  1.4723
   42CHL1  H18B 3063   1.691   1.613   7.758  1.4183 -0.0045 -1.5858
   42CHL1  H18C 3064   1.620   1.450   7.741  0.0237 -0.0352  0.1106
   42CHL1   C12 3065   1.424   1.496   7.556  0.6531  0.0320  0.3666
   42CHL1  H12A 3066   1.431   1.392   7.595 -0.2976 -1.1231 -2.4046
   42CHL1  H12B 3067   1.320   1.533   7.548 -0.1592 -2.5217 -1.4407
   42CHL1   C11 3068   1.501   1.482   7.425  0.1258  0.2872  0.2290
   42CHL1  H11A 3069   1.593   1.426   7.451 -1.6994 -2.1652  1.5355
   42CHL1  H11B 3070   1.432   1.427   7.357 -0.0766  1.4635 -0.5305
   42CHL1    C9 3071   1.519   1.618   7.346 -0.1392  0.3146 -0.2974
   42CHL1    H9 3072   1.419   1.655   7.317  0.2417  1.5909 -0.0267
   42CHL1   C10 3073   1.600   1.599   7.219  0.5639 -0.2641  0.1990
   42CHL1   C19 3074   1.735   1.526   7.247  0.0085  0.0559  0.5537
   42CHL1  H19A 3075   1.733   1.420   7.281  0.1512 -1.2388 -3.2312
   42CHL1  H19B 3076   1.797   1.529   7.155  2.0228 -1.5708  1.8245
   42CHL1  H19C 3077   1.793   1.586   7.321 -0.8772  1.0615  0.4426
   42CHL1    C1 3078   1.521   1.519   7.113 -0.3136 -0.2727  0.2216
   42CHL1   H1A 3079   1.530   1.416   7.152 -2.1635  1.0716  4.4860
   42CHL1   H1B 3080   1.417   1.558   7.113 -0.2197 -0.0037  1.0762
   42CHL1    C2 3081   1.586   1.523   6.974  0.9428  0.0883  0.0555
   42CHL1   H2A 3082   1.521   1.459   6.910 -0.5741  2.6821 -1.0745
   42CHL1   H2B 3083   1.685   1.473   6.980 -0.4549 -2.8504 -0.3278
   42CHL1   C20 3084   1.408   1.555   7.886  0.5881  0.1533  0.2012
   42CHL1   H20 3085   1.516   1.551   7.912  0.9272  1.4830 -0.9344
   42CHL1   C21 3086   1.333   1.423   7.871  0.0581  0.4284 -0.3003
   42CHL1  H21A 3087   1.332   1.362   7.964 -2.3819  1.8948  0.6558
   42CHL1  H21B 3088   1.386   1.359   7.796  3.4489  1.4564  1.1197
   42CHL1  H21C 3089   1.231   1.444   7.833  0.3192 -1.2593 -2.0574
   42CHL1   C22 3090   1.351   1.623   8.015  0.2639  0.1740 -0.7966
   42CHL1  H22A 3091   1.380   1.730   8.020  0.6525  0.1155 -1.7553
   42CHL1  H22B 3092   1.243   1.600   8.023  0.3452 -0.1525 -0.6184
   42CHL1   C23 3093   1.412   1.570   8.142  0.3555  0.8260 -0.9120
   42CHL1  H23A 3094   1.350   1.594   8.231 -0.6507  0.5582 -1.5315
   42CHL1  H23B 3095   1.418   1.459   8.155  1.1152  1.0224  0.4873
   42CHL1   C24 3096   1.557   1.619   8.168  0.5205  0.1569  0.1773
   42CHL1  H24A 3097   1.596   1.547   8.243  0.3289 -0.3213 -0.1815
   42CHL1  H24B 3098   1.615   1.606   8.075  0.2636  0.3730 -0.0136
   42CHL1   C25 3099   1.576   1.757   8.216  0.8545 -0.0641  0.4391
   42CHL1   H25 3100   1.490   1.812   8.172 -0.0209  0.3884  2.6257
   42CHL1   C26 3101   1.563   1.773   8.369 -0.8066 -0.8067  0.6961
   42CHL1  H26A 3102   1.465   1.748   8.414 -0.8439 -2.0321 -0.0539
   42CHL1  H26B 3103   1.649   1.718   8.413  0.5117  0.0929 -0.7142
   42CHL1  H26C 3104   1.578   1.880   8.396 -2.7774 -0.3745  0.1836
   42CHL1   C27 3105   1.697   1.828   8.165 -0.4540 -0.4122  0.2184
   42CHL1  H27A 3106   1.787   1.791   8.219  0.7795  1.3893 -0.5593
   42CHL1  H27B 3107   1.694   1.938   8.178  2.7334 -0.3405  0.6770
   42CHL1  H27C 3108   1.706   1.799   8.058 -0.1789  1.9673 -0.4233
   43CHL1    C3 3109   1.909   6.200   6.999 -0.8538  0.0759 -0.9674
   43CHL1    H3 3110   1.896   6.308   7.024  0.9816  0.7629 -2.8720
   43CHL1    O3 3111   1.894   6.184   6.866  0.5148  0.2531 -0.2855
   43CHL1   H3' 3112   1.909   6.089   6.867  1.6751  0.4359  1.5339
   43CHL1    C4 3113   2.049   6.154   7.046 -0.0864 -0.5786 -0.4350
   43CHL1   H4A 3114   2.059   6.050   7.008  2.0891  0.0727 -1.7307
   43CHL1   H4B 3115   2.121   6.218   6.992  0.6125 -0.3779  0.7241
   43CHL1    C5 3116   2.067   6.165   7.198  0.0763  0.2662 -0.1283
   43CHL1    C6 3117   2.165   6.237   7.257  0.4621  0.1508  0.0508
   43CHL1    H6 3118   2.228   6.297   7.190 -1.1300  2.2562  0.3886
   43CHL1    C7 3119   2.183   6.248   7.402  0.2586 -0.1699 -0.2774
   43CHL1   H7A 3120   2.291   6.242   7.428  0.3720  1.1453 -0.4276
   43CHL1   H7B 3121   2.145   6.349   7.428 -1.7975 -0.9905 -0.0290
   43CHL1    C8 3122   2.087   6.159   7.483 -0.9025  0.3038 -0.3521
   43CHL1    H8 3123   2.130   6.057   7.487 -2.2160 -0.2697 -0.6037
   43CHL1   C14 3124   2.069   6.217   7.622 -0.0663 -0.6808  0.1347
   43CHL1   H14 3125   2.004   6.307   7.620 -0.8070 -1.1943  1.1192
   43CHL1   C15 3126   2.197   6.253   7.691 -0.1063 -0.1127  0.5670
   43CHL1  H15A 3127   2.270   6.172   7.668  0.7192  0.9134 -0.4995
   43CHL1  H15B 3128   2.244   6.347   7.656 -0.8212  0.2240  0.5097
   43CHL1   C16 3129   2.138   6.267   7.835 -0.0972 -0.4156 -0.2044
   43CHL1  H16A 3130   2.203   6.202   7.897 -0.9631 -0.4071  0.7166
   43CHL1  H16B 3131   2.139   6.371   7.874 -1.6135  0.0548 -1.3471
   43CHL1   C17 3132   1.992   6.204   7.836 -0.4470 -0.0749 -0.3757
   43CHL1   H17 3133   1.919   6.288   7.834 -0.1771  0.1349 -2.7992
   43CHL1   C13 3134   1.990   6.124   7.708 -0.4174 -0.7917  1.0217
   43CHL1   C18 3135   2.068   5.993   7.733  0.7500 -0.2738 -0.0157
   43CHL1  H18A 3136   2.017   5.933   7.811  0.6724  0.6271  0.6390
   43CHL1  H18B 3137   2.071   5.921   7.649  0.8065  1.2348 -1.3440
   43CHL1  H18C 3138   2.175   6.010   7.757  1.0420  0.3353 -1.6494
   43CHL1   C12 3139   1.852   6.100   7.644  1.1519 -0.0523 -0.4681
   43CHL1  H12A 3140   1.793   6.034   7.710  1.4939  2.7584  2.8204
   43CHL1  H12B 3141   1.807   6.201   7.655 -0.7923 -0.8941 -0.5544
   43CHL1   C11 3142   1.861   6.049   7.505  0.5353  0.0800  0.0714
   43CHL1  H11A 3143   1.905   5.947   7.508  0.2310 -0.0792 -0.7855
   43CHL1  H11B 3144   1.758   6.034   7.465  0.3960  1.6864 -0.2349
   43CHL1    C9 3145   1.953   6.143   7.421 -0.1280  0.0015  0.4961
   43CHL1    H9 3146   1.910   6.245   7.426  0.5433  0.2986  0.2238
   43CHL1   C10 3147   1.954   6.100   7.276  0.2864 -0.2102 -0.5604
   43CHL1   C19 3148   1.997   5.948   7.272  0.2984  1.0687 -0.4414
   43CHL1  H19A 3149   2.097   5.932   7.317  0.7227 -2.2775 -2.3810
   43CHL1  H19B 3150   1.917   5.881   7.311  0.0455  0.8177 -1.3687
   43CHL1  H19C 3151   2.000   5.913   7.166 -0.2077  2.4691 -0.9305
   43CHL1    C1 3152   1.808   6.122   7.210 -0.2440 -0.3728 -0.0626
   43CHL1   H1A 3153   1.728   6.055   7.248  0.6909 -0.8440  1.0864
   43CHL1   H1B 3154   1.775   6.222   7.246  2.0048  0.6641 -0.7791
   43CHL1    C2 3155   1.801   6.120   7.058 -0.3428 -0.1119  0.5857
   43CHL1   H2A 3156   1.704   6.154   7.018  0.1781  2.5138  1.4270
   43CHL1   H2B 3157   1.815   6.013   7.032  1.5196  0.3356 -0.4039
   43CHL1   C20 3158   1.973   6.139   7.982 -0.0507 -0.7010  0.4773
   43CHL1   H20 3159   2.056   6.065   7.992 -0.7493 -1.4992  0.3677
   43CHL1   C21 3160   1.839   6.065   7.985 -0.5303  0.0170 -0.5024
   43CHL1  H21A 3161   1.749   6.129   7.972 -0.2956  0.6520  0.8819
   43CHL1  H21B 3162   1.839   6.005   8.079  1.3931  1.2584  0.3277
   43CHL1  H21C 3163   1.838   5.985   7.909  0.1067 -1.3553  0.8977
   43CHL1   C22 3164   1.980   6.249   8.085  0.1374 -0.7699  0.1238
   43CHL1  H22A 3165   2.079   6.299   8.087  1.2358 -2.9354  2.5797
   43CHL1  H22B 3166   1.919   6.340   8.064 -0.1182 -1.3985 -1.9650
   43CHL1   C23 3167   1.963   6.193   8.229 -0.4661 -0.3281  0.0511
   43CHL1  H23A 3168   1.855   6.194   8.253 -0.3049  0.7056  0.7375
   43CHL1  H23B 3169   2.010   6.092   8.244 -2.8963 -1.3077  1.3283
   43CHL1   C24 3170   2.033   6.285   8.335 -0.6329  0.1749 -0.3656
   43CHL1  H24A 3171   1.983   6.383   8.344  0.4764  0.8503 -1.3784
   43CHL1  H24B 3172   2.014   6.227   8.428 -0.0966  1.0231  0.2721
   43CHL1   C25 3173   2.186   6.321   8.327 -0.1893 -0.1083 -0.4091
   43CHL1   H25 3174   2.194   6.369   8.227 -2.6543 -0.6145 -0.8839
   43CHL1   C26 3175   2.229   6.422   8.438 -0.1539 -0.1585 -0.5984
   43CHL1  H26A 3176   2.327   6.468   8.412 -0.4674  0.7019 -0.2720
   43CHL1  H26B 3177   2.158   6.506   8.444 -0.2291 -0.2683  0.1245
   43CHL1  H26C 3178   2.225   6.366   8.534  5.3289  1.0174  0.4933
   43CHL1   C27 3179   2.269   6.189   8.332 -0.2075  0.1090  0.2838
   43CHL1  H27A 3180   2.261   6.126   8.240  1.6752  0.2737 -0.0222
   43CHL1  H27B 3181   2.378   6.212   8.329 -0.4595  1.2128 -2.2422
   43CHL1  H27C 3182   2.256   6.146   8.433  3.5964 -1.2096  0.2882
   44CHL1    C3 3183   2.019   4.253   6.657  0.0317 -0.0372  0.1310
   44CHL1    H3 3184   2.081   4.170   6.697 -1.1807 -2.8666 -3.5716
   44CHL1    O3 3185   2.008   4.245   6.512  0.3072  0.2527  0.5053
   44CHL1   H3' 3186   1.943   4.312   6.493  1.0071  0.3863 -1.5180
   44CHL1    C4 3187   1.876   4.236   6.722 -0.7481 -0.3429  0.7936
   44CHL1   H4A 3188   1.811   4.319   6.688 -0.1521 -0.3442 -0.3757
   44CHL1   H4B 3189   1.836   4.136   6.695  1.4839 -1.7124  2.3872
   44CHL1    C5 3190   1.902   4.238   6.870  0.3423 -0.3459 -0.1252
   44CHL1    C6 3191   1.861   4.131   6.947  1.3064 -0.1179  0.5514
   44CHL1    H6 3192   1.816   4.047   6.892  1.2485 -0.9800  1.8970
   44CHL1    C7 3193   1.869   4.124   7.098 -0.6642  0.3395 -0.5698
   44CHL1   H7A 3194   1.767   4.110   7.141  1.2003 -3.4675  2.8979
   44CHL1   H7B 3195   1.938   4.043   7.128 -1.9649 -0.4964  0.2207
   44CHL1    C8 3196   1.927   4.254   7.165 -0.5643  0.5739 -0.1701
   44CHL1    H8 3197   1.840   4.323   7.168 -0.0591  1.3832 -2.8425
   44CHL1   C14 3198   1.974   4.227   7.308  0.5398 -0.0669 -0.2699
   44CHL1   H14 3199   2.072   4.178   7.292  0.8156  0.1784  0.6661
   44CHL1   C15 3200   1.892   4.131   7.397  0.0578  0.4798 -0.7927
   44CHL1  H15A 3201   1.786   4.163   7.392 -0.7962 -2.2528 -0.7648
   44CHL1  H15B 3202   1.904   4.023   7.375 -0.2204  0.1504  0.6007
   44CHL1   C16 3203   1.947   4.162   7.541  0.6414  0.3104 -0.2863
   44CHL1  H16A 3204   1.862   4.195   7.603 -0.7504 -3.6172  0.0890
   44CHL1  H16B 3205   1.990   4.071   7.589 -1.4059 -0.7227 -0.3355
   44CHL1   C17 3206   2.048   4.282   7.527 -0.6236 -0.0454  0.4710
   44CHL1   H17 3207   2.149   4.241   7.506 -1.7401 -2.5064 -0.3678
   44CHL1   C13 3208   1.997   4.350   7.395 -0.4017 -0.1969  0.1577
   44CHL1   C18 3209   1.865   4.430   7.421 -0.1148  1.0467 -0.3569
   44CHL1  H18A 3210   1.798   4.385   7.498  1.7269  1.7833  1.7263
   44CHL1  H18B 3211   1.879   4.532   7.462  3.0784  0.8308 -0.8011
   44CHL1  H18C 3212   1.808   4.434   7.325  1.8355  2.1355 -1.4971
   44CHL1   C12 3213   2.103   4.436   7.316  0.1094 -0.2249  0.6869
   44CHL1  H12A 3214   2.120   4.534   7.366  1.0352  0.1201 -0.2732
   44CHL1  H12B 3215   2.199   4.380   7.314  0.4993  0.4555 -0.4348
   44CHL1   C11 3216   2.062   4.462   7.161  0.4841 -0.3548 -0.1682
   44CHL1  H11A 3217   1.975   4.531   7.170  0.9319  0.0621  0.9912
   44CHL1  H11B 3218   2.149   4.519   7.122 -0.9146  1.8884 -0.1347
   44CHL1    C9 3219   2.025   4.336   7.077  0.2261  0.2027  0.0345
   44CHL1    H9 3220   2.116   4.272   7.077 -0.0966 -0.2675  0.8531
   44CHL1   C10 3221   1.972   4.361   6.936  0.2399  0.0295  0.2224
   44CHL1   C19 3222   1.870   4.480   6.933  0.0676  0.4397  0.0291
   44CHL1  H19A 3223   1.822   4.482   6.832 -0.6227 -0.9954  0.3080
   44CHL1  H19B 3224   1.789   4.466   7.008  2.0747  0.4616  2.2294
   44CHL1  H19C 3225   1.929   4.570   6.959  3.2821 -1.5652 -0.0847
   44CHL1    C1 3226   2.093   4.401   6.851 -0.3652 -0.1891  0.2952
   44CHL1   H1A 3227   2.132   4.496   6.894 -2.3618  1.1027 -0.6831
   44CHL1   H1B 3228   2.175   4.332   6.880  1.3644  1.2474 -1.0681
   44CHL1    C2 3229   2.078   4.390   6.695  0.4004 -0.9445  0.2089
   44CHL1   H2A 3230   2.178   4.403   6.648  0.1904 -1.6174 -0.4215
   44CHL1   H2B 3231   2.005   4.470   6.671 -0.1566 -1.5808 -0.2323
   44CHL1   C20 3232   2.060   4.373   7.649  1.1331 -0.3175 -0.5867
   44CHL1   H20 3233   1.959   4.416   7.663  1.7856  1.2371 -0.5395
   44CHL1   C21 3234   2.153   4.496   7.632 -0.3572  0.0426 -0.6727
   44CHL1  H21A 3235   2.181   4.542   7.730 -0.4841  1.3380 -1.2346
   44CHL1  H21B 3236   2.120   4.567   7.553  0.1987 -0.9026 -1.7679
   44CHL1  H21C 3237   2.253   4.462   7.597 -0.2739 -0.1178 -0.2777
   44CHL1   C22 3238   2.103   4.290   7.765  0.3825 -0.2814  0.0942
   44CHL1  H22A 3239   2.040   4.201   7.781 -0.7895  0.7300  1.2693
   44CHL1  H22B 3240   2.201   4.245   7.737  1.5740  2.2249  0.0569
   44CHL1   C23 3241   2.127   4.356   7.904 -0.2014  0.9740  0.2062
   44CHL1  H23A 3242   2.183   4.451   7.894  0.5741  0.4856 -0.1468
   44CHL1  H23B 3243   2.027   4.375   7.947 -0.6921  1.6378 -1.1940
   44CHL1   C24 3244   2.209   4.257   7.992  0.5825  0.0615  0.1593
   44CHL1  H24A 3245   2.175   4.153   7.977  1.1179 -0.1125  0.1385
   44CHL1  H24B 3246   2.310   4.252   7.946 -0.5922 -0.2404 -2.4557
   44CHL1   C25 3247   2.205   4.304   8.140 -0.0006 -0.3163 -0.9584
   44CHL1   H25 3248   2.210   4.415   8.137 -1.2330 -0.1554  1.6501
   44CHL1   C26 3249   2.072   4.261   8.212  0.1821 -0.2338  0.2576
   44CHL1  H26A 3250   2.076   4.299   8.316 -1.0549 -0.7802  0.5063
   44CHL1  H26B 3251   1.990   4.318   8.163  0.2805 -0.6158 -0.3599
   44CHL1  H26C 3252   2.050   4.153   8.226 -0.3491 -0.1362  0.1640
   44CHL1   C27 3253   2.326   4.244   8.224  0.0090 -0.6042  1.0910
   44CHL1  H27A 3254   2.335   4.134   8.207 -0.2207 -0.3096 -1.0745
   44CHL1  H27B 3255   2.409   4.298   8.172 -0.4163 -0.0223  1.0122
   44CHL1  H27C 3256   2.316   4.263   8.333 -2.2475 -2.2909  1.2254
   45CHL1    C3 3257   3.150   2.430   6.942 -0.1206  0.2131  0.0780
   45CHL1    H3 3258   3.232   2.372   6.990  0.1953 -1.4448 -2.3771
   45CHL1    O3 3259   3.175   2.451   6.804  0.1094  0.2522 -0.2138
   45CHL1   H3' 3260   3.088   2.467   6.767 -0.0299  0.6673  0.2870
   45CHL1    C4 3261   3.007   2.369   6.958  0.0305 -0.5002  0.0679
   45CHL1   H4A 3262   2.931   2.437   6.913  0.2378  0.0331  0.5109
   45CHL1   H4B 3263   3.011   2.269   6.909 -1.6432 -0.6063  0.1273
   45CHL1    C5 3264   2.968   2.340   7.102  0.2072  0.0793  0.2593
   45CHL1    C6 3265   2.938   2.224   7.151 -0.2602  0.5420 -0.3526
   45CHL1    H6 3266   2.929   2.134   7.088 -0.5371 -0.1011  0.6041
   45CHL1    C7 3267   2.894   2.189   7.292 -1.1318  0.0498  0.1335
   45CHL1   H7A 3268   2.807   2.121   7.286 -0.0224 -1.5751  1.8404
   45CHL1   H7B 3269   2.979   2.141   7.344 -1.2699  1.3059  1.5463
   45CHL1    C8 3270   2.861   2.320   7.368 -0.3955 -0.5808 -0.0599
   45CHL1    H8 3271   2.753   2.339   7.349 -0.0849 -1.9392 -3.6051
   45CHL1   C14 3272   2.860   2.295   7.515 -0.5818  0.6360 -0.1602
   45CHL1   H14 3273   2.965   2.270   7.543  0.3219  1.0092 -3.0784
   45CHL1   C15 3274   2.788   2.169   7.558  0.5085 -0.1978 -0.0069
   45CHL1  H15A 3275   2.681   2.190   7.534  0.6817 -0.1975 -0.8232
   45CHL1  H15B 3276   2.821   2.071   7.517  3.2104  0.8120 -0.3704
   45CHL1   C16 3277   2.789   2.184   7.710 -0.4249 -0.5125  0.2640
   45CHL1  H16A 3278   2.693   2.153   7.756 -0.4365 -1.4757 -0.4017
   45CHL1  H16B 3279   2.858   2.113   7.760 -1.9735 -1.3168  1.3279
   45CHL1   C17 3280   2.842   2.332   7.740 -0.4799  0.3719 -0.5875
   45CHL1   H17 3281   2.950   2.317   7.760 -0.8387 -1.0495  0.3567
   45CHL1   C13 3282   2.824   2.410   7.608  0.5798  0.9032  0.1345
   45CHL1   C18 3283   2.678   2.460   7.597  0.5797 -0.6086  0.0928
   45CHL1  H18A 3284   2.602   2.388   7.635  0.0434 -1.1236 -1.9041
   45CHL1  H18B 3285   2.668   2.559   7.647  1.3051 -0.1640 -0.6516
   45CHL1  H18C 3286   2.646   2.470   7.491 -0.7987 -1.8243  0.3722
   45CHL1   C12 3287   2.929   2.524   7.575 -0.2949 -0.6499  0.1501
   45CHL1  H12A 3288   2.894   2.619   7.621  0.8543 -0.3735  0.4956
   45CHL1  H12B 3289   3.030   2.504   7.618  0.9526  1.5920 -1.5988
   45CHL1   C11 3290   2.939   2.557   7.425 -0.5570 -0.3546 -0.4219
   45CHL1  H11A 3291   2.843   2.610   7.410 -0.3994  0.2926  0.8065
   45CHL1  H11B 3292   3.026   2.626   7.419 -1.4050  0.6906 -0.8404
   45CHL1    C9 3293   2.963   2.432   7.332  0.1726  0.2258 -0.5636
   45CHL1    H9 3294   3.064   2.389   7.349  0.8529  1.3380 -1.6915
   45CHL1   C10 3295   2.969   2.468   7.184 -0.1878 -0.0933 -0.6429
   45CHL1   C19 3296   2.843   2.554   7.145 -0.4483 -0.4607 -0.7202
   45CHL1  H19A 3297   2.854   2.647   7.205 -0.0492 -1.7681  1.3130
   45CHL1  H19B 3298   2.838   2.574   7.036 -0.5943 -2.0857 -1.0231
   45CHL1  H19C 3299   2.748   2.506   7.179 -1.2512  2.3923  1.3312
   45CHL1    C1 3300   3.098   2.546   7.153  0.0412  0.2676  0.4602
   45CHL1   H1A 3301   3.107   2.638   7.215  2.9348 -0.4658  1.1990
   45CHL1   H1B 3302   3.183   2.480   7.180  0.3147 -0.1526 -1.3506
   45CHL1    C2 3303   3.150   2.566   7.008  0.4094 -0.7514 -0.5463
   45CHL1   H2A 3304   3.250   2.614   7.009 -0.1935  0.5289 -0.4867
   45CHL1   H2B 3305   3.085   2.636   6.950 -0.6493 -0.1122  1.3694
   45CHL1   C20 3306   2.790   2.393   7.871  0.4844 -0.3634  0.2852
   45CHL1   H20 3307   2.679   2.393   7.869  0.4773  1.2459  0.1262
   45CHL1   C21 3308   2.849   2.539   7.894 -0.0876  0.2197  0.3392
   45CHL1  H21A 3309   2.819   2.578   7.994 -1.8734 -1.7566  0.5975
   45CHL1  H21B 3310   2.814   2.600   7.808 -2.5292  1.1976  1.9703
   45CHL1  H21C 3311   2.960   2.535   7.897  0.0846  1.2846 -3.0278
   45CHL1   C22 3312   2.841   2.302   7.991  0.0228  0.7987 -0.0758
   45CHL1  H22A 3313   2.828   2.198   7.955  0.4691 -0.2898  2.8126
   45CHL1  H22B 3314   2.946   2.332   8.012  0.8598 -1.4154 -0.9484
   45CHL1   C23 3315   2.762   2.314   8.128  0.2815 -1.1528  0.3190
   45CHL1  H23A 3316   2.756   2.422   8.152 -0.0585 -1.5458  2.0623
   45CHL1  H23B 3317   2.662   2.268   8.112 -0.2495  0.6264 -1.7156
   45CHL1   C24 3318   2.835   2.249   8.251  0.0438  0.0601  0.0566
   45CHL1  H24A 3319   2.865   2.143   8.234 -0.5253  0.0713 -1.0609
   45CHL1  H24B 3320   2.924   2.313   8.270 -0.2340  0.3390  0.4266
   45CHL1   C25 3321   2.760   2.249   8.384  0.3569  0.1352  0.7655
   45CHL1   H25 3322   2.661   2.202   8.365  1.9981 -2.4558 -1.9508
   45CHL1   C26 3323   2.836   2.165   8.484  0.3112 -0.4604 -0.2754
   45CHL1  H26A 3324   2.797   2.167   8.588 -1.6650  0.8690 -1.0289
   45CHL1  H26B 3325   2.839   2.061   8.445  1.4301 -0.4706 -0.1812
   45CHL1  H26C 3326   2.941   2.201   8.488  0.5272 -1.0935 -0.1870
   45CHL1   C27 3327   2.734   2.389   8.437 -0.0694 -0.2619 -0.1522
   45CHL1  H27A 3328   2.825   2.443   8.472 -0.0500 -0.5075  0.1785
   45CHL1  H27B 3329   2.693   2.456   8.359 -0.6016 -0.2678  0.1173
   45CHL1  H27C 3330   2.657   2.382   8.518  0.9603 -0.8008  0.7995
   46CHL1    C3 3331   2.886   4.038   7.175 -0.2496  0.6317 -0.0399
   46CHL1    H3 3332   2.832   4.126   7.217 -0.0789 -0.0946  1.7433
   46CHL1    O3 3333   2.902   4.058   7.036  0.0559 -0.6013 -0.3903
   46CHL1   H3' 3334   2.952   3.984   7.001 -0.7143 -0.7772 -1.1389
   46CHL1    C4 3335   3.031   4.031   7.241  0.2052  0.0909 -0.2161
   46CHL1   H4A 3336   3.086   3.953   7.183 -1.5448 -0.6088 -0.9628
   46CHL1   H4B 3337   3.080   4.127   7.214  1.0157 -0.7051 -1.6650
   46CHL1    C5 3338   3.014   4.008   7.386 -0.1271  0.2288 -0.0300
   46CHL1    C6 3339   3.060   4.099   7.473  0.5777  0.7484 -0.2235
   46CHL1    H6 3340   3.117   4.189   7.447  0.5950  1.2610  1.5080
   46CHL1    C7 3341   3.053   4.079   7.625  0.0736 -0.2203 -0.0248
   46CHL1   H7A 3342   3.149   4.104   7.674  1.0832 -0.4779 -1.8423
   46CHL1   H7B 3343   2.975   4.139   7.676  0.2855  2.2808 -2.5417
   46CHL1    C8 3344   3.035   3.924   7.654 -0.7559 -0.3806  0.7831
   46CHL1    H8 3345   3.125   3.871   7.615  1.4064  2.2773  2.0378
   46CHL1   C14 3346   3.009   3.904   7.802 -0.1513 -0.5916  0.4080
   46CHL1   H14 3347   2.912   3.953   7.825 -0.3548 -0.4985 -0.6097
   46CHL1   C15 3348   3.109   3.952   7.915 -0.3301  0.2210  1.6073
   46CHL1  H15A 3349   3.213   3.951   7.877 -1.4142 -0.1520 -1.4271
   46CHL1  H15B 3350   3.095   4.058   7.947  2.7414  0.9431  0.7948
   46CHL1   C16 3351   3.092   3.863   8.040 -0.1737 -0.7199 -0.0507
   46CHL1  H16A 3352   3.187   3.805   8.046  0.6243  0.3517 -2.0436
   46CHL1  H16B 3353   3.067   3.926   8.128  0.6989 -2.5501  1.5487
   46CHL1   C17 3354   2.978   3.768   7.992  0.0890 -0.0423 -0.3354
   46CHL1   H17 3355   2.892   3.836   8.010  0.4842  0.2116  0.6059
   46CHL1   C13 3356   2.985   3.759   7.840 -0.3106 -0.2948 -0.6209
   46CHL1   C18 3357   3.105   3.667   7.808 -0.7674  0.3716 -0.0834
   46CHL1  H18A 3358   3.189   3.689   7.876 -1.5821  0.8622  0.7813
   46CHL1  H18B 3359   3.084   3.561   7.833  0.7550  0.5817  2.2243
   46CHL1  H18C 3360   3.146   3.685   7.706 -0.2190 -0.8220 -0.0817
   46CHL1   C12 3361   2.858   3.716   7.764  0.1593 -0.2842 -0.5461
   46CHL1  H12A 3362   2.824   3.612   7.786 -1.4468  0.4057  0.3024
   46CHL1  H12B 3363   2.773   3.782   7.792  0.3043 -0.1537 -0.4119
   46CHL1   C11 3364   2.873   3.719   7.614 -0.5643 -0.2943 -0.7155
   46CHL1  H11A 3365   2.940   3.639   7.576  0.1815 -0.4166  0.8243
   46CHL1  H11B 3366   2.771   3.704   7.573 -2.5520  2.8386  2.7339
   46CHL1    C9 3367   2.919   3.865   7.572 -0.0131 -0.7217 -0.6666
   46CHL1    H9 3368   2.837   3.934   7.601 -0.2689 -1.4569  0.4009
   46CHL1   C10 3369   2.941   3.873   7.419 -0.1466 -0.1536 -0.3036
   46CHL1   C19 3370   3.025   3.751   7.373  0.0526  0.2884  0.2019
   46CHL1  H19A 3371   2.965   3.658   7.369 -1.5524  1.3363 -0.4991
   46CHL1  H19B 3372   3.057   3.759   7.266 -3.0579 -1.1148 -0.8979
   46CHL1  H19C 3373   3.117   3.747   7.436  0.5362  1.2795 -0.4156
   46CHL1    C1 3374   2.801   3.873   7.349 -0.6775 -0.2146  0.6899
   46CHL1   H1A 3375   2.743   3.783   7.377  1.5024 -1.2080  2.1771
   46CHL1   H1B 3376   2.750   3.960   7.396  1.0158 -0.6944  3.4968
   46CHL1    C2 3377   2.805   3.916   7.197 -0.2508  0.7975  0.2840
   46CHL1   H2A 3378   2.701   3.941   7.169 -0.2534 -1.9553 -2.4254
   46CHL1   H2B 3379   2.840   3.823   7.148 -0.3019  1.2771 -0.6744
   46CHL1   C20 3380   2.955   3.638   8.070 -0.6487  0.3267  0.0687
   46CHL1   H20 3381   2.954   3.557   7.995  0.5395 -0.1603  0.5519
   46CHL1   C21 3382   2.819   3.654   8.133  0.6681  0.6209  0.4486
   46CHL1  H21A 3383   2.826   3.740   8.203 -0.9229 -1.6021  3.4572
   46CHL1  H21B 3384   2.787   3.565   8.192  0.5862  0.3825  0.0428
   46CHL1  H21C 3385   2.737   3.665   8.059  0.2848 -1.0642  0.6093
   46CHL1   C22 3386   3.065   3.603   8.178 -0.7604  0.1850 -0.2078
   46CHL1  H22A 3387   3.154   3.595   8.112 -0.2017  1.7789  0.3415
   46CHL1  H22B 3388   3.076   3.684   8.252 -1.3343  0.3832 -0.3365
   46CHL1   C23 3389   3.042   3.476   8.251  0.6231  0.0748  0.1588
   46CHL1  H23A 3390   2.932   3.465   8.258  0.5841  1.3167  1.9142
   46CHL1  H23B 3391   3.068   3.384   8.195  0.3584  0.8794 -1.2834
   46CHL1   C24 3392   3.109   3.484   8.395 -0.1528  0.1937 -0.1219
   46CHL1  H24A 3393   3.215   3.512   8.377 -0.6501  2.3233  0.1482
   46CHL1  H24B 3394   3.064   3.570   8.449  2.4127 -0.0078  2.5088
   46CHL1   C25 3395   3.095   3.355   8.484 -0.1635 -0.6262 -0.1956
   46CHL1   H25 3396   2.984   3.351   8.478 -0.1088 -1.0562 -1.0059
   46CHL1   C26 3397   3.164   3.230   8.412  0.4637 -0.5329 -0.7255
   46CHL1  H26A 3398   3.111   3.203   8.318  2.2728  1.2711 -2.3054
   46CHL1  H26B 3399   3.268   3.269   8.408  0.6198 -0.7865  0.5782
   46CHL1  H26C 3400   3.159   3.141   8.479  2.0916  0.4071  0.6664
   46CHL1   C27 3401   3.148   3.363   8.630  0.8524 -0.0453 -0.4541
   46CHL1  H27A 3402   3.258   3.359   8.641  0.5033 -0.8664  3.1844
   46CHL1  H27B 3403   3.111   3.453   8.683  2.6296  1.7095 -2.1226
   46CHL1  H27C 3404   3.122   3.274   8.692 -1.8934  1.4366  0.6129
   47CHL1    C3 3405   2.283   3.707   6.730  0.3493  0.7995  0.3277
   47CHL1    H3 3406   2.369   3.637   6.743  0.4016  0.9496  0.7977
   47CHL1    O3 3407   2.241   3.722   6.596 -0.1111 -0.1060  0.5442
   47CHL1   H3' 3408   2.162   3.775   6.601  0.2883  1.1706 -4.3930
   47CHL1    C4 3409   2.164   3.649   6.803 -0.0737  0.0437 -0.3222
   47CHL1   H4A 3410   2.065   3.694   6.779  0.4178  1.0852 -0.4198
   47CHL1   H4B 3411   2.148   3.550   6.754  2.6351 -1.2053  1.1705
   47CHL1    C5 3412   2.177   3.644   6.956 -0.0141  0.4970  0.0753
   47CHL1    C6 3413   2.151   3.540   7.029 -0.2704  0.0747 -0.0415
   47CHL1    H6 3414   2.135   3.440   6.987  0.1587  0.8144 -2.0391
   47CHL1    C7 3415   2.163   3.533   7.180  0.4075 -0.0441  0.1153
   47CHL1   H7A 3416   2.064   3.506   7.222 -0.6683  1.9867 -1.0441
   47CHL1   H7B 3417   2.229   3.450   7.214 -0.3016 -1.2529 -1.3790
   47CHL1    C8 3418   2.199   3.667   7.241 -0.2181 -1.1130 -0.0032
   47CHL1    H8 3419   2.106   3.725   7.255  0.2480  0.2688 -2.4352
   47CHL1   C14 3420   2.261   3.644   7.372 -0.6878 -0.0636 -0.2810
   47CHL1   H14 3421   2.358   3.596   7.348 -0.7813  0.1522 -1.1113
   47CHL1   C15 3422   2.183   3.564   7.476 -0.1351  0.2466  0.0507
   47CHL1  H15A 3423   2.078   3.596   7.459 -1.3012 -3.0643  0.7108
   47CHL1  H15B 3424   2.187   3.453   7.473 -0.8206  0.2449 -1.0252
   47CHL1   C16 3425   2.241   3.602   7.614 -0.4779  0.6494  0.0127
   47CHL1  H16A 3426   2.164   3.642   7.684 -0.7911 -0.3653  0.2565
   47CHL1  H16B 3427   2.290   3.518   7.669 -2.3212 -0.0184  0.6638
   47CHL1   C17 3428   2.347   3.710   7.586  0.4425  0.6269 -0.2146
   47CHL1   H17 3429   2.439   3.649   7.579 -0.1299 -0.8106  3.4782
   47CHL1   C13 3430   2.304   3.772   7.451 -0.1255  0.1937 -1.0777
   47CHL1   C18 3431   2.186   3.872   7.471  0.3791 -0.2498 -0.4140
   47CHL1  H18A 3432   2.233   3.964   7.511  2.0363 -0.4793 -1.7621
   47CHL1  H18B 3433   2.142   3.899   7.372 -0.6159  2.5322  0.7308
   47CHL1  H18C 3434   2.110   3.835   7.544  0.5441  0.2603  0.0180
   47CHL1   C12 3435   2.416   3.842   7.372 -0.4120 -0.4206 -0.0763
   47CHL1  H12A 3436   2.458   3.937   7.411  0.4677  0.4765 -3.1005
   47CHL1  H12B 3437   2.502   3.775   7.352  0.9501  1.0969  0.5798
   47CHL1   C11 3438   2.365   3.873   7.225  0.4855  0.3377  0.0392
   47CHL1  H11A 3439   2.294   3.958   7.216  2.3417  1.9291 -0.0204
   47CHL1  H11B 3440   2.454   3.911   7.170 -0.3790 -0.1826 -1.7320
   47CHL1    C9 3441   2.299   3.751   7.155  0.6354  0.0310 -0.6818
   47CHL1    H9 3442   2.381   3.676   7.149  1.8620  1.0728  2.0524
   47CHL1   C10 3443   2.238   3.776   7.014  0.6608 -0.6540  0.0357
   47CHL1   C19 3444   2.130   3.891   7.014  0.2727  0.4149  0.8788
   47CHL1  H19A 3445   2.197   3.979   7.023 -0.8207  1.2993  0.4614
   47CHL1  H19B 3446   2.073   3.899   6.919  0.8423  0.3267  0.5242
   47CHL1  H19C 3447   2.065   3.880   7.103  0.6234  1.9407  1.3410
   47CHL1    C1 3448   2.359   3.823   6.928 -0.4024  0.2302 -0.2513
   47CHL1   H1A 3449   2.402   3.921   6.958 -1.9862  0.6510  0.7222
   47CHL1   H1B 3450   2.438   3.747   6.946 -1.5435 -0.8636  0.1834
   47CHL1    C2 3451   2.331   3.839   6.780 -0.8365  0.1070  0.0539
   47CHL1   H2A 3452   2.425   3.869   6.729 -2.2529  0.8344 -2.2119
   47CHL1   H2B 3453   2.247   3.909   6.764 -0.1006  1.1289  0.6324
   47CHL1   C20 3454   2.370   3.803   7.711 -0.2528  0.2965  0.4145
   47CHL1   H20 3455   2.276   3.860   7.721 -0.0303  0.8969 -0.8279
   47CHL1   C21 3456   2.491   3.900   7.693  0.0408  0.1519 -0.7044
   47CHL1  H21A 3457   2.497   3.974   7.776 -0.5128 -0.6246  0.0418
   47CHL1  H21B 3458   2.490   3.972   7.608 -2.6352 -0.8332 -1.5775
   47CHL1  H21C 3459   2.586   3.843   7.687  2.7483  4.1246  1.6581
   47CHL1   C22 3460   2.382   3.712   7.835 -0.2651  0.5972  0.0191
   47CHL1  H22A 3461   2.296   3.644   7.858  0.2434  0.8061  2.7177
   47CHL1  H22B 3462   2.484   3.669   7.842 -0.6397 -0.2302  0.4825
   47CHL1   C23 3463   2.378   3.803   7.960 -0.1485  0.4316  0.6272
   47CHL1  H23A 3464   2.477   3.851   7.973  0.6473 -0.9673 -0.0591
   47CHL1  H23B 3465   2.296   3.877   7.951 -0.3200  0.2612  0.7962
   47CHL1   C24 3466   2.342   3.720   8.080  0.2576 -0.0061 -0.0415
   47CHL1  H24A 3467   2.234   3.695   8.084  0.2832  0.0305  1.0152
   47CHL1  H24B 3468   2.391   3.620   8.072  2.7434  1.2877 -1.6935
   47CHL1   C25 3469   2.383   3.782   8.221  0.1558 -0.0893 -0.1803
   47CHL1   H25 3470   2.354   3.889   8.223 -0.2454 -0.1812 -0.7544
   47CHL1   C26 3471   2.308   3.696   8.330 -0.1962 -0.6427  0.2746
   47CHL1  H26A 3472   2.198   3.718   8.328 -0.1602 -0.3890  0.9373
   47CHL1  H26B 3473   2.333   3.591   8.307 -0.1597 -0.4765 -0.4619
   47CHL1  H26C 3474   2.346   3.719   8.432  0.3399  1.6182 -0.3986
   47CHL1   C27 3475   2.534   3.787   8.253 -0.4411 -0.4327  1.1964
   47CHL1  H27A 3476   2.595   3.827   8.170 -0.1858 -2.1449  0.5536
   47CHL1  H27B 3477   2.560   3.842   8.346  1.0726  0.7815  0.0740
   47CHL1  H27C 3478   2.577   3.689   8.284  0.5534 -1.0040 -1.8719
   48CHL1    C3 3479   5.735   6.380   6.328 -0.4436 -0.1550  0.3920
   48CHL1    H3 3480   5.846   6.391   6.331 -0.5455  0.6679  3.9815
   48CHL1    O3 3481   5.693   6.367   6.193  0.0348 -0.3894  0.4772
   48CHL1   H3' 3482   5.720   6.450   6.154  1.1392 -0.9905 -0.0379
   48CHL1    C4 3483   5.707   6.242   6.402 -0.0002  0.0637  0.2931
   48CHL1   H4A 3484   5.597   6.227   6.398 -0.0043  0.0621  0.3911
   48CHL1   H4B 3485   5.758   6.158   6.351 -3.4116 -0.4367 -2.5056
   48CHL1    C5 3486   5.742   6.243   6.551 -0.1695  0.1300  0.9696
   48CHL1    C6 3487   5.840   6.163   6.595 -0.0739  0.0679 -0.1217
   48CHL1    H6 3488   5.893   6.104   6.519  2.5116  1.3990  0.6133
   48CHL1    C7 3489   5.879   6.145   6.742  0.5612 -0.4250 -0.3157
   48CHL1   H7A 3490   5.877   6.037   6.770 -3.3950  0.3814  2.9090
   48CHL1   H7B 3491   5.980   6.188   6.752 -0.3987  2.0590 -0.8425
   48CHL1    C8 3492   5.777   6.224   6.837 -0.2588  0.0340  0.1043
   48CHL1    H8 3493   5.686   6.160   6.839  0.0422 -0.3649  2.5986
   48CHL1   C14 3494   5.832   6.247   6.974  0.0708 -0.4669 -0.1432
   48CHL1   H14 3495   5.920   6.310   6.948 -1.4845  1.5911 -0.6155
   48CHL1   C15 3496   5.868   6.115   7.051 -0.3350  0.1682 -0.3822
   48CHL1  H15A 3497   5.785   6.041   7.054  0.1209 -0.2800  2.3023
   48CHL1  H15B 3498   5.959   6.070   7.007  0.1315  0.4580  0.2738
   48CHL1   C16 3499   5.887   6.169   7.199  0.5408  0.3486 -0.4658
   48CHL1  H16A 3500   5.845   6.105   7.280  1.1531 -0.3896 -0.7206
   48CHL1  H16B 3501   5.996   6.178   7.221  0.6033  0.2990 -0.7472
   48CHL1   C17 3502   5.840   6.317   7.201 -0.2999 -0.2024  0.2828
   48CHL1   H17 3503   5.929   6.383   7.190  0.5374 -1.2775  0.4477
   48CHL1   C13 3504   5.753   6.331   7.072 -0.4760  0.0077 -0.3695
   48CHL1   C18 3505   5.620   6.265   7.098  0.1989 -0.0971  0.3735
   48CHL1  H18A 3506   5.571   6.237   7.002 -1.1028 -3.5313  1.9526
   48CHL1  H18B 3507   5.634   6.160   7.133 -0.9709 -0.6734 -0.8540
   48CHL1  H18C 3508   5.553   6.331   7.158 -0.2971 -0.3490  0.1000
   48CHL1   C12 3509   5.738   6.473   7.009 -0.1467  0.3219 -0.4598
   48CHL1  H12A 3510   5.672   6.535   7.073 -1.3755 -0.3026 -1.0987
   48CHL1  H12B 3511   5.842   6.512   7.004  0.3079 -0.6816  0.7894
   48CHL1   C11 3512   5.669   6.473   6.866 -0.8150  0.0093 -0.6476
   48CHL1  H11A 3513   5.566   6.439   6.888 -2.1545  1.8769 -3.6906
   48CHL1  H11B 3514   5.661   6.580   6.840 -1.8203  0.3640  1.0315
   48CHL1    C9 3515   5.739   6.366   6.778  0.1659 -0.0298  0.1121
   48CHL1    H9 3516   5.836   6.417   6.758 -2.1729  3.9297 -1.8317
   48CHL1   C10 3517   5.669   6.347   6.635  0.4402 -0.3974 -0.3111
   48CHL1   C19 3518   5.517   6.299   6.647 -0.1342  0.5710  0.8604
   48CHL1  H19A 3519   5.453   6.374   6.699 -2.6481  0.6553 -2.2379
   48CHL1  H19B 3520   5.463   6.287   6.551 -0.0696  0.5062  0.8330
   48CHL1  H19C 3521   5.514   6.206   6.707 -2.0425  1.0483  1.5237
   48CHL1    C1 3522   5.686   6.484   6.558 -0.1788  0.5142 -0.1286
   48CHL1   H1A 3523   5.610   6.551   6.605  2.4338  1.6046  2.7761
   48CHL1   H1B 3524   5.789   6.524   6.570  0.9144 -1.5247 -2.5013
   48CHL1    C2 3525   5.659   6.487   6.405  0.4292 -0.1070 -0.1290
   48CHL1   H2A 3526   5.690   6.582   6.355 -0.5587 -0.1379 -0.8091
   48CHL1   H2B 3527   5.552   6.478   6.376  0.0522  1.5709  0.6667
   48CHL1   C20 3528   5.770   6.342   7.332 -0.1035 -0.4119 -0.1516
   48CHL1   H20 3529   5.689   6.267   7.346 -0.8206  0.2875 -0.5009
   48CHL1   C21 3530   5.712   6.493   7.333  0.3605  0.4716  1.1656
   48CHL1  H21A 3531   5.789   6.557   7.284 -1.0831  3.1248  2.2062
   48CHL1  H21B 3532   5.695   6.540   7.433  2.1520  0.3559  1.5295
   48CHL1  H21C 3533   5.618   6.487   7.274  1.5684  0.8093 -0.8307
   48CHL1   C22 3534   5.859   6.317   7.452 -0.2357 -0.3240 -0.2787
   48CHL1  H22A 3535   5.897   6.213   7.450  0.2451 -0.2164  1.7918
   48CHL1  H22B 3536   5.941   6.391   7.460  0.7248 -1.0650 -2.8876
   48CHL1   C23 3537   5.784   6.319   7.588 -0.3715  0.3603  0.2508
   48CHL1  H23A 3538   5.753   6.423   7.612 -0.1163  0.3741  0.5352
   48CHL1  H23B 3539   5.692   6.258   7.576 -0.4411  0.5182 -0.0120
   48CHL1   C24 3540   5.871   6.267   7.706 -0.1757  0.3859  0.0917
   48CHL1  H24A 3541   5.910   6.165   7.686 -1.9738 -0.3111  0.1113
   48CHL1  H24B 3542   5.960   6.332   7.720 -0.4222  0.9796 -1.0681
   48CHL1   C25 3543   5.802   6.269   7.837  0.2457  0.4304 -0.3528
   48CHL1   H25 3544   5.698   6.230   7.835  0.7474 -0.9978  0.1063
   48CHL1   C26 3545   5.883   6.181   7.937  0.6312  0.2977 -0.7890
   48CHL1  H26A 3546   5.893   6.079   7.895 -0.0653  0.6328 -1.7708
   48CHL1  H26B 3547   5.976   6.239   7.955  0.6196  1.1684 -3.3577
   48CHL1  H26C 3548   5.817   6.168   8.026  1.0337 -2.6255 -0.8545
   48CHL1   C27 3549   5.799   6.414   7.890  0.6522  0.4440 -0.3752
   48CHL1  H27A 3550   5.758   6.432   7.991  0.7727 -0.5513 -0.1458
   48CHL1  H27B 3551   5.900   6.459   7.900  0.9742 -1.0332  3.4133
   48CHL1  H27C 3552   5.742   6.472   7.814 -0.5906  0.0782  0.2686
   49CHL1    C3 3553   5.280   0.974   6.641  0.0312  0.4096 -0.4650
   49CHL1    H3 3554   5.384   0.976   6.681 -0.8308  0.4873  1.8824
   49CHL1    O3 3555   5.280   0.962   6.499 -1.1287 -0.6878 -0.3144
   49CHL1   H3' 3556   5.309   1.047   6.467 -0.5765 -1.0441 -0.7725
   49CHL1    C4 3557   5.206   0.847   6.699 -0.1754 -0.2319  0.0924
   49CHL1   H4A 3558   5.114   0.828   6.640 -0.2076 -0.1072  0.1020
   49CHL1   H4B 3559   5.269   0.756   6.690 -1.9239 -1.3109 -1.5695
   49CHL1    C5 3560   5.182   0.873   6.847  0.3559  0.7862 -0.5837
   49CHL1    C6 3561   5.224   0.778   6.939 -0.5621  0.3004  0.1837
   49CHL1    H6 3562   5.274   0.690   6.897 -0.7742 -0.6327  1.8479
   49CHL1    C7 3563   5.201   0.780   7.086  0.3692  0.5645 -0.2161
   49CHL1   H7A 3564   5.163   0.679   7.110  2.6385  0.1326  1.7870
   49CHL1   H7B 3565   5.301   0.794   7.133  0.3401  1.8785 -0.5178
   49CHL1    C8 3566   5.095   0.884   7.118  0.5502  0.2462  0.4539
   49CHL1    H8 3567   4.998   0.839   7.084 -0.0477  2.1027 -0.3533
   49CHL1   C14 3568   5.097   0.916   7.272  0.5417 -0.1141 -0.0706
   49CHL1   H14 3569   5.198   0.958   7.290  0.1165  1.1719 -0.6340
   49CHL1   C15 3570   5.096   0.795   7.362  0.4049  0.5347  0.2990
   49CHL1  H15A 3571   5.020   0.725   7.321  0.4269  0.1810  0.8527
   49CHL1  H15B 3572   5.197   0.748   7.354 -1.5814 -3.5972 -1.7807
   49CHL1   C16 3573   5.067   0.860   7.498  0.2117 -0.0473  0.0785
   49CHL1  H16A 3574   4.998   0.798   7.560  0.7159 -1.6690 -0.9657
   49CHL1  H16B 3575   5.162   0.858   7.556 -0.9787 -1.3603  2.0537
   49CHL1   C17 3576   5.021   1.004   7.473 -0.1454 -0.1068  0.0968
   49CHL1   H17 3577   5.119   1.053   7.487  0.8060 -1.5187 -1.4710
   49CHL1   C13 3578   4.988   1.012   7.325  0.1693 -0.3593  0.4942
   49CHL1   C18 3579   4.851   0.957   7.294  0.7907  0.5776 -0.0231
   49CHL1  H18A 3580   4.857   0.855   7.336  1.3812 -0.5109 -2.6759
   49CHL1  H18B 3581   4.776   1.014   7.353  1.1474  1.4154 -0.3687
   49CHL1  H18C 3582   4.833   0.955   7.185  0.3481 -0.6320  0.0715
   49CHL1   C12 3583   5.016   1.147   7.262 -0.5937 -0.7227 -0.2575
   49CHL1  H12A 3584   4.937   1.223   7.282  1.1364  1.1390 -0.3278
   49CHL1  H12B 3585   5.117   1.186   7.287 -0.4025  0.7393 -3.0870
   49CHL1   C11 3586   5.025   1.133   7.108 -0.1403 -0.2590  0.2993
   49CHL1  H11A 3587   4.926   1.123   7.057  1.0894  0.3753 -2.2960
   49CHL1  H11B 3588   5.067   1.227   7.067  0.7451 -0.3902  0.9062
   49CHL1    C9 3589   5.115   1.018   7.056 -0.4093  0.2048  0.3500
   49CHL1    H9 3590   5.217   1.042   7.093 -0.0939 -0.8710  0.2008
   49CHL1   C10 3591   5.115   1.004   6.893  0.8906  0.2529 -0.0464
   49CHL1   C19 3592   4.975   1.000   6.829 -0.2247 -0.5747  0.1042
   49CHL1  H19A 3593   4.933   1.103   6.830 -1.7323 -1.1724  0.8473
   49CHL1  H19B 3594   4.980   0.981   6.720 -1.2684  0.0300 -0.0545
   49CHL1  H19C 3595   4.909   0.931   6.887  1.0830 -1.5927  0.3996
   49CHL1    C1 3596   5.193   1.126   6.833  0.4101 -0.4546  0.1837
   49CHL1   H1A 3597   5.153   1.227   6.858  1.4836 -0.4693  2.0426
   49CHL1   H1B 3598   5.297   1.127   6.870  0.1316 -1.1244  0.9935
   49CHL1    C2 3599   5.199   1.106   6.680 -0.1552 -0.8357  0.9812
   49CHL1   H2A 3600   5.266   1.192   6.656  0.1550 -1.3043  0.1508
   49CHL1   H2B 3601   5.102   1.127   6.630  0.2765 -1.1991 -0.0228
   49CHL1   C20 3602   4.920   1.061   7.574  0.1148  0.0103  0.8232
   49CHL1   H20 3603   4.819   1.030   7.540  0.9953 -0.0086 -1.8567
   49CHL1   C21 3604   4.911   1.210   7.575  0.0790  0.7242 -0.5721
   49CHL1  H21A 3605   4.834   1.254   7.642 -0.2494  0.7111 -0.9370
   49CHL1  H21B 3606   4.880   1.252   7.477  0.6612 -1.2575 -1.6250
   49CHL1  H21C 3607   5.004   1.263   7.602  0.9271 -0.2911 -1.4805
   49CHL1   C22 3608   4.937   1.009   7.721  0.0765  0.4962 -0.0966
   49CHL1  H22A 3609   4.844   1.050   7.765 -0.8973 -1.9162  0.2082
   49CHL1  H22B 3610   4.926   0.898   7.717  0.6815  0.4577 -0.7409
   49CHL1   C23 3611   5.063   1.058   7.794  0.1123  0.1855 -0.1750
   49CHL1  H23A 3612   5.153   1.019   7.743 -1.1730  1.3819 -3.4559
   49CHL1  H23B 3613   5.074   1.168   7.789 -0.9007  0.2632 -0.9520
   49CHL1   C24 3614   5.056   0.989   7.935  0.3238 -1.2763 -0.4462
   49CHL1  H24A 3615   5.045   0.880   7.916 -2.8479 -1.1598  0.2941
   49CHL1  H24B 3616   5.154   1.008   7.982 -0.4360 -2.6434  1.7864
   49CHL1   C25 3617   4.945   1.038   8.027  0.1154  0.6990  0.4589
   49CHL1   H25 3618   4.849   1.025   7.972  0.8862 -1.6724 -0.3649
   49CHL1   C26 3619   4.948   0.957   8.152 -0.7565 -0.5380  0.3799
   49CHL1  H26A 3620   5.041   0.963   8.213 -0.7366 -2.4036  0.5615
   49CHL1  H26B 3621   4.868   0.998   8.218 -0.0796 -0.6192  1.2751
   49CHL1  H26C 3622   4.938   0.849   8.130  0.1457 -0.5747  0.1127
   49CHL1   C27 3623   4.973   1.187   8.061 -0.4633  0.3512 -0.1063
   49CHL1  H27A 3624   4.999   1.251   7.974  0.4766  0.2746  0.1200
   49CHL1  H27B 3625   4.900   1.244   8.123  1.2798  0.3110  2.0391
   49CHL1  H27C 3626   5.068   1.182   8.119  0.2484 -0.7665 -1.3612
   50CHL1    C3 3627   5.721   2.094   6.816 -0.4311 -0.4340 -0.2852
   50CHL1    H3 3628   5.808   2.031   6.844 -0.8180 -1.3959 -1.1990
   50CHL1    O3 3629   5.711   2.118   6.675 -0.7479  0.1996  0.0306
   50CHL1   H3' 3630   5.622   2.153   6.670  0.0197  2.1721 -0.1296
   50CHL1    C4 3631   5.602   2.018   6.869 -0.3496  0.3706 -0.3060
   50CHL1   H4A 3632   5.508   2.063   6.832 -0.2831 -1.7283 -3.2365
   50CHL1   H4B 3633   5.598   1.910   6.841  0.3347 -0.1109  1.3920
   50CHL1    C5 3634   5.593   2.016   7.022  0.1206 -0.1916 -0.4536
   50CHL1    C6 3635   5.588   1.898   7.086  0.8588  0.0212 -0.4263
   50CHL1    H6 3636   5.592   1.803   7.030  0.8329  0.2608 -0.8368
   50CHL1    C7 3637   5.583   1.883   7.235 -0.4399  0.3905 -0.1178
   50CHL1   H7A 3638   5.520   1.794   7.260 -1.2623  0.9199 -0.2831
   50CHL1   H7B 3639   5.684   1.855   7.271 -0.1642  2.2952  0.6395
   50CHL1    C8 3640   5.539   2.016   7.315 -0.0746 -0.1016 -0.2084
   50CHL1    H8 3641   5.434   2.027   7.281 -0.4545 -0.2793  0.8909
   50CHL1   C14 3642   5.548   2.010   7.464  0.1379 -0.2813 -0.2313
   50CHL1   H14 3643   5.657   2.002   7.484  0.4011 -0.1212 -1.5560
   50CHL1   C15 3644   5.495   1.887   7.536 -0.1937  0.1971  0.2655
   50CHL1  H15A 3645   5.390   1.861   7.511 -0.5325  0.4809  1.3885
   50CHL1  H15B 3646   5.551   1.791   7.527 -0.1258 -0.0281  2.6837
   50CHL1   C16 3647   5.506   1.932   7.681 -0.3799 -0.3469  0.4510
   50CHL1  H16A 3648   5.405   1.915   7.723 -0.2875  0.1377  0.8770
   50CHL1  H16B 3649   5.588   1.880   7.735  1.0849  0.6557 -0.7560
   50CHL1   C17 3650   5.525   2.087   7.689  0.3492  0.5142  0.1368
   50CHL1   H17 3651   5.631   2.100   7.722  0.8000  2.8251 -2.0876
   50CHL1   C13 3652   5.506   2.129   7.546  0.7314  0.3751 -0.2232
   50CHL1   C18 3653   5.354   2.157   7.516 -0.3965 -0.0421 -0.2774
   50CHL1  H18A 3654   5.313   2.246   7.567 -1.5218 -1.4820  1.4099
   50CHL1  H18B 3655   5.320   2.154   7.411 -0.5305 -3.1708 -0.2169
   50CHL1  H18C 3656   5.298   2.073   7.563  0.4921 -1.3748 -1.5309
   50CHL1   C12 3657   5.589   2.248   7.490 -0.5995  0.3073 -0.4043
   50CHL1  H12A 3658   5.553   2.343   7.536  3.0878  1.0850  1.0194
   50CHL1  H12B 3659   5.696   2.235   7.517 -0.8654  0.1065  0.5803
   50CHL1   C11 3660   5.576   2.265   7.337 -0.4939  0.0332  0.5826
   50CHL1  H11A 3661   5.468   2.290   7.333 -0.7103 -1.1986 -1.7009
   50CHL1  H11B 3662   5.630   2.354   7.299 -0.7977 -0.6648 -1.5801
   50CHL1    C9 3663   5.617   2.135   7.257  0.3628  0.2733  0.6693
   50CHL1    H9 3664   5.722   2.109   7.279 -0.9911 -3.9742  2.6023
   50CHL1   C10 3665   5.602   2.152   7.096  0.2061  0.2862  0.2949
   50CHL1   C19 3666   5.467   2.225   7.065  0.6803  0.5342  0.2682
   50CHL1  H19A 3667   5.383   2.188   7.128 -0.0747 -1.0592 -1.6323
   50CHL1  H19B 3668   5.486   2.328   7.101 -0.1402  0.2760  1.4728
   50CHL1  H19C 3669   5.444   2.225   6.956  0.7888 -1.9912  0.2172
   50CHL1    C1 3670   5.732   2.223   7.040  0.6812  0.1639 -0.1180
   50CHL1   H1A 3671   5.728   2.331   7.068 -1.0762  0.3753 -1.1245
   50CHL1   H1B 3672   5.831   2.181   7.070  1.2676  2.7892  1.8602
   50CHL1    C2 3673   5.734   2.226   6.886  0.5238 -0.2023 -0.7140
   50CHL1   H2A 3674   5.832   2.271   6.860  0.9845 -1.1592 -0.6491
   50CHL1   H2B 3675   5.648   2.292   6.861 -1.5956 -2.4603  0.3909
   50CHL1   C20 3676   5.439   2.153   7.800 -0.1005 -0.3577  0.1699
   50CHL1   H20 3677   5.334   2.125   7.778 -0.0062  0.1360 -0.9872
   50CHL1   C21 3678   5.454   2.306   7.805  0.7660  0.1270  0.1131
   50CHL1  H21A 3679   5.380   2.354   7.873 -2.7044 -1.0909 -2.6743
   50CHL1  H21B 3680   5.442   2.348   7.703 -0.3246  0.6765  0.4595
   50CHL1  H21C 3681   5.560   2.325   7.833  2.0981 -2.8674 -2.6066
   50CHL1   C22 3682   5.480   2.100   7.936 -0.3298 -0.4322 -0.3559
   50CHL1  H22A 3683   5.448   1.994   7.944 -1.4411 -0.0362  0.5222
   50CHL1  H22B 3684   5.590   2.106   7.948 -0.0388 -0.8304 -2.5966
   50CHL1   C23 3685   5.418   2.168   8.062  0.0772 -0.3295 -0.3361
   50CHL1  H23A 3686   5.449   2.119   8.157 -2.0929  0.9134  1.0762
   50CHL1  H23B 3687   5.438   2.277   8.065  1.9143 -0.6808  1.0353
   50CHL1   C24 3688   5.269   2.150   8.080 -0.7402  0.1487 -0.5437
   50CHL1  H24A 3689   5.203   2.197   8.004  0.3612  0.7113 -1.1483
   50CHL1  H24B 3690   5.256   2.040   8.074 -2.5921  0.3070 -0.0057
   50CHL1   C25 3691   5.225   2.214   8.214  0.2259 -1.0800 -0.2480
   50CHL1   H25 3692   5.281   2.182   8.305  1.7772  1.1105 -0.3922
   50CHL1   C26 3693   5.235   2.365   8.209  0.5477  0.0742 -0.2962
   50CHL1  H26A 3694   5.183   2.415   8.294  0.0480  2.1418 -1.7645
   50CHL1  H26B 3695   5.343   2.388   8.215  0.7288  0.0360 -2.8923
   50CHL1  H26C 3696   5.204   2.404   8.110  1.5723 -0.3432 -0.7792
   50CHL1   C27 3697   5.078   2.175   8.238 -0.0201 -0.5331 -0.3595
   50CHL1  H27A 3698   5.034   2.204   8.335  1.0047  1.2877 -0.4189
   50CHL1  H27B 3699   5.007   2.226   8.169  0.2532  2.5142  1.5128
   50CHL1  H27C 3700   5.057   2.066   8.242  0.4412 -0.7013 -1.9293
   51CHL1    C3 3701   5.745   0.789   6.838 -0.1808 -0.2322 -0.0145
   51CHL1    H3 3702   5.825   0.747   6.903  0.0744 -0.2555 -0.3426
   51CHL1    O3 3703   5.761   0.742   6.707  0.3126 -0.0696 -0.5076
   51CHL1   H3' 3704   5.825   0.801   6.666 -0.9042  1.3193 -0.4643
   51CHL1    C4 3705   5.612   0.749   6.894  0.6576  0.1331  0.8564
   51CHL1   H4A 3706   5.526   0.789   6.838  1.5579 -0.2834 -0.8455
   51CHL1   H4B 3707   5.595   0.639   6.887 -1.4094  0.4001  1.4701
   51CHL1    C5 3708   5.598   0.797   7.039 -0.0658  1.0684  0.0821
   51CHL1    C6 3709   5.577   0.704   7.137 -0.0611 -0.0017  0.3010
   51CHL1    H6 3710   5.574   0.597   7.112  0.5849 -0.2502  1.2717
   51CHL1    C7 3711   5.552   0.739   7.275  0.1731 -0.0080 -0.3387
   51CHL1   H7A 3712   5.471   0.678   7.319  1.1974 -0.3771  1.0376
   51CHL1   H7B 3713   5.647   0.711   7.325 -0.9907 -0.3649  1.6995
   51CHL1    C8 3714   5.530   0.897   7.299 -0.7845  0.0182 -0.3783
   51CHL1    H8 3715   5.426   0.922   7.269 -1.0367 -1.5923 -0.9055
   51CHL1   C14 3716   5.562   0.930   7.446  0.0094 -0.0754  0.1261
   51CHL1   H14 3717   5.659   0.880   7.470 -0.6941 -1.7892 -0.4877
   51CHL1   C15 3718   5.475   0.862   7.550  0.4011  0.1977  0.0596
   51CHL1  H15A 3719   5.366   0.872   7.535  0.3253  1.4356  1.3262
   51CHL1  H15B 3720   5.491   0.752   7.549 -1.0202 -0.0186  0.6101
   51CHL1   C16 3721   5.507   0.922   7.688 -0.7225 -0.4954  0.8647
   51CHL1  H16A 3722   5.407   0.958   7.721 -1.0496 -1.4086  0.8944
   51CHL1  H16B 3723   5.554   0.847   7.754  1.4468  1.0145  1.0857
   51CHL1   C17 3724   5.593   1.050   7.651  0.2708  0.6684  1.0782
   51CHL1   H17 3725   5.699   1.019   7.638 -0.0524 -0.1942  0.4686
   51CHL1   C13 3726   5.562   1.075   7.499 -0.2472 -0.4775 -0.6490
   51CHL1   C18 3727   5.421   1.143   7.475  0.0780 -0.2973 -0.2911
   51CHL1  H18A 3728   5.375   1.112   7.379 -0.4533 -0.6701  0.0732
   51CHL1  H18B 3729   5.353   1.110   7.557  0.6491  0.5000  0.5111
   51CHL1  H18C 3730   5.432   1.253   7.475 -1.7633 -0.0927 -0.5744
   51CHL1   C12 3731   5.663   1.146   7.413  0.1670  0.8241 -0.1832
   51CHL1  H12A 3732   5.645   1.255   7.417 -0.0509  0.7515  0.9085
   51CHL1  H12B 3733   5.765   1.114   7.443 -1.3113 -1.1757  2.9504
   51CHL1   C11 3734   5.650   1.118   7.260  1.4418 -0.2310 -0.1816
   51CHL1  H11A 3735   5.556   1.170   7.231 -0.0340 -1.4950  2.1989
   51CHL1  H11B 3736   5.738   1.165   7.211 -0.6776  3.0190 -1.0118
   51CHL1    C9 3737   5.636   0.971   7.217  0.1575 -0.7021  0.0115
   51CHL1    H9 3738   5.736   0.931   7.243  0.2823 -0.9926 -0.8709
   51CHL1   C10 3739   5.622   0.946   7.065  0.7028 -0.0888  0.2251
   51CHL1   C19 3740   5.494   1.012   7.009  0.5171 -0.1355  0.1806
   51CHL1  H19A 3741   5.405   0.989   7.072 -0.6812  2.2299 -0.5962
   51CHL1  H19B 3742   5.512   1.122   7.008 -1.6532  0.2302 -0.2530
   51CHL1  H19C 3743   5.459   0.971   6.912 -0.3169 -0.6006  0.6717
   51CHL1    C1 3744   5.748   0.991   6.985 -0.2763 -0.3910  0.3619
   51CHL1   H1A 3745   5.747   1.102   6.981 -0.7650 -0.2973  2.3748
   51CHL1   H1B 3746   5.839   0.961   7.042 -2.0976 -1.8877  2.5854
   51CHL1    C2 3747   5.758   0.938   6.841 -1.0875 -0.7965  0.4553
   51CHL1   H2A 3748   5.861   0.960   6.804 -0.5178 -0.0916  2.4224
   51CHL1   H2B 3749   5.680   0.990   6.782  0.9658 -2.1960 -3.7170
   51CHL1   C20 3750   5.586   1.156   7.757  0.4087 -0.4323  0.5442
   51CHL1   H20 3751   5.481   1.190   7.764  0.1845 -0.9514 -0.2779
   51CHL1   C21 3752   5.694   1.264   7.711  0.8506  0.8037  0.4373
   51CHL1  H21A 3753   5.690   1.361   7.764  2.0020  1.7464 -1.1182
   51CHL1  H21B 3754   5.679   1.315   7.613  1.3925  2.6791  1.3164
   51CHL1  H21C 3755   5.796   1.220   7.715  0.7069  0.5143  0.9329
   51CHL1   C22 3756   5.615   1.103   7.901 -0.1753  0.4548  0.3469
   51CHL1  H22A 3757   5.545   1.019   7.920 -0.8987  0.5170 -1.8932
   51CHL1  H22B 3758   5.715   1.054   7.893 -0.5667  0.0311 -2.5553
   51CHL1   C23 3759   5.612   1.219   8.007  0.4997  0.0730 -0.5300
   51CHL1  H23A 3760   5.691   1.291   7.977  1.3088 -0.2133  0.9051
   51CHL1  H23B 3761   5.511   1.263   7.993 -0.4365 -1.5353  1.0530
   51CHL1   C24 3762   5.634   1.164   8.147 -0.3640  0.0949  0.4861
   51CHL1  H24A 3763   5.561   1.082   8.159 -1.3538  1.0439  1.1220
   51CHL1  H24B 3764   5.739   1.129   8.152 -0.1366  0.5966 -0.7911
   51CHL1   C25 3765   5.612   1.271   8.258  0.4214 -0.0323 -0.4896
   51CHL1   H25 3766   5.679   1.358   8.241  0.9764 -0.6693 -1.7079
   51CHL1   C26 3767   5.464   1.314   8.267 -0.0441  0.2496  0.9329
   51CHL1  H26A 3768   5.464   1.386   8.352  2.1270 -2.2204  3.0705
   51CHL1  H26B 3769   5.442   1.365   8.170 -2.6313 -1.9269  0.3056
   51CHL1  H26C 3770   5.397   1.232   8.299 -0.0334  0.5375  1.7219
   51CHL1   C27 3771   5.659   1.214   8.395 -0.8220  0.1942  0.3286
   51CHL1  H27A 3772   5.611   1.118   8.425 -1.3016 -0.1190 -1.4162
   51CHL1  H27B 3773   5.770   1.205   8.391 -1.0262 -2.5579 -0.3268
   51CHL1  H27C 3774   5.635   1.296   8.466  0.5864  0.1333  0.8923
   52CHL1    C3 3775   0.345   2.707   6.932 -0.0398  0.1188 -0.1126
   52CHL1    H3 3776   0.283   2.799   6.941  2.6074  1.9380 -0.1276
   52CHL1    O3 3777   0.391   2.718   6.797 -0.0624  0.1016 -0.0907
   52CHL1   H3' 3778   0.475   2.671   6.793 -0.8195 -1.4307  1.2623
   52CHL1    C4 3779   0.466   2.728   7.024  0.1676  0.0581  0.3853
   52CHL1   H4A 3780   0.543   2.655   6.990  0.1008 -1.9091  4.1762
   52CHL1   H4B 3781   0.510   2.829   7.009  0.4351  0.0036  0.7751
   52CHL1    C5 3782   0.430   2.721   7.177  0.3413  0.3328 -0.4087
   52CHL1    C6 3783   0.455   2.820   7.264  0.5338  0.2336 -1.1350
   52CHL1    H6 3784   0.491   2.921   7.238 -0.1119  1.0572  1.0665
   52CHL1    C7 3785   0.414   2.815   7.410  0.5464  0.0739  0.2382
   52CHL1   H7A 3786   0.498   2.849   7.475  2.4805 -2.5258 -0.7800
   52CHL1   H7B 3787   0.316   2.866   7.417  0.2768 -0.2856 -0.8794
   52CHL1    C8 3788   0.385   2.665   7.454  0.2217 -0.1868 -0.7734
   52CHL1    H8 3789   0.484   2.622   7.479  0.3321  0.6621  0.2261
   52CHL1   C14 3790   0.305   2.665   7.585  0.1476 -0.3899 -0.2222
   52CHL1   H14 3791   0.217   2.731   7.574  0.5021  0.3947  1.3617
   52CHL1   C15 3792   0.365   2.739   7.702  0.5150 -0.3173  0.9257
   52CHL1  H15A 3793   0.474   2.715   7.694  0.4441  0.2945 -2.9073
   52CHL1  H15B 3794   0.350   2.849   7.702  2.2436 -0.0503 -0.5755
   52CHL1   C16 3795   0.304   2.678   7.829 -0.7204 -0.0204 -0.4855
   52CHL1  H16A 3796   0.368   2.623   7.901 -1.1103  0.9171  0.5706
   52CHL1  H16B 3797   0.252   2.759   7.882  3.2291  1.1851  1.7304
   52CHL1   C17 3798   0.197   2.572   7.777  0.0987 -0.0140  0.5539
   52CHL1   H17 3799   0.109   2.632   7.747  1.7200  2.1098 -0.0942
   52CHL1   C13 3800   0.254   2.526   7.645  0.3298 -0.0388  0.8830
   52CHL1   C18 3801   0.377   2.435   7.656 -0.1856 -1.1600  0.0454
   52CHL1  H18A 3802   0.454   2.480   7.722 -0.4316 -2.3921  1.1903
   52CHL1  H18B 3803   0.345   2.339   7.702  2.0878 -2.0244 -0.0612
   52CHL1  H18C 3804   0.422   2.409   7.557 -2.3572 -0.3457 -1.1654
   52CHL1   C12 3805   0.157   2.480   7.531  0.4341 -0.1614  0.1858
   52CHL1  H12A 3806   0.107   2.384   7.556 -1.4998  0.6847 -0.4126
   52CHL1  H12B 3807   0.070   2.548   7.521  0.8802  0.4500  0.4159
   52CHL1   C11 3808   0.237   2.462   7.397  0.3313  0.0537 -0.1995
   52CHL1  H11A 3809   0.301   2.372   7.401  1.9764  1.1308 -1.4395
   52CHL1  H11B 3810   0.150   2.444   7.330 -0.9492  1.4151  1.0554
   52CHL1    C9 3811   0.294   2.590   7.352 -0.1772 -0.1404  0.0570
   52CHL1    H9 3812   0.208   2.660   7.339 -0.3164  0.0722  1.9358
   52CHL1   C10 3813   0.363   2.589   7.214 -0.5449  0.6587 -0.3724
   52CHL1   C19 3814   0.478   2.480   7.207  0.2886 -0.5426 -0.0887
   52CHL1  H19A 3815   0.544   2.498   7.119  2.3439  0.9208  1.7112
   52CHL1  H19B 3816   0.543   2.496   7.295 -1.7765 -0.0329  1.3840
   52CHL1  H19C 3817   0.433   2.381   7.228  1.0094 -0.8029  0.2320
   52CHL1    C1 3818   0.248   2.557   7.108  1.2685 -0.1734  0.3549
   52CHL1   H1A 3819   0.222   2.450   7.126  1.5537 -0.3300 -0.1496
   52CHL1   H1B 3820   0.167   2.623   7.145  0.7271 -2.1738  2.9196
   52CHL1    C2 3821   0.278   2.572   6.958 -0.4208  0.5736  0.2296
   52CHL1   H2A 3822   0.203   2.561   6.877 -0.5280 -0.8774  0.5170
   52CHL1   H2B 3823   0.368   2.513   6.931  0.8114  2.5489 -0.1588
   52CHL1   C20 3824   0.162   2.468   7.876 -0.1256 -0.0489  0.4196
   52CHL1   H20 3825   0.260   2.425   7.906 -0.4351 -1.2723 -0.2970
   52CHL1   C21 3826   0.077   2.359   7.816  0.5008  0.6565  0.0511
   52CHL1  H21A 3827  -0.002   2.391   7.745  2.3386  0.7857 -1.9986
   52CHL1  H21B 3828   0.046   2.309   7.910 -0.7135  2.0346  0.3963
   52CHL1  H21C 3829   0.149   2.289   7.769  0.2113  0.4717 -0.1145
   52CHL1   C22 3830   0.102   2.518   8.007  0.1839 -0.3525 -0.0943
   52CHL1  H22A 3831   0.082   2.432   8.075 -4.7024  1.0456  0.4081
   52CHL1  H22B 3832   0.179   2.575   8.064  3.2360 -1.9306 -2.4973
   52CHL1   C23 3833  -0.033   2.597   7.982 -0.0207  0.3826  0.0634
   52CHL1  H23A 3834  -0.013   2.687   7.920  0.6044  1.7536  2.1916
   52CHL1  H23B 3835  -0.105   2.537   7.922  2.0873 -1.6381 -0.5061
   52CHL1   C24 3836  -0.102   2.637   8.114  0.4679  0.9728  0.3947
   52CHL1  H24A 3837  -0.035   2.703   8.173  1.1546  1.4494 -0.9004
   52CHL1  H24B 3838  -0.196   2.690   8.086 -0.3695 -0.3175  0.7683
   52CHL1   C25 3839  -0.135   2.519   8.205 -0.9635 -0.5387 -0.8369
   52CHL1   H25 3840  -0.040   2.468   8.235 -1.4532 -0.8135  0.3023
   52CHL1   C26 3841  -0.180   2.570   8.343 -0.2787  0.2424 -0.5855
   52CHL1  H26A 3842  -0.181   2.488   8.418  1.5917 -0.6116 -1.4658
   52CHL1  H26B 3843  -0.101   2.641   8.379 -1.5873  1.3677  0.1096
   52CHL1  H26C 3844  -0.282   2.613   8.344 -0.2630  0.3087  2.4342
   52CHL1   C27 3845  -0.232   2.419   8.137  0.0068 -0.0796 -0.4112
   52CHL1  H27A 3846  -0.176   2.368   8.055  1.4701 -1.2163  1.2558
   52CHL1  H27B 3847  -0.269   2.341   8.207 -2.1875 -0.2683 -1.7438
   52CHL1  H27C 3848  -0.324   2.461   8.091  0.7934  0.2315 -1.7031
   53CHL1    C3 3849   2.765   5.377   7.091 -0.6682  0.0145 -0.6250
   53CHL1    H3 3850   2.748   5.270   7.117  0.2189  0.4689  1.9071
   53CHL1    O3 3851   2.736   5.398   6.953 -0.0790  0.7179  0.2359
   53CHL1   H3' 3852   2.723   5.492   6.938  1.1812  1.2803  2.4464
   53CHL1    C4 3853   2.671   5.465   7.171 -0.0924  0.2534  0.2617
   53CHL1   H4A 3854   2.679   5.572   7.144 -0.5396  0.8974  2.5727
   53CHL1   H4B 3855   2.570   5.425   7.147 -0.0296 -2.6055  4.2716
   53CHL1    C5 3856   2.706   5.463   7.319  0.7480  0.0792  0.0528
   53CHL1    C6 3857   2.613   5.431   7.409  0.2807  0.0295 -0.2519
   53CHL1    H6 3858   2.507   5.414   7.386 -0.4786 -0.1800  3.0787
   53CHL1    C7 3859   2.641   5.437   7.558 -0.0761 -1.2215  0.3506
   53CHL1   H7A 3860   2.568   5.506   7.606  1.4129  3.2721 -3.3657
   53CHL1   H7B 3861   2.647   5.339   7.608 -1.4495  0.6408  4.3796
   53CHL1    C8 3862   2.776   5.504   7.588  0.4829  0.7315  0.5874
   53CHL1    H8 3863   2.766   5.614   7.575  2.2421  0.8256 -0.1855
   53CHL1   C14 3864   2.817   5.475   7.728  0.5448 -0.4395 -0.7796
   53CHL1   H14 3865   2.835   5.366   7.719  0.1989 -0.4016 -2.1085
   53CHL1   C15 3866   2.712   5.487   7.840  0.7640 -0.4440 -0.8122
   53CHL1  H15A 3867   2.648   5.577   7.825  0.5573 -0.0471  2.2033
   53CHL1  H15B 3868   2.649   5.396   7.848  0.0206  0.0661 -0.8327
   53CHL1   C16 3869   2.796   5.496   7.968  0.0244 -0.8087  0.0615
   53CHL1  H16A 3870   2.771   5.587   8.026  1.9286 -0.9874  1.2129
   53CHL1  H16B 3871   2.761   5.418   8.040  0.3154 -0.2647  0.7937
   53CHL1   C17 3872   2.942   5.491   7.923  0.2547  0.9403 -0.3965
   53CHL1   H17 3873   2.969   5.384   7.911  2.8329  1.4139  0.8335
   53CHL1   C13 3874   2.942   5.538   7.774  0.0025 -0.3619 -0.3438
   53CHL1   C18 3875   2.925   5.691   7.765 -0.1705  0.0089 -0.4033
   53CHL1  H18A 3876   2.830   5.724   7.813 -2.0112 -2.9023 -1.9199
   53CHL1  H18B 3877   3.012   5.735   7.818  0.3736  0.1672 -1.4169
   53CHL1  H18C 3878   2.923   5.719   7.657 -2.0688  1.2776 -0.0764
   53CHL1   C12 3879   3.059   5.483   7.690  0.0030  0.2265 -0.2484
   53CHL1  H12A 3880   3.148   5.548   7.709  0.5314 -0.2864 -0.9211
   53CHL1  H12B 3881   3.089   5.380   7.719  0.3666  1.2945  3.3253
   53CHL1   C11 3882   3.030   5.492   7.531 -0.8638 -0.3397  0.3122
   53CHL1  H11A 3883   3.045   5.598   7.501 -0.9774 -0.9479 -1.9789
   53CHL1  H11B 3884   3.109   5.435   7.479 -0.5654 -1.0103  1.4804
   53CHL1    C9 3885   2.885   5.450   7.495  0.4023  0.0906  0.1747
   53CHL1    H9 3886   2.883   5.339   7.508 -1.9753  0.3231  2.2168
   53CHL1   C10 3887   2.857   5.486   7.350  0.8532  0.1537 -0.7723
   53CHL1   C19 3888   2.885   5.634   7.305  0.1547  0.1317 -0.6399
   53CHL1  H19A 3889   2.995   5.648   7.313  0.0908  0.1395  0.2416
   53CHL1  H19B 3890   2.873   5.663   7.198 -1.9571  0.8288 -0.2233
   53CHL1  H19C 3891   2.830   5.709   7.365  0.9556  0.2453 -0.0351
   53CHL1    C1 3892   2.952   5.398   7.260  0.3259 -0.3817 -0.2569
   53CHL1   H1A 3893   3.057   5.428   7.279 -1.5360  4.0016  4.1804
   53CHL1   H1B 3894   2.923   5.294   7.285 -3.2495  0.1312 -1.9673
   53CHL1    C2 3895   2.918   5.398   7.117  0.0146  0.0699  0.6641
   53CHL1   H2A 3896   2.990   5.336   7.059  1.3039  2.4624 -0.4153
   53CHL1   H2B 3897   2.941   5.499   7.076 -2.1555 -0.6246 -2.4017
   53CHL1   C20 3898   3.042   5.551   8.024  0.0245 -0.0299  0.2776
   53CHL1   H20 3899   3.044   5.662   8.021  1.4974 -0.0698 -1.7908
   53CHL1   C21 3900   3.185   5.511   7.992  0.3141  0.0694  0.1502
   53CHL1  H21A 3901   3.202   5.405   7.963 -4.1687 -0.8143  0.4289
   53CHL1  H21B 3902   3.249   5.542   8.077  1.6934 -0.1325 -0.7901
   53CHL1  H21C 3903   3.224   5.565   7.903 -1.4926 -0.2497 -0.8573
   53CHL1   C22 3904   3.010   5.516   8.171  0.0643  0.1964  0.1139
   53CHL1  H22A 3905   2.909   5.543   8.207  0.1945 -0.1408  0.7384
   53CHL1  H22B 3906   3.008   5.405   8.176 -1.0757  0.0517 -2.6355
   53CHL1   C23 3907   3.099   5.569   8.281 -0.0171 -0.0592 -0.1411
   53CHL1  H23A 3908   3.207   5.544   8.275 -0.0442 -0.3598  0.6163
   53CHL1  H23B 3909   3.082   5.679   8.280 -0.9520 -0.1883  0.9080
   53CHL1   C24 3910   3.068   5.520   8.425 -0.4562  0.7708  0.1355
   53CHL1  H24A 3911   3.081   5.410   8.433  0.4653  0.8199 -0.6501
   53CHL1  H24B 3912   3.141   5.575   8.489  0.6322  0.9047 -1.2002
   53CHL1   C25 3913   2.923   5.546   8.477 -0.1822  0.5080 -0.4595
   53CHL1   H25 3914   2.843   5.498   8.416 -0.0606  0.6999 -0.7701
   53CHL1   C26 3915   2.906   5.504   8.620 -0.2848  0.2829  0.0630
   53CHL1  H26A 3916   2.936   5.397   8.633  1.4614  0.7739  0.1858
   53CHL1  H26B 3917   2.963   5.566   8.692  1.7518 -2.5103  0.9504
   53CHL1  H26C 3918   2.797   5.513   8.641 -0.4327 -0.8780 -0.1670
   53CHL1   C27 3919   2.885   5.688   8.473 -0.3067  0.0081 -0.4303
   53CHL1  H27A 3920   2.945   5.742   8.550  0.2373 -1.7050  0.3796
   53CHL1  H27B 3921   2.904   5.723   8.370  1.0057  3.0129  0.7683
   53CHL1  H27C 3922   2.780   5.703   8.506 -0.6708 -1.5221 -0.8650
   54CHL1    C3 3923   3.560   0.427   7.028  0.2941 -0.3555  0.5428
   54CHL1    H3 3924   3.521   0.531   7.021 -2.2901 -1.1197  2.7309
   54CHL1    O3 3925   3.550   0.376   6.897  0.0361 -0.0106 -0.4213
   54CHL1   H3' 3926   3.532   0.282   6.910 -2.0572  0.0253 -2.7026
   54CHL1    C4 3927   3.706   0.419   7.056 -0.0551 -0.4446 -0.4107
   54CHL1   H4A 3928   3.738   0.313   7.048 -2.0509 -1.0222 -1.0754
   54CHL1   H4B 3929   3.765   0.471   6.978  2.8125 -1.9888  0.6489
   54CHL1    C5 3930   3.737   0.475   7.189 -0.1840 -0.8633  0.1700
   54CHL1    C6 3931   3.814   0.584   7.213  0.1983 -0.3806  0.5403
   54CHL1    H6 3932   3.866   0.638   7.132 -1.2275 -2.7095 -2.0093
   54CHL1    C7 3933   3.857   0.639   7.347  0.0509 -0.0031  0.0869
   54CHL1   H7A 3934   3.966   0.660   7.341  0.2063 -0.8300  0.0735
   54CHL1   H7B 3935   3.792   0.728   7.364  0.7903  0.4863  0.3708
   54CHL1    C8 3936   3.823   0.537   7.462 -0.6763  0.0421 -1.0188
   54CHL1    H8 3937   3.890   0.451   7.442  0.3071 -0.0699  2.5457
   54CHL1   C14 3938   3.840   0.590   7.604 -1.5169  0.0066 -0.0084
   54CHL1   H14 3939   3.765   0.672   7.610 -3.1698 -1.5936  1.9782
   54CHL1   C15 3940   3.969   0.671   7.640  0.0086 -0.2529  0.8307
   54CHL1  H15A 3941   4.056   0.633   7.582  0.4429  0.7279  0.8313
   54CHL1  H15B 3942   3.946   0.776   7.612  0.2736 -0.6057 -0.7620
   54CHL1   C16 3943   3.983   0.658   7.787 -0.0450 -0.4814 -0.2211
   54CHL1  H16A 3944   4.060   0.581   7.810  1.6701  1.1943 -0.1263
   54CHL1  H16B 3945   4.017   0.748   7.844  1.8313 -1.9807  1.1258
   54CHL1   C17 3946   3.848   0.591   7.842  0.2110  0.1910 -0.3063
   54CHL1   H17 3947   3.779   0.677   7.851  0.7786  0.7428 -1.1042
   54CHL1   C13 3948   3.807   0.503   7.719  0.0647  0.1839  0.3325
   54CHL1   C18 3949   3.902   0.376   7.720  0.7881  0.1756  0.1986
   54CHL1  H18A 3950   3.888   0.314   7.812 -0.8851  1.8574  1.1247
   54CHL1  H18B 3951   3.884   0.321   7.626 -0.9206  1.3047 -0.1580
   54CHL1  H18C 3952   4.006   0.413   7.712  0.7233 -0.1291 -2.4025
   54CHL1   C12 3953   3.659   0.447   7.707 -0.0468  0.2786  0.2522
   54CHL1  H12A 3954   3.639   0.368   7.782  1.5563  0.3994  0.8062
   54CHL1  H12B 3955   3.596   0.537   7.726 -2.0110 -0.7868 -0.9811
   54CHL1   C11 3956   3.638   0.379   7.566 -0.4693 -0.6515  1.3520
   54CHL1  H11A 3957   3.690   0.281   7.572  0.2834 -0.2971  0.5902
   54CHL1  H11B 3958   3.529   0.361   7.555  0.0254 -2.9072 -0.0941
   54CHL1    C9 3959   3.681   0.463   7.442 -0.1019 -0.4051 -0.4185
   54CHL1    H9 3960   3.603   0.542   7.444 -1.4445 -1.6981 -0.3911
   54CHL1   C10 3961   3.663   0.395   7.302 -0.5823 -0.6118 -0.1586
   54CHL1   C19 3962   3.719   0.259   7.319 -1.0157 -0.4114 -0.7067
   54CHL1  H19A 3963   3.719   0.200   7.225 -0.9346 -1.7280  0.1043
   54CHL1  H19B 3964   3.824   0.260   7.355 -0.9193  0.3817 -1.0129
   54CHL1  H19C 3965   3.652   0.199   7.385  0.1509 -1.6521 -0.6413
   54CHL1    C1 3966   3.508   0.387   7.276 -0.0734  0.1128 -0.2575
   54CHL1   H1A 3967   3.466   0.314   7.348 -0.4954 -2.5345 -3.0798
   54CHL1   H1B 3968   3.470   0.489   7.298 -2.2818 -0.4097 -1.5129
   54CHL1    C2 3969   3.479   0.347   7.126  0.9776 -0.0698  0.4147
   54CHL1   H2A 3970   3.372   0.362   7.099  0.6560 -3.1571 -0.2992
   54CHL1   H2B 3971   3.491   0.236   7.125  2.0058  0.0430  0.5712
   54CHL1   C20 3972   3.864   0.533   7.983  0.1120 -0.7825  0.0530
   54CHL1   H20 3973   3.930   0.444   7.976  1.4604  0.1325  0.8691
   54CHL1   C21 3974   3.729   0.486   8.042 -0.1886  0.1905  0.0263
   54CHL1  H21A 3975   3.674   0.578   8.071  0.9264  1.4654 -1.8135
   54CHL1  H21B 3976   3.745   0.416   8.127 -1.6982  1.5790  1.5000
   54CHL1  H21C 3977   3.665   0.429   7.971 -3.1975  2.2946  0.9597
   54CHL1   C22 3978   3.923   0.635   8.078  0.2465  0.0589 -0.3639
   54CHL1  H22A 3979   4.016   0.675   8.032 -1.1157  1.2235 -2.2163
   54CHL1  H22B 3980   3.849   0.718   8.074 -3.4246 -3.0406 -0.0476
   54CHL1   C23 3981   3.950   0.600   8.224 -0.9279  0.4184 -0.3966
   54CHL1  H23A 3982   3.995   0.684   8.281  2.8857 -2.4291  1.0421
   54CHL1  H23B 3983   3.856   0.589   8.282 -0.2567 -0.4759  0.5402
   54CHL1   C24 3984   4.044   0.477   8.256  0.2545  0.1953  0.6328
   54CHL1  H24A 3985   4.013   0.375   8.227 -1.9271  1.4315 -1.6316
   54CHL1  H24B 3986   4.136   0.500   8.198 -0.2675 -0.5442 -0.4874
   54CHL1   C25 3987   4.085   0.458   8.411 -0.2591  0.2790 -0.3364
   54CHL1   H25 3988   4.147   0.548   8.427 -1.2872  1.1439 -1.1068
   54CHL1   C26 3989   3.966   0.467   8.515 -0.1854 -0.3664 -0.8172
   54CHL1  H26A 3990   3.879   0.398   8.509 -0.4676 -0.1879  0.9757
   54CHL1  H26B 3991   4.009   0.463   8.617  0.7238  1.2796 -1.1283
   54CHL1  H26C 3992   3.932   0.572   8.506 -0.3401 -0.3866 -0.4712
   54CHL1   C27 3993   4.168   0.331   8.412  0.3918 -0.2691 -0.0088
   54CHL1  H27A 3994   4.194   0.310   8.518 -2.2446  0.2873  0.7773
   54CHL1  H27B 3995   4.103   0.246   8.383 -0.1158  0.5936 -1.4398
   54CHL1  H27C 3996   4.259   0.341   8.348  0.5812 -0.2151  0.2663
   55CHL1    C3 3997   3.164   1.483   6.955 -0.1340  0.0167  0.0927
   55CHL1    H3 3998   3.195   1.384   6.994  0.2251  0.3935  0.7641
   55CHL1    O3 3999   3.113   1.466   6.824  0.4333  0.3515 -0.0412
   55CHL1   H3' 4000   3.054   1.390   6.824  1.0864 -0.1737 -1.2741
   55CHL1    C4 4001   3.046   1.531   7.042  0.3699 -0.4121 -0.2256
   55CHL1   H4A 4002   3.011   1.619   6.983 -1.2670  0.6758  2.2627
   55CHL1   H4B 4003   2.966   1.455   7.035 -0.0325 -0.2371  2.0204
   55CHL1    C5 4004   3.088   1.579   7.179 -0.7036  0.6313  1.4571
   55CHL1    C6 4005   3.026   1.525   7.281 -0.5282 -0.5168  1.0956
   55CHL1    H6 4006   2.950   1.451   7.253 -0.1217  0.2425 -2.1841
   55CHL1    C7 4007   3.046   1.570   7.422 -0.1577 -0.6464 -0.0815
   55CHL1   H7A 4008   2.954   1.576   7.483 -1.3272 -2.1905 -1.6576
   55CHL1   H7B 4009   3.113   1.494   7.469  2.0841  2.4525  2.0020
   55CHL1    C8 4010   3.112   1.708   7.428  0.4614 -0.0844 -0.6783
   55CHL1    H8 4011   3.042   1.779   7.379 -0.3203 -0.7419 -0.5341
   55CHL1   C14 4012   3.148   1.742   7.568  0.6123  0.4153 -0.3542
   55CHL1   H14 4013   3.208   1.656   7.605 -0.0737 -0.2700 -0.8010
   55CHL1   C15 4014   3.038   1.738   7.682 -0.6112 -0.0641  0.1739
   55CHL1  H15A 4015   2.943   1.780   7.642  0.8909  2.7137 -0.5895
   55CHL1  H15B 4016   3.012   1.641   7.728  0.2711  0.1209  1.0705
   55CHL1   C16 4017   3.102   1.828   7.794 -0.6440 -0.7419  0.1062
   55CHL1  H16A 4018   3.034   1.916   7.794  3.0179  2.2211 -1.4906
   55CHL1  H16B 4019   3.088   1.781   7.894  0.0069 -0.3865  0.3679
   55CHL1   C17 4020   3.241   1.860   7.749 -0.0246  0.0028  0.3110
   55CHL1   H17 4021   3.312   1.778   7.770  0.8864  1.0408  1.3157
   55CHL1   C13 4022   3.233   1.864   7.595  0.7452 -0.3144 -0.7886
   55CHL1   C18 4023   3.162   2.001   7.550 -0.4195 -0.4195  0.0830
   55CHL1  H18A 4024   3.243   2.077   7.553  1.6080 -2.3268 -2.9891
   55CHL1  H18B 4025   3.125   1.993   7.445 -0.5929 -1.1084  0.1938
   55CHL1  H18C 4026   3.075   2.028   7.613  0.9398  1.7411  1.0783
   55CHL1   C12 4027   3.364   1.853   7.509  0.0845  0.3178 -0.0580
   55CHL1  H12A 4028   3.428   1.943   7.521 -2.1030  1.8328  0.5571
   55CHL1  H12B 4029   3.416   1.763   7.549 -1.3913 -0.2808  0.5700
   55CHL1   C11 4030   3.329   1.821   7.364 -0.3725  0.0736  0.5282
   55CHL1  H11A 4031   3.281   1.913   7.322 -2.3187 -0.9621  0.4437
   55CHL1  H11B 4032   3.425   1.805   7.310  0.8338 -0.3433  2.7075
   55CHL1    C9 4033   3.234   1.703   7.337 -0.3294 -0.0491 -0.4846
   55CHL1    H9 4034   3.282   1.607   7.367 -0.5068 -0.1775 -0.6099
   55CHL1   C10 4035   3.202   1.686   7.191  1.1562  0.0330  0.2249
   55CHL1   C19 4036   3.160   1.824   7.130  0.3178 -0.5126 -0.1931
   55CHL1  H19A 4037   3.133   1.810   7.023 -0.6919 -0.1742  0.0127
   55CHL1  H19B 4038   3.081   1.872   7.191 -0.3128  0.7551 -1.9522
   55CHL1  H19C 4039   3.245   1.896   7.123  0.6389 -0.9227 -0.5215
   55CHL1    C1 4040   3.318   1.626   7.108  0.3611 -0.2521  0.4610
   55CHL1   H1A 4041   3.403   1.697   7.109 -2.4770  3.3205  2.5680
   55CHL1   H1B 4042   3.354   1.533   7.157  2.1075 -0.5288 -1.2856
   55CHL1    C2 4043   3.286   1.589   6.963 -0.0524  0.4823  0.9217
   55CHL1   H2A 4044   3.379   1.549   6.917 -1.1629 -0.8897 -0.1765
   55CHL1   H2B 4045   3.262   1.686   6.912 -0.2024 -0.6925 -1.3252
   55CHL1   C20 4046   3.302   1.981   7.824 -0.4644 -0.3919  0.3580
   55CHL1   H20 4047   3.255   2.071   7.778  2.3564  0.3683 -1.1843
   55CHL1   C21 4048   3.451   1.991   7.820  0.5325  0.1381 -0.2881
   55CHL1  H21A 4049   3.498   1.997   7.719  1.4337 -0.8341  0.0615
   55CHL1  H21B 4050   3.502   1.911   7.878  2.1283  0.8288 -0.7079
   55CHL1  H21C 4051   3.480   2.089   7.863 -2.5310  1.2519 -0.6438
   55CHL1   C22 4052   3.249   1.986   7.970 -0.1606  0.1864 -0.3230
   55CHL1  H22A 4053   3.303   2.070   8.019 -1.0507 -0.0451  1.0601
   55CHL1  H22B 4054   3.141   2.008   7.961 -0.2668 -0.2070  0.0170
   55CHL1   C23 4055   3.285   1.867   8.057  0.3826 -0.9888  1.0665
   55CHL1  H23A 4056   3.281   1.764   8.015 -2.6666 -0.4926  0.0226
   55CHL1  H23B 4057   3.393   1.880   8.079  0.2826 -0.6028  1.3347
   55CHL1   C24 4058   3.218   1.872   8.196  0.3082  0.2615 -0.2026
   55CHL1  H24A 4059   3.278   1.936   8.264  1.5676 -0.8306 -0.2671
   55CHL1  H24B 4060   3.120   1.921   8.182  0.9034  1.7955  0.9431
   55CHL1   C25 4061   3.191   1.740   8.262  0.1051  0.7192  0.5200
   55CHL1   H25 4062   3.129   1.666   8.208  0.8865 -0.2996  1.0049
   55CHL1   C26 4063   3.324   1.683   8.305  0.9871  0.1829  0.6664
   55CHL1  H26A 4064   3.387   1.755   8.362  0.1498  1.7062 -0.2974
   55CHL1  H26B 4065   3.314   1.584   8.353  0.4437 -0.6972 -1.2371
   55CHL1  H26C 4066   3.390   1.670   8.216 -2.0298 -3.2009 -1.1836
   55CHL1   C27 4067   3.113   1.769   8.391  0.1555 -0.0055 -0.0006
   55CHL1  H27A 4068   3.143   1.865   8.437  1.0493  1.0190 -2.6396
   55CHL1  H27B 4069   3.011   1.792   8.353  0.6651  3.4335  0.6110
   55CHL1  H27C 4070   3.118   1.678   8.455 -1.9178 -1.6649 -2.1245
   56CHL1    C3 4071   2.607   0.040   6.977  0.4252 -0.7904 -0.8533
   56CHL1    H3 4072   2.502   0.077   6.978  0.2749 -1.2132 -0.7563
   56CHL1    O3 4073   2.629  -0.016   6.851 -0.2121 -0.1515 -0.1244
   56CHL1   H3' 4074   2.649   0.053   6.787  2.3919  0.7227  1.5226
   56CHL1    C4 4075   2.716   0.146   7.008 -0.6999 -0.3255  0.6763
   56CHL1   H4A 4076   2.819   0.107   6.992  0.2597  2.8117 -1.2842
   56CHL1   H4B 4077   2.705   0.231   6.937 -2.1913 -0.4917  0.6810
   56CHL1    C5 4078   2.726   0.199   7.151  0.0059 -0.2391 -0.4883
   56CHL1    C6 4079   2.743   0.331   7.180 -0.8925  0.4691 -0.0032
   56CHL1    H6 4080   2.748   0.403   7.098  2.9117 -0.2462 -0.5119
   56CHL1    C7 4081   2.754   0.384   7.319 -0.4202  0.1882  1.0676
   56CHL1   H7A 4082   2.837   0.458   7.323 -0.8246  0.9713 -2.7885
   56CHL1   H7B 4083   2.665   0.448   7.336 -0.6714  0.3578 -0.7741
   56CHL1    C8 4084   2.771   0.283   7.431  0.2238  0.2193 -0.2685
   56CHL1    H8 4085   2.874   0.246   7.449  0.6746  1.9388  0.8387
   56CHL1   C14 4086   2.726   0.351   7.563  0.2901 -0.4461 -0.4082
   56CHL1   H14 4087   2.619   0.378   7.552  0.3122 -0.5037 -0.7605
   56CHL1   C15 4088   2.785   0.490   7.600 -0.6370  0.0407  0.6197
   56CHL1  H15A 4089   2.896   0.495   7.593 -0.8241  1.4280 -2.5492
   56CHL1  H15B 4090   2.743   0.569   7.533 -0.8825  0.2359  1.0012
   56CHL1   C16 4091   2.730   0.504   7.748 -0.5077 -0.8567  0.6269
   56CHL1  H16A 4092   2.824   0.534   7.799  0.3976 -2.7787  0.1596
   56CHL1  H16B 4093   2.651   0.582   7.747  1.5272  1.2260 -0.2355
   56CHL1   C17 4094   2.685   0.367   7.795  0.8256 -0.2153  1.2216
   56CHL1   H17 4095   2.574   0.371   7.795  0.7838  0.3153 -2.3291
   56CHL1   C13 4096   2.729   0.267   7.686 -0.3805  0.5094  0.7526
   56CHL1   C18 4097   2.877   0.230   7.714  0.0741 -0.3133 -0.1025
   56CHL1  H18A 4098   2.865   0.161   7.800 -1.4504 -0.7647 -0.6604
   56CHL1  H18B 4099   2.923   0.177   7.628  1.3667  0.4381  0.1187
   56CHL1  H18C 4100   2.947   0.307   7.751  2.3981 -2.4122  0.0159
   56CHL1   C12 4101   2.646   0.144   7.663 -0.6121 -0.3780  0.2055
   56CHL1  H12A 4102   2.655   0.076   7.751  2.5857  0.1120  0.3128
   56CHL1  H12B 4103   2.536   0.163   7.667 -0.8002 -1.6189  1.2057
   56CHL1   C11 4104   2.678   0.071   7.531 -0.0591  0.8504  0.7828
   56CHL1  H11A 4105   2.772   0.016   7.552  0.0650 -1.1382 -4.2232
   56CHL1  H11B 4106   2.596  -0.003   7.521  0.8180 -0.2157  1.4423
   56CHL1    C9 4107   2.686   0.159   7.401  0.7605 -0.4764 -0.2850
   56CHL1    H9 4108   2.581   0.197   7.400  0.5616 -1.0138 -2.5274
   56CHL1   C10 4109   2.713   0.093   7.264 -0.7783  0.2880 -0.5939
   56CHL1   C19 4110   2.855   0.022   7.279 -0.0093 -0.0661  0.6117
   56CHL1  H19A 4111   2.856  -0.045   7.367  0.4495 -0.0116  0.6446
   56CHL1  H19B 4112   2.871  -0.040   7.188 -1.2208 -0.7268  0.8253
   56CHL1  H19C 4113   2.943   0.089   7.287 -1.3178  1.7386  0.1835
   56CHL1    C1 4114   2.608  -0.010   7.219 -0.0579 -0.8118 -0.1029
   56CHL1   H1A 4115   2.598  -0.095   7.290 -1.5947  0.5812  1.4047
   56CHL1   H1B 4116   2.514   0.048   7.224 -1.0741 -2.4922  0.5839
   56CHL1    C2 4117   2.614  -0.065   7.082  0.9184 -0.1511  0.5892
   56CHL1   H2A 4118   2.525  -0.132   7.078  2.5842 -2.3792 -0.0356
   56CHL1   H2B 4119   2.698  -0.133   7.058 -0.2741 -0.7055 -2.1691
   56CHL1   C20 4120   2.720   0.346   7.942  0.0413  0.3702 -0.0896
   56CHL1   H20 4121   2.826   0.313   7.942  0.5436  1.9498 -1.9365
   56CHL1   C21 4122   2.636   0.224   7.994  0.5922 -0.4414  0.0695
   56CHL1  H21A 4123   2.649   0.137   7.926  0.9078 -0.4012  0.0783
   56CHL1  H21B 4124   2.527   0.245   8.006  0.5969 -0.1444 -0.3864
   56CHL1  H21C 4125   2.679   0.190   8.090  2.1970 -0.4894 -0.6582
   56CHL1   C22 4126   2.707   0.477   8.032  0.2210 -0.6728 -0.1887
   56CHL1  H22A 4127   2.768   0.560   7.991  1.4608 -0.6054  1.7166
   56CHL1  H22B 4128   2.604   0.518   8.032  0.3756 -0.2837 -0.7135
   56CHL1   C23 4129   2.755   0.442   8.174  0.1124  0.0686  0.3746
   56CHL1  H23A 4130   2.667   0.393   8.220 -0.0844  0.6620  0.6345
   56CHL1  H23B 4131   2.841   0.372   8.174  3.2320  3.7561 -1.6864
   56CHL1   C24 4132   2.791   0.565   8.266 -0.3491  0.4835 -0.4395
   56CHL1  H24A 4133   2.880   0.605   8.212 -1.0832  1.5629 -0.8680
   56CHL1  H24B 4134   2.707   0.638   8.264 -0.1010  0.7642 -0.7067
   56CHL1   C25 4135   2.830   0.523   8.409 -0.0493 -0.3459 -0.3107
   56CHL1   H25 4136   2.868   0.613   8.462 -1.6172  0.1257  0.0633
   56CHL1   C26 4137   2.701   0.490   8.490  0.0778  0.5095 -0.2311
   56CHL1  H26A 4138   2.730   0.479   8.597 -2.4730 -0.3946  0.3949
   56CHL1  H26B 4139   2.671   0.388   8.458  0.5156  0.5834 -0.8877
   56CHL1  H26C 4140   2.620   0.562   8.467 -0.5996 -0.4535 -0.8891
   56CHL1   C27 4141   2.927   0.408   8.414 -0.4055  0.7783  0.1399
   56CHL1  H27A 4142   2.961   0.390   8.518  1.5430 -1.8637 -0.8903
   56CHL1  H27B 4143   2.882   0.318   8.368 -1.6091  1.6306 -0.3767
   56CHL1  H27C 4144   3.014   0.435   8.350  0.4737 -1.0930  0.5121
   57SAPC     N 4145   2.085   3.686  10.986  0.1644  0.4679 -1.1258
   57SAPC   C12 4146   2.072   3.652  10.836  0.1510 -0.4422 -0.1408
   57SAPC  H12A 4147   2.004   3.571  10.816 -0.8171  0.4776 -0.6072
   57SAPC  H12B 4148   2.163   3.609  10.798  1.3162 -0.7435  2.8212
   57SAPC   C13 4149   2.141   3.571  11.061  0.0533  0.8241  0.3458
   57SAPC  H13A 4150   2.070   3.489  11.061  2.5796 -1.4184 -0.8270
   57SAPC  H13B 4151   2.235   3.542  11.017 -0.5213  0.8840 -0.9412
   57SAPC  H13C 4152   2.160   3.590  11.165  3.2187 -1.3946  0.2436
   57SAPC   C14 4153   2.195   3.795  11.011  0.0595 -0.3274 -0.0454
   57SAPC  H14A 4154   2.216   3.793  11.117 -1.2032  2.0674  0.2912
   57SAPC  H14B 4155   2.291   3.776  10.967  0.1325  0.3711 -0.1951
   57SAPC  H14C 4156   2.159   3.895  10.990  1.6307  0.2807  0.0728
   57SAPC   C15 4157   1.956   3.736  11.037 -0.2501  0.4559  0.2176
   57SAPC  H15A 4158   1.884   3.656  11.038 -0.4229  0.6167  0.9190
   57SAPC  H15B 4159   1.969   3.764  11.141 -0.9411 -2.2302  1.0600
   57SAPC  H15C 4160   1.919   3.815  10.973 -1.3847 -0.8120 -0.7330
   57SAPC   C11 4161   2.032   3.766  10.740 -0.5558  0.4178  0.3357
   57SAPC  H11A 4162   2.051   3.741  10.633 -1.6251 -0.2776  0.2928
   57SAPC  H11B 4163   2.104   3.849  10.755 -0.1238 -0.0523  0.9032
   57SAPC     P 4164   1.803   3.894  10.675  0.4639  0.6184  0.2573
   57SAPC   O13 4165   1.670   3.833  10.684  0.0772  0.7623 -0.0455
   57SAPC   O14 4166   1.816   4.036  10.721 -0.8274  0.2660 -0.2494
   57SAPC   O12 4167   1.902   3.805  10.763  0.4392 -0.0811  0.3071
   57SAPC   O11 4168   1.861   3.871  10.532 -0.2146  0.3807  0.7833
   57SAPC    C1 4169   1.826   3.776  10.434 -0.1688  0.2518  0.0462
   57SAPC    HA 4170   1.872   3.677  10.458 -0.1177 -0.0009 -1.0794
   57SAPC    HB 4171   1.717   3.773  10.413  0.0431  1.4230 -1.2619
   57SAPC    C2 4172   1.890   3.830  10.303  0.2177  0.6873  0.5164
   57SAPC    HS 4173   1.864   3.770  10.213 -0.8868  0.3722  1.0301
   57SAPC   O21 4174   2.034   3.848  10.300  0.0616  0.2670 -0.5410
   57SAPC   C21 4175   2.113   3.744  10.334 -0.0174 -0.1465 -0.0522
   57SAPC   O22 4176   2.074   3.627  10.340  0.2111  0.0895  0.2506
   57SAPC   C22 4177   2.250   3.805  10.355  0.0563 -0.1842 -0.3892
   57SAPC   H2R 4178   2.261   3.906  10.310  1.0579  0.5980  1.5284
   57SAPC   H2S 4179   2.242   3.799  10.466 -1.1788 -1.2412 -0.5195
   57SAPC    C3 4180   1.817   3.959  10.268  0.5835  0.0848  0.0264
   57SAPC    HX 4181   1.833   4.035  10.348 -2.6093  1.2343 -0.3869
   57SAPC    HY 4182   1.711   3.930  10.254  0.6662 -2.3822  3.6584
   57SAPC   O31 4183   1.857   4.000  10.136  0.4367 -0.3146  0.6106
   57SAPC   C31 4184   1.945   4.101  10.124  0.5243  0.2351 -0.1017
   57SAPC   O32 4185   1.987   4.167  10.217 -0.2608  0.0037  0.3265
   57SAPC   C32 4186   1.994   4.107   9.977 -0.1619 -0.0927 -0.4990
   57SAPC   H2X 4187   1.934   4.036   9.918  0.8406 -0.4851 -1.0571
   57SAPC   H2Y 4188   2.092   4.056   9.964 -0.9567 -1.8698  0.4068
   57SAPC   C23 4189   2.356   3.707  10.299  0.4966  0.5061 -0.3901
   57SAPC   H3R 4190   2.337   3.599  10.315  0.9912  0.5671  0.6222
   57SAPC   H3S 4191   2.455   3.724  10.346  0.5644  0.1031 -0.3853
   57SAPC   C24 4192   2.378   3.731  10.146 -0.5549  0.0846 -0.2190
   57SAPC   H4R 4193   2.415   3.836  10.141  1.1917 -0.3174  2.5958
   57SAPC   H4S 4194   2.288   3.708  10.086 -0.6529 -0.9209  0.3038
   57SAPC   C25 4195   2.500   3.643  10.106  0.4185 -0.0098 -0.8482
   57SAPC   H5R 4196   2.577   3.616  10.180 -0.5105 -2.8262 -0.8726
   57SAPC   C26 4197   2.524   3.585   9.993  0.8276 -0.6430 -0.2923
   57SAPC   H6R 4198   2.626   3.548   9.974  0.8716 -0.9252  0.4519
   57SAPC   C27 4199   2.437   3.592   9.868  0.5196 -0.0632 -0.5779
   57SAPC   H7R 4200   2.504   3.622   9.784  0.3358  0.2436 -0.6178
   57SAPC   H7S 4201   2.366   3.676   9.885 -1.2281 -1.5294 -0.5389
   57SAPC   C28 4202   2.363   3.466   9.844 -0.3526  0.3594 -0.3883
   57SAPC   H8R 4203   2.324   3.418   9.934  0.4639  1.3697  0.5176
   57SAPC   C29 4204   2.359   3.401   9.722  0.0057 -0.1933 -0.2164
   57SAPC   H9R 4205   2.298   3.310   9.724  1.0098 -0.8571  0.1212
   57SAPC  C210 4206   2.410   3.444   9.591 -0.0299  0.4826 -0.2376
   57SAPC  H10R 4207   2.392   3.360   9.520  1.7068  0.6364 -0.8635
   57SAPC  H10S 4208   2.520   3.449   9.594 -0.1387  2.0205  2.1561
   57SAPC  C211 4209   2.358   3.578   9.538  0.5526  0.4582 -0.0411
   57SAPC  H11R 4210   2.289   3.628   9.608  0.6454 -0.3131  0.6020
   57SAPC  C212 4211   2.393   3.637   9.421 -0.6141 -0.3621  0.0351
   57SAPC  H12R 4212   2.348   3.734   9.394 -2.3500 -0.7598  1.3652
   57SAPC  C213 4213   2.500   3.595   9.329  0.0677  0.5008  0.4580
   57SAPC  H13R 4214   2.534   3.495   9.362 -0.4755  0.2447  0.2489
   57SAPC  H13S 4215   2.586   3.665   9.336 -0.3580  1.1139 -0.2712
   57SAPC  C214 4216   2.453   3.593   9.182  0.3205 -0.0226  0.9041
   57SAPC  H14R 4217   2.369   3.523   9.170  1.3797 -1.1482 -0.0949
   57SAPC  C215 4218   2.499   3.667   9.077 -0.3113  0.5977 -0.3275
   57SAPC  H15R 4219   2.455   3.643   8.980  0.2682 -0.0864 -0.4234
   57SAPC  C216 4220   2.610   3.766   9.071  0.4907  0.2749 -0.1576
   57SAPC  H16R 4221   2.700   3.709   9.040 -0.7097 -1.7036 -0.0738
   57SAPC  H16S 4222   2.642   3.804   9.170 -0.9450  1.8067 -0.2585
   57SAPC  C217 4223   2.593   3.886   8.971 -0.7193  0.0694 -0.2883
   57SAPC  H17R 4224   2.559   3.848   8.873 -0.6349 -0.8176  0.0184
   57SAPC  H17S 4225   2.694   3.931   8.961 -1.2600  1.1161 -1.0581
   57SAPC  C218 4226   2.498   3.989   9.029 -0.1828 -0.7608  0.5102
   57SAPC  H18R 4227   2.527   4.002   9.136  0.3906 -1.7962  0.4891
   57SAPC  H18S 4228   2.391   3.961   9.023 -0.8173  1.7503 -0.4019
   57SAPC  C219 4229   2.510   4.128   8.953 -0.3648  0.5761 -0.5225
   57SAPC  H19R 4230   2.475   4.112   8.849  2.8550 -0.1816 -1.5317
   57SAPC  H19S 4231   2.611   4.168   8.931 -0.1535  0.5486  0.3832
   57SAPC  C220 4232   2.435   4.243   9.013 -0.0398  0.1533 -0.2711
   57SAPC  H20R 4233   2.439   4.250   9.124  0.7333 -0.6462 -0.2505
   57SAPC  H20S 4234   2.329   4.217   8.991 -0.1021 -1.4927  1.8605
   57SAPC  H20T 4235   2.459   4.342   8.968  0.6029  0.3583  0.5126
   57SAPC   C33 4236   2.001   4.256   9.906  0.0791  0.5947  0.0776
   57SAPC   H3X 4237   2.093   4.308   9.940 -0.0808  0.6885  0.3759
   57SAPC   H3Y 4238   1.916   4.318   9.943 -0.6691 -0.1235 -0.4259
   57SAPC   C34 4239   2.006   4.256   9.748  0.2665  0.1928  1.2186
   57SAPC   H4X 4240   2.002   4.363   9.718  0.9591 -0.3248 -0.8207
   57SAPC   H4Y 4241   1.918   4.207   9.700 -0.7248  2.1655  0.9420
   57SAPC   C35 4242   2.129   4.194   9.686  1.0047  0.3247  0.8832
   57SAPC   H5X 4243   2.136   4.085   9.708 -3.5246 -0.8439 -2.6862
   57SAPC   H5Y 4244   2.228   4.224   9.726  1.1300  1.8370 -0.5005
   57SAPC   C36 4245   2.133   4.194   9.535  0.3170 -0.2322  0.4608
   57SAPC   H6X 4246   2.158   4.298   9.505 -3.0668  0.1846 -1.1943
   57SAPC   H6Y 4247   2.039   4.162   9.485  0.8710 -1.7831  0.4001
   57SAPC   C37 4248   2.240   4.102   9.470 -0.3027 -0.0708 -0.3458
   57SAPC   H7X 4249   2.218   3.996   9.492  0.8553 -0.1409  0.4993
   57SAPC   H7Y 4250   2.337   4.127   9.518 -0.0539  2.1455 -1.9291
   57SAPC   C38 4251   2.241   4.119   9.320  0.0409 -0.4175 -0.0714
   57SAPC   H8X 4252   2.341   4.102   9.275 -0.1961 -0.2578 -0.6603
   57SAPC   H8Y 4253   2.214   4.226   9.306 -0.7374 -0.8612 -2.1028
   57SAPC   C39 4254   2.145   4.030   9.245 -0.4645 -0.9004  0.2139
   57SAPC   H9X 4255   2.142   4.060   9.138  3.2460 -0.9796  0.0352
   57SAPC   H9Y 4256   2.049   4.041   9.299 -1.1264 -0.4206 -1.0332
   57SAPC  C310 4257   2.187   3.886   9.261 -0.2220 -0.7487 -0.0393
   57SAPC  H10X 4258   2.176   3.847   9.364 -0.9646 -0.3301  0.0411
   57SAPC  H10Y 4259   2.296   3.875   9.239 -0.4657 -0.0866 -1.6612
   57SAPC  C311 4260   2.101   3.786   9.172 -0.6005 -0.2786 -0.7246
   57SAPC  H11X 4261   1.995   3.814   9.189 -0.4852 -0.0624 -0.3250
   57SAPC  H11Y 4262   2.126   3.686   9.214  0.7407  0.9126  1.4462
   57SAPC  C312 4263   2.134   3.786   9.020  0.5338  0.2030 -0.4925
   57SAPC  H12X 4264   2.245   3.789   9.014  0.7476 -0.3698  2.2726
   57SAPC  H12Y 4265   2.107   3.874   8.958  1.4205  0.6316 -0.2860
   57SAPC  C313 4266   2.100   3.650   8.960 -0.3246  0.2833 -0.0552
   57SAPC  H13X 4267   1.989   3.644   8.958 -0.3029  0.0573 -0.6724
   57SAPC  H13Y 4268   2.133   3.566   9.025  0.5023 -0.1951 -1.0799
   57SAPC  C314 4269   2.154   3.628   8.813  1.1926 -0.0476 -0.0861
   57SAPC  H14X 4270   2.265   3.617   8.820  1.3713 -0.5626 -2.9627
   57SAPC  H14Y 4271   2.124   3.711   8.746  1.6943 -0.6261 -1.0468
   57SAPC  C315 4272   2.104   3.499   8.745  0.3179 -0.3086 -0.1603
   57SAPC  H15X 4273   1.999   3.506   8.710  0.9140 -1.2059 -2.2572
   57SAPC  H15Y 4274   2.118   3.416   8.816  2.1612  1.3700  1.5011
   57SAPC  C316 4275   2.183   3.473   8.616  0.1098  0.0951 -0.0663
   57SAPC  H16X 4276   2.293   3.485   8.622 -0.0513  2.1612 -0.7155
   57SAPC  H16Y 4277   2.153   3.554   8.546 -0.4761 -0.6313 -0.6605
   57SAPC  C317 4278   2.168   3.326   8.555 -0.3084 -0.3732  0.4397
   57SAPC  H17X 4279   2.201   3.312   8.449 -0.5131 -0.2417  0.3587
   57SAPC  H17Y 4280   2.060   3.301   8.557 -0.4207  0.1808  2.3415
   57SAPC  C318 4281   2.236   3.211   8.628  0.0642  0.0996 -0.1168
   57SAPC  H18X 4282   2.229   3.110   8.581 -2.7764  0.4149 -0.4606
   57SAPC  H18Y 4283   2.190   3.208   8.729  0.5002 -0.1250  0.0739
   57SAPC  H18Z 4284   2.342   3.240   8.646 -0.0893  2.0524 -2.1298
   58SAPC     N 4285   4.544   0.887  10.784 -0.2630  0.0872  0.8833
   58SAPC   C12 4286   4.457   1.011  10.764  0.1324  0.6042  0.1606
   58SAPC  H12A 4287   4.443   1.060  10.859  0.7376 -1.9291  1.5924
   58SAPC  H12B 4288   4.361   0.969  10.741  0.3978  0.0177  0.1025
   58SAPC   C13 4289   4.577   0.825  10.653  0.2691  0.8997  0.8213
   58SAPC  H13A 4290   4.643   0.882  10.589  0.9218 -1.2404 -0.4857
   58SAPC  H13B 4291   4.614   0.725  10.668  0.8281  0.7087 -1.5724
   58SAPC  H13C 4292   4.486   0.809  10.597  1.0716 -1.1466  0.0399
   58SAPC   C14 4293   4.672   0.914  10.851  0.5334  0.4846 -0.1303
   58SAPC  H14A 4294   4.736   0.827  10.861  0.6050  0.4680 -0.7201
   58SAPC  H14B 4295   4.730   0.992  10.804 -0.3976  1.2410 -0.0471
   58SAPC  H14C 4296   4.654   0.944  10.953 -1.4981 -0.1905 -0.2681
   58SAPC   C15 4297   4.464   0.799  10.874 -0.2090  0.3107  0.5797
   58SAPC  H15A 4298   4.368   0.768  10.836 -0.2262  0.6793  0.3174
   58SAPC  H15B 4299   4.523   0.711  10.896 -0.6576 -0.7971 -2.4280
   58SAPC  H15C 4300   4.449   0.848  10.969 -1.0581 -0.0035  0.6106
   58SAPC   C11 4301   4.495   1.104  10.653 -0.3607  0.2241  0.2654
   58SAPC  H11A 4302   4.425   1.190  10.659 -0.5967 -0.0662  1.6718
   58SAPC  H11B 4303   4.479   1.056  10.554 -1.2453  1.6408 -0.3056
   58SAPC     P 4304   4.649   1.279  10.760 -0.1862  0.0821 -0.0325
   58SAPC   O13 4305   4.531   1.304  10.846  0.7279 -0.4848  0.5265
   58SAPC   O14 4306   4.779   1.259  10.831  0.2094 -0.6847 -0.0190
   58SAPC   O12 4307   4.625   1.159  10.658  0.0370  0.0264  0.3788
   58SAPC   O11 4308   4.668   1.395  10.658 -0.0361  0.1651 -0.4889
   58SAPC    C1 4309   4.783   1.389  10.573 -0.0402  0.1038  0.2006
   58SAPC    HA 4310   4.874   1.421  10.628  0.2347  0.2248 -0.3231
   58SAPC    HB 4311   4.783   1.283  10.539  1.3352 -0.2784  1.3573
   58SAPC    C2 4312   4.774   1.478  10.443 -0.8304  0.0611 -0.7693
   58SAPC    HS 4313   4.871   1.458  10.392 -0.6434 -0.3534 -0.2608
   58SAPC   O21 4314   4.753   1.610  10.491 -0.0977 -0.5586 -0.0801
   58SAPC   C21 4315   4.821   1.706  10.440  0.7413  0.5670  0.6259
   58SAPC   O22 4316   4.915   1.690  10.363 -0.1700 -0.0329  0.1112
   58SAPC   C22 4317   4.763   1.836  10.497 -0.4254  0.4499 -0.5023
   58SAPC   H2R 4318   4.723   1.811  10.598  2.1332 -1.5150  0.0532
   58SAPC   H2S 4319   4.838   1.916  10.510  1.9384 -1.9582  1.0656
   58SAPC    C3 4320   4.668   1.428  10.343 -0.3302 -0.3154 -0.8614
   58SAPC    HX 4321   4.567   1.426  10.389 -1.0288  1.7633 -2.2317
   58SAPC    HY 4322   4.697   1.324  10.318 -1.7716 -0.7032 -0.9829
   58SAPC   O31 4323   4.671   1.508  10.228  0.1603  0.1962  0.0925
   58SAPC   C31 4324   4.591   1.469  10.136  1.0050  0.2204  0.1696
   58SAPC   O32 4325   4.520   1.366  10.140 -0.2836 -0.6641 -0.3161
   58SAPC   C32 4326   4.590   1.560  10.012  0.9085 -0.1572  0.6594
   58SAPC   H2X 4327   4.688   1.614  10.014  0.8934 -0.1076  0.2126
   58SAPC   H2Y 4328   4.515   1.638  10.034  1.1913  0.2030  0.3729
   58SAPC   C23 4329   4.643   1.883  10.412 -0.3267  0.3627  0.5211
   58SAPC   H3R 4330   4.590   1.958  10.474 -0.2400 -1.3158  2.6644
   58SAPC   H3S 4331   4.575   1.796  10.405  0.4405 -0.4139  2.4458
   58SAPC   C24 4332   4.680   1.960  10.284  0.4256  0.2316  0.1379
   58SAPC   H4R 4333   4.708   1.881  10.211 -1.0411  1.1833 -1.4743
   58SAPC   H4S 4334   4.768   2.023  10.310  0.2450  0.3551  0.4557
   58SAPC   C25 4335   4.577   2.058  10.236 -0.4396  0.2908 -0.2718
   58SAPC   H5R 4336   4.524   2.094  10.325 -0.2792 -0.1509  0.0021
   58SAPC   C26 4337   4.528   2.086  10.111 -0.0144  0.1334 -0.8555
   58SAPC   H6R 4338   4.447   2.160  10.112 -0.8885 -0.7847  1.6053
   58SAPC   C27 4339   4.563   2.032   9.983  0.2825 -0.2133  0.1154
   58SAPC   H7R 4340   4.627   1.941   9.988  1.1303  0.4096  0.8658
   58SAPC   H7S 4341   4.627   2.107   9.932 -0.0621  0.2506  0.3642
   58SAPC   C28 4342   4.436   2.002   9.911  0.1281  0.2249  0.0228
   58SAPC   H8R 4343   4.348   1.983   9.973  1.0037  0.7136  1.4320
   58SAPC   C29 4344   4.421   1.994   9.776 -0.3359  0.0717  0.1670
   58SAPC   H9R 4345   4.324   1.957   9.740 -0.1295 -1.4709  1.1874
   58SAPC  C210 4346   4.532   2.025   9.674  0.4857  0.0205 -0.1528
   58SAPC  H10R 4347   4.538   1.943   9.598 -0.5482 -0.8677  0.6982
   58SAPC  H10S 4348   4.633   2.027   9.720 -0.4337 -0.6966  1.9727
   58SAPC  C211 4349   4.500   2.164   9.613  0.0877  0.1489 -0.3894
   58SAPC  H11R 4350   4.502   2.240   9.693  1.4453 -0.4525  0.1518
   58SAPC  C212 4351   4.481   2.194   9.481 -0.9787 -0.3435 -0.0366
   58SAPC  H12R 4352   4.459   2.296   9.446 -4.1144 -1.1999 -0.7563
   58SAPC  C213 4353   4.485   2.095   9.376  0.8035 -0.9315  0.3859
   58SAPC  H13R 4354   4.400   2.115   9.308  1.1616 -0.0148  0.2000
   58SAPC  H13S 4355   4.467   1.997   9.424 -0.3218 -0.8389  0.1716
   58SAPC  C214 4356   4.615   2.092   9.299 -0.6734 -0.1275 -0.3397
   58SAPC  H14R 4357   4.698   2.065   9.366  0.1581  0.4954 -1.1044
   58SAPC  C215 4358   4.639   2.141   9.173 -0.1087  0.0917 -0.5824
   58SAPC  H15R 4359   4.737   2.120   9.129 -0.5715 -0.0816 -1.5492
   58SAPC  C216 4360   4.524   2.186   9.084  0.2311 -0.6382 -0.0150
   58SAPC  H16R 4361   4.464   2.263   9.137  0.8986  0.9867 -1.5728
   58SAPC  H16S 4362   4.461   2.101   9.051 -0.6598 -0.6491  1.6728
   58SAPC  C217 4363   4.575   2.260   8.960  0.5162 -0.6292 -0.3312
   58SAPC  H17R 4364   4.582   2.186   8.877 -2.1464  0.1501 -1.3044
   58SAPC  H17S 4365   4.667   2.320   8.976 -2.0776  3.0092  1.8540
   58SAPC  C218 4366   4.476   2.372   8.910  0.0232  0.3909 -0.0273
   58SAPC  H18R 4367   4.448   2.438   8.995 -2.5266 -0.5460 -0.0740
   58SAPC  H18S 4368   4.385   2.320   8.874  1.5519 -2.3731 -0.0155
   58SAPC  C219 4369   4.530   2.448   8.783 -0.0392 -0.9563  0.4552
   58SAPC  H19R 4370   4.614   2.514   8.813 -1.6451 -0.1549  3.4294
   58SAPC  H19S 4371   4.455   2.526   8.759 -0.1805 -1.4829 -0.8317
   58SAPC  C220 4372   4.582   2.367   8.671  0.6225  0.0239  0.2117
   58SAPC  H20R 4373   4.496   2.305   8.641  0.3789  0.0426  0.8651
   58SAPC  H20S 4374   4.668   2.300   8.694 -1.2778 -3.1834 -1.6148
   58SAPC  H20T 4375   4.613   2.429   8.584  0.9702 -0.4862 -0.0259
   58SAPC   C33 4376   4.551   1.490   9.881 -0.8794  0.1456  0.2168
   58SAPC   H3X 4377   4.455   1.435   9.891 -0.7439 -0.2156 -0.4340
   58SAPC   H3Y 4378   4.624   1.409   9.861 -2.4140 -1.2404  0.0905
   58SAPC   C34 4379   4.553   1.587   9.764  0.6362 -0.0651 -0.0898
   58SAPC   H4X 4380   4.643   1.651   9.774  0.4337  0.2712 -0.3986
   58SAPC   H4Y 4381   4.464   1.653   9.774 -0.2067 -1.1573 -0.3521
   58SAPC   C35 4382   4.543   1.517   9.626 -0.3564  0.2044 -0.3334
   58SAPC   H5X 4383   4.445   1.467   9.616  1.3528 -3.2164 -0.6556
   58SAPC   H5Y 4384   4.625   1.444   9.609  1.0142  1.1090  2.0296
   58SAPC   C36 4385   4.537   1.623   9.516 -0.0880  0.0475  0.3182
   58SAPC   H6X 4386   4.623   1.694   9.517  0.0077  0.1000 -3.2887
   58SAPC   H6Y 4387   4.452   1.693   9.531 -1.0892 -1.1758  0.4509
   58SAPC   C37 4388   4.538   1.558   9.375  0.0402 -0.5378 -0.5100
   58SAPC   H7X 4389   4.469   1.472   9.368 -2.5815  1.1821  2.7091
   58SAPC   H7Y 4390   4.640   1.519   9.355  0.6543  0.4067  0.6997
   58SAPC   C38 4391   4.500   1.663   9.265 -0.7496  0.0456  0.1803
   58SAPC   H8X 4392   4.603   1.695   9.238 -0.5541  0.3151  1.2230
   58SAPC   H8Y 4393   4.443   1.747   9.310  1.5896  1.4940  0.5461
   58SAPC   C39 4394   4.436   1.603   9.136  0.5106  0.7256 -0.1071
   58SAPC   H9X 4395   4.334   1.562   9.157  1.0548 -1.1806 -1.0439
   58SAPC   H9Y 4396   4.486   1.511   9.101  0.0681  0.1542  0.7138
   58SAPC  C310 4397   4.434   1.712   9.025  0.4439  0.3844  0.4247
   58SAPC  H10X 4398   4.407   1.660   8.931  1.7937 -1.8803  1.2412
   58SAPC  H10Y 4399   4.541   1.743   9.016  0.4214 -0.1188 -1.9027
   58SAPC  C311 4400   4.347   1.828   9.060  0.0338 -0.0166  0.1508
   58SAPC  H11X 4401   4.359   1.915   8.992 -2.7229  1.9101  1.9735
   58SAPC  H11Y 4402   4.381   1.880   9.153 -0.5092 -0.6783  0.7249
   58SAPC  C312 4403   4.199   1.787   9.068  0.0080 -0.0433 -0.1026
   58SAPC  H12X 4404   4.178   1.717   9.152  1.2901  0.6520  0.8191
   58SAPC  H12Y 4405   4.164   1.728   8.980 -1.4075  0.4654  0.1060
   58SAPC  C313 4406   4.120   1.914   9.081  0.6853 -0.2176 -0.1979
   58SAPC  H13X 4407   4.118   1.972   8.986 -0.5986 -0.2476 -0.1995
   58SAPC  H13Y 4408   4.162   1.976   9.163  2.1018  2.6241 -2.9524
   58SAPC  C314 4409   3.972   1.887   9.126 -0.3935 -0.0395 -0.3126
   58SAPC  H14X 4410   3.910   1.979   9.111 -1.8774 -0.9048  0.3781
   58SAPC  H14Y 4411   3.965   1.869   9.236  1.8973 -0.1872 -0.1680
   58SAPC  C315 4412   3.906   1.769   9.051  0.2126  0.2047 -0.1555
   58SAPC  H15X 4413   3.973   1.682   9.063 -2.0639 -2.0356 -2.9878
   58SAPC  H15Y 4414   3.892   1.800   8.945  0.4194 -0.1071 -0.2731
   58SAPC  C316 4415   3.760   1.744   9.115  0.0786  0.6980 -0.6657
   58SAPC  H16X 4416   3.725   1.849   9.124  1.0582  0.8550  1.7583
   58SAPC  H16Y 4417   3.764   1.708   9.220  0.7095 -0.4651 -1.0796
   58SAPC  C317 4418   3.665   1.666   9.027 -0.0019  0.0472  0.5102
   58SAPC  H17X 4419   3.710   1.568   8.998  0.8729  1.0851 -1.7730
   58SAPC  H17Y 4420   3.658   1.719   8.930  0.2644 -0.7271  0.0584
   58SAPC  C318 4421   3.525   1.649   9.093 -0.0028  0.2537 -0.3578
   58SAPC  H18X 4422   3.490   1.739   9.148 -1.7715 -0.8046  0.2871
   58SAPC  H18Y 4423   3.532   1.569   9.170  0.6250  0.6004 -0.0554
   58SAPC  H18Z 4424   3.443   1.613   9.026 -0.7564  1.5958 -0.1713
   59SAPC     N 4425   6.279   3.346  11.446 -0.7362 -0.0406  0.0875
   59SAPC   C12 4426   6.126   3.355  11.453 -0.2337 -0.6340  0.2037
   59SAPC  H12A 4427   6.111   3.385  11.556 -0.9477 -0.6929  0.1162
   59SAPC  H12B 4428   6.085   3.257  11.434 -3.3366  0.6539 -0.1067
   59SAPC   C13 4429   6.337   3.256  11.553 -0.1508  1.1777 -0.0538
   59SAPC  H13A 4430   6.349   3.154  11.520  2.9826  0.6678  2.3869
   59SAPC  H13B 4431   6.438   3.286  11.579  0.0004  2.3968 -1.9886
   59SAPC  H13C 4432   6.280   3.254  11.645  2.7310  1.0812  1.8064
   59SAPC   C14 4433   6.336   3.297  11.319 -0.4834 -0.3867 -0.2592
   59SAPC  H14A 4434   6.302   3.197  11.293  3.2367 -1.4292 -1.6074
   59SAPC  H14B 4435   6.309   3.360  11.235  0.4552  1.1086  0.5443
   59SAPC  H14C 4436   6.444   3.298  11.327 -0.6625 -0.2693  2.6161
   59SAPC   C15 4437   6.330   3.482  11.483 -0.5125  0.1682 -0.0796
   59SAPC  H15A 4438   6.296   3.508  11.582  2.6702  0.5998  0.9451
   59SAPC  H15B 4439   6.438   3.480  11.488 -0.5530 -0.7075  0.6269
   59SAPC  H15C 4440   6.299   3.567  11.424 -3.0281  1.6627  3.2814
   59SAPC   C11 4441   6.045   3.447  11.357  0.2779  0.1575 -0.7909
   59SAPC  H11A 4442   6.102   3.467  11.264  0.3043  1.9362 -0.4136
   59SAPC  H11B 4443   6.043   3.552  11.395 -0.5523  0.5967 -2.0232
   59SAPC     P 4444   5.892   3.294  11.212 -0.0363  0.2164 -0.1528
   59SAPC   O13 4445   5.960   3.162  11.237 -0.0665 -0.5255 -0.2413
   59SAPC   O14 4446   5.742   3.291  11.207  0.0012  0.8256  0.7801
   59SAPC   O12 4447   5.915   3.391  11.336  0.3992 -0.3773  0.5649
   59SAPC   O11 4448   5.954   3.375  11.082  0.0940  0.5219 -0.3560
   59SAPC    C1 4449   5.869   3.422  10.977  0.4968  0.1755 -0.0504
   59SAPC    HA 4450   5.769   3.448  11.017  0.3615 -1.4846  0.7365
   59SAPC    HB 4451   5.908   3.515  10.930 -0.6807  0.6218 -0.1648
   59SAPC    C2 4452   5.853   3.309  10.867 -0.7599  0.3860 -0.2775
   59SAPC    HS 4453   5.794   3.222  10.906  0.2220 -0.4026 -0.5204
   59SAPC   O21 4454   5.988   3.268  10.830  0.0887  0.0169  0.4289
   59SAPC   C21 4455   6.000   3.137  10.793  0.6524  0.2030 -1.0907
   59SAPC   O22 4456   5.909   3.053  10.801  0.0028 -0.1101  0.5604
   59SAPC   C22 4457   6.145   3.077  10.772  0.3039  0.1888 -0.0843
   59SAPC   H2R 4458   6.214   3.162  10.790  0.0657  0.0372  1.5814
   59SAPC   H2S 4459   6.171   2.999  10.847  0.5892  1.2887  0.9739
   59SAPC    C3 4460   5.779   3.363  10.743 -0.2235 -0.5297 -0.6504
   59SAPC    HX 4461   5.822   3.464  10.722 -2.2609  0.7178  0.9519
   59SAPC    HY 4462   5.680   3.398  10.778 -0.7188 -0.2189 -2.3510
   59SAPC   O31 4463   5.789   3.284  10.620  0.3395  0.2436  0.2183
   59SAPC   C31 4464   5.689   3.202  10.601 -0.4681  0.0483 -0.3261
   59SAPC   O32 4465   5.609   3.177  10.689 -0.3714  0.4648  0.0500
   59SAPC   C32 4466   5.682   3.149  10.456  0.1791  0.2260  0.9038
   59SAPC   H2X 4467   5.648   3.234  10.393 -1.2381 -0.9221  0.0971
   59SAPC   H2Y 4468   5.600   3.074  10.463  1.2178 -0.8549  1.6340
   59SAPC   C23 4469   6.164   3.016  10.629  0.0494 -0.4038 -0.1027
   59SAPC   H3R 4470   6.167   3.096  10.552 -1.0772  0.1222  0.3923
   59SAPC   H3S 4471   6.081   2.948  10.600 -0.1203 -0.1925 -0.1151
   59SAPC   C24 4472   6.293   2.930  10.611  0.1370  0.3194 -0.5488
   59SAPC   H4R 4473   6.285   2.881  10.512 -0.1315  2.9377 -1.8813
   59SAPC   H4S 4474   6.304   2.855  10.692 -1.5020 -0.3182 -0.8877
   59SAPC   C25 4475   6.418   3.012  10.620 -1.4330  0.8691  0.1896
   59SAPC   H5R 4476   6.481   3.013  10.710  1.0307  0.5487 -1.4656
   59SAPC   C26 4477   6.474   3.081  10.513  0.0606  0.1659  0.3546
   59SAPC   H6R 4478   6.565   3.143  10.517 -0.0114  0.5460 -2.6347
   59SAPC   C27 4479   6.408   3.087  10.378 -0.0964  0.5285  0.2398
   59SAPC   H7R 4480   6.321   3.156  10.385 -0.5914  0.2418 -2.5470
   59SAPC   H7S 4481   6.360   2.991  10.348  1.4082 -0.6549  1.5416
   59SAPC   C28 4482   6.506   3.130  10.269  1.1532  0.3882  0.1595
   59SAPC   H8R 4483   6.598   3.186  10.289  1.5872  0.0958 -0.9781
   59SAPC   C29 4484   6.479   3.106  10.136 -0.6794 -0.0333 -0.3467
   59SAPC   H9R 4485   6.564   3.113  10.066  0.3988  0.0438  0.9675
   59SAPC  C210 4486   6.361   3.038  10.079 -0.1919  1.1798 -0.4536
   59SAPC  H10R 4487   6.295   2.994  10.157 -0.1810  1.7643 -0.1144
   59SAPC  H10S 4488   6.396   2.948  10.023 -1.3086 -1.9930  3.6400
   59SAPC  C211 4489   6.278   3.131  10.006 -0.2506 -0.7205 -0.1655
   59SAPC  H11R 4490   6.239   3.214  10.066 -0.7537  1.9095 -3.9256
   59SAPC  C212 4491   6.252   3.135   9.878  0.6520  0.0586  0.7017
   59SAPC  H12R 4492   6.194   3.217   9.834  0.9524  0.4536  1.0274
   59SAPC  C213 4493   6.310   3.034   9.778 -0.3666  0.0230  0.0783
   59SAPC  H13R 4494   6.240   3.004   9.697 -0.2324  2.0721 -0.8052
   59SAPC  H13S 4495   6.338   2.934   9.819  1.8819  0.7133  0.2926
   59SAPC  C214 4496   6.434   3.101   9.722  0.4703  0.4232  0.1528
   59SAPC  H14R 4497   6.524   3.108   9.785 -0.2273  1.2445  1.0795
   59SAPC  C215 4498   6.438   3.162   9.604 -0.9835 -0.7122 -0.5790
   59SAPC  H15R 4499   6.537   3.200   9.573  0.0032 -0.4595  2.6751
   59SAPC  C216 4500   6.322   3.194   9.517  0.1122 -0.5389 -0.0372
   59SAPC  H16R 4501   6.345   3.294   9.475 -0.3745  0.3698  1.7872
   59SAPC  H16S 4502   6.225   3.196   9.572  1.4074  0.7098  2.3095
   59SAPC  C217 4503   6.299   3.102   9.395  0.2826  0.0176  0.0865
   59SAPC  H17R 4504   6.208   3.141   9.345 -0.7586  0.9941  2.6579
   59SAPC  H17S 4505   6.282   2.999   9.434  1.2071  0.8006  2.6851
   59SAPC  C218 4506   6.427   3.110   9.301 -0.3260  0.2169 -0.5455
   59SAPC  H18R 4507   6.520   3.087   9.357  0.1091 -0.8800 -1.7102
   59SAPC  H18S 4508   6.437   3.213   9.264  1.5462 -0.2541 -1.3749
   59SAPC  C219 4509   6.415   3.020   9.175 -1.8261 -0.8440 -0.2710
   59SAPC  H19R 4510   6.399   2.914   9.206  2.2276 -1.2109  0.8333
   59SAPC  H19S 4511   6.508   3.023   9.115 -0.8289  0.8858  1.3181
   59SAPC  C220 4512   6.305   3.039   9.072  0.1054  0.7364  0.8766
   59SAPC  H20R 4513   6.279   3.146   9.052 -1.2572  0.5198  1.4813
   59SAPC  H20S 4514   6.213   2.991   9.110 -1.0548  0.9552 -1.5336
   59SAPC  H20T 4515   6.337   2.985   8.981  0.9402  1.2206  0.8764
   59SAPC   C33 4516   5.813   3.106  10.397 -0.5413  0.0881 -0.1069
   59SAPC   H3X 4517   5.845   3.028  10.469 -1.5473  0.0588  0.3177
   59SAPC   H3Y 4518   5.893   3.183  10.390  2.8235 -3.1439  1.3418
   59SAPC   C34 4519   5.806   3.051  10.255  0.4814 -0.7532  0.2504
   59SAPC   H4X 4520   5.705   3.013  10.231 -0.9645  3.9072 -1.5386
   59SAPC   H4Y 4521   5.868   2.959  10.256  0.7495 -0.5831  3.2490
   59SAPC   C35 4522   5.855   3.148  10.146  0.5243  0.0139 -1.3233
   59SAPC   H5X 4523   5.948   3.195  10.183  0.0091 -0.3521  0.4682
   59SAPC   H5Y 4524   5.784   3.234  10.140  0.6903  0.2958  0.6085
   59SAPC   C36 4525   5.879   3.075  10.011 -0.3217  0.1913  0.6057
   59SAPC   H6X 4526   5.806   2.991  10.008 -1.4641  1.2241 -2.4652
   59SAPC   H6Y 4527   5.975   3.020  10.014  0.0535  0.6495 -1.9240
   59SAPC   C37 4528   5.869   3.177   9.891 -1.0956 -0.0468 -0.4699
   59SAPC   H7X 4529   5.946   3.256   9.903 -0.6799 -0.6841  1.2423
   59SAPC   H7Y 4530   5.765   3.214   9.899 -0.4300  1.6044  0.6035
   59SAPC   C38 4531   5.875   3.098   9.754 -0.2040 -0.2994 -0.2616
   59SAPC   H8X 4532   5.788   3.031   9.742 -1.8370  1.9235 -1.1200
   59SAPC   H8Y 4533   5.966   3.034   9.762 -1.0582 -1.2791  1.7548
   59SAPC   C39 4534   5.867   3.192   9.636  0.1056  0.7314 -0.6742
   59SAPC   H9X 4535   5.959   3.255   9.631  0.7048 -0.1145 -0.3740
   59SAPC   H9Y 4536   5.780   3.260   9.651  0.8139  1.1985  1.4251
   59SAPC  C310 4537   5.847   3.115   9.501  0.0551  0.1848  0.7954
   59SAPC  H10X 4538   5.752   3.058   9.506  0.3432 -0.3544  0.2518
   59SAPC  H10Y 4539   5.933   3.048   9.480  0.1591 -0.1730  2.3547
   59SAPC  C311 4540   5.843   3.216   9.384  0.3563  0.3287 -0.3806
   59SAPC  H11X 4541   5.947   3.251   9.365  1.1852 -1.5534  0.4894
   59SAPC  H11Y 4542   5.780   3.300   9.419  2.0319  1.7184 -0.6062
   59SAPC  C312 4543   5.789   3.165   9.254 -0.0156 -0.2971 -0.1878
   59SAPC  H12X 4544   5.823   3.235   9.174 -4.1928  2.7951  0.5632
   59SAPC  H12Y 4545   5.679   3.171   9.238 -0.0539 -0.2278  0.0992
   59SAPC  C313 4546   5.839   3.026   9.224  0.5365  0.0546 -0.1721
   59SAPC  H13X 4547   5.784   2.959   9.294 -0.6041  0.4670 -0.6532
   59SAPC  H13Y 4548   5.948   3.009   9.233  0.5712 -1.1546 -2.5449
   59SAPC  C314 4549   5.801   2.987   9.077 -1.2859 -0.6578 -0.4468
   59SAPC  H14X 4550   5.692   2.999   9.059 -0.8968  0.0357 -2.4436
   59SAPC  H14Y 4551   5.823   2.878   9.077  2.0449 -0.0273 -1.1708
   59SAPC  C315 4552   5.887   3.049   8.971  0.4484 -0.0399 -0.7364
   59SAPC  H15X 4553   5.980   2.991   8.957  0.7372  0.2823 -0.1703
   59SAPC  H15Y 4554   5.916   3.149   9.010  0.1165 -0.0098 -0.5640
   59SAPC  C316 4555   5.811   3.078   8.834 -0.3349  0.6436 -0.5564
   59SAPC  H16X 4556   5.735   2.997   8.832  0.4065 -0.0279 -2.2373
   59SAPC  H16Y 4557   5.870   3.063   8.742  1.7717  0.1861  0.8294
   59SAPC  C317 4558   5.753   3.223   8.833  0.0420  0.0577 -0.1139
   59SAPC  H17X 4559   5.726   3.245   8.938  1.4353 -2.1851  0.7339
   59SAPC  H17Y 4560   5.663   3.215   8.768 -0.0752 -3.0897  0.3560
   59SAPC  C318 4561   5.849   3.339   8.788  0.3029  0.7329  0.1459
   59SAPC  H18X 4562   5.946   3.332   8.841 -0.5003  0.1934  1.5602
   59SAPC  H18Y 4563   5.814   3.443   8.803  0.0388  0.2911  2.7621
   59SAPC  H18Z 4564   5.863   3.331   8.678 -1.2759  1.6383 -0.1452
   60SAPC     N 4565   0.823   1.136  11.039 -0.1355  0.5212 -0.4565
   60SAPC   C12 4566   0.723   1.234  10.982 -0.6686  0.1141  0.4642
   60SAPC  H12A 4567   0.763   1.334  10.979  3.2377 -1.2901  1.7068
   60SAPC  H12B 4568   0.640   1.243  11.051 -1.4162  1.7696 -0.6426
   60SAPC   C13 4569   0.771   1.003  11.074  0.0303  0.0345  0.8781
   60SAPC  H13A 4570   0.723   0.959  10.989 -0.1593 -0.5813  1.3016
   60SAPC  H13B 4571   0.851   0.938  11.107  1.2596 -0.0666 -2.1775
   60SAPC  H13C 4572   0.699   1.023  11.152 -1.1523 -1.6416  0.2338
   60SAPC   C14 4573   0.932   1.111  10.931 -0.0973  0.0891  0.3109
   60SAPC  H14A 4574   0.877   1.082  10.842 -0.3156 -0.5335  0.6485
   60SAPC  H14B 4575   0.985   1.204  10.918 -0.1771  0.0835 -0.0617
   60SAPC  H14C 4576   1.009   1.040  10.955 -0.2483  0.1157  0.8783
   60SAPC   C15 4577   0.896   1.194  11.161 -0.0489 -0.1050 -0.0987
   60SAPC  H15A 4578   0.977   1.129  11.187  0.2179  0.2723  0.0187
   60SAPC  H15B 4579   0.929   1.294  11.139 -1.5819  0.0877 -1.6595
   60SAPC  H15C 4580   0.827   1.207  11.244  0.8829 -1.7077  0.9453
   60SAPC   C11 4581   0.652   1.188  10.848  0.0197 -0.2787  0.0605
   60SAPC  H11A 4582   0.549   1.229  10.848 -1.4300 -3.7785  0.2311
   60SAPC  H11B 4583   0.634   1.079  10.857  2.9268 -0.6853  1.4720
   60SAPC     P 4584   0.753   1.368  10.704 -0.2229 -0.8654 -0.0066
   60SAPC   O13 4585   0.669   1.453  10.791 -0.4150 -0.0671 -0.3630
   60SAPC   O14 4586   0.895   1.413  10.692 -0.2551  0.2731  0.0761
   60SAPC   O12 4587   0.734   1.215  10.738  0.1211 -0.0427 -0.0228
   60SAPC   O11 4588   0.694   1.378  10.558  0.2906  0.0869  0.1231
   60SAPC    C1 4589   0.696   1.275  10.456  0.1154 -1.0104 -0.2560
   60SAPC    HA 4590   0.766   1.195  10.489  1.8269  1.4503  2.3331
   60SAPC    HB 4591   0.595   1.236  10.432 -1.9911  2.1002  2.9347
   60SAPC    C2 4592   0.754   1.336  10.328  1.0916 -0.0804  0.0111
   60SAPC    HS 4593   0.764   1.444  10.352 -1.1177 -0.3913  2.5528
   60SAPC   O21 4594   0.672   1.306  10.210  0.3332  0.3719  0.6023
   60SAPC   C21 4595   0.561   1.378  10.200 -0.2084 -0.2930  1.0875
   60SAPC   O22 4596   0.523   1.462  10.281 -0.2576 -0.0847 -0.2856
   60SAPC   C22 4597   0.499   1.374  10.062 -0.3354  0.1086  0.0788
   60SAPC   H2R 4598   0.401   1.325  10.082  1.6239 -3.6865  0.8101
   60SAPC   H2S 4599   0.485   1.482  10.037  0.2066 -0.4495 -2.8071
   60SAPC    C3 4600   0.898   1.292  10.307  0.4661 -0.3376  0.7639
   60SAPC    HX 4601   0.896   1.181  10.303 -1.7510 -0.2511 -1.5670
   60SAPC    HY 4602   0.959   1.318  10.396  2.3682 -1.2120 -0.2574
   60SAPC   O31 4603   0.958   1.356  10.192 -0.2350 -0.1181 -0.1188
   60SAPC   C31 4604   0.963   1.285  10.086  0.1427  0.9064  0.2226
   60SAPC   O32 4605   0.948   1.165  10.072 -0.0913  0.1123  0.4426
   60SAPC   C32 4606   0.987   1.387   9.967  0.3327  0.2068 -0.4904
   60SAPC   H2X 4607   1.074   1.453   9.992  0.2355  0.3849 -0.6176
   60SAPC   H2Y 4608   0.892   1.444   9.961  0.3089  0.2600  0.3706
   60SAPC   C23 4609   0.571   1.301   9.945 -0.3341 -0.0095  0.1065
   60SAPC   H3R 4610   0.606   1.203   9.984  1.1490  0.0229 -1.1048
   60SAPC   H3S 4611   0.656   1.370   9.925 -0.5234  0.1093 -0.2778
   60SAPC   C24 4612   0.483   1.288   9.817 -0.5519  0.2411  0.4572
   60SAPC   H4R 4613   0.384   1.257   9.856 -0.3410  1.4760  2.0493
   60SAPC   H4S 4614   0.501   1.197   9.756 -1.4651  1.2348 -1.3344
   60SAPC   C25 4615   0.471   1.409   9.729 -0.1605  0.3099 -0.3889
   60SAPC   H5R 4616   0.429   1.492   9.787  0.0270  0.5238 -0.5613
   60SAPC   C26 4617   0.488   1.422   9.600 -0.3580 -0.1286 -0.3399
   60SAPC   H6R 4618   0.467   1.515   9.545 -0.6643 -0.3120 -0.5328
   60SAPC   C27 4619   0.543   1.311   9.514  0.5169  0.0333  0.7067
   60SAPC   H7R 4620   0.466   1.232   9.500 -0.5129  0.8194  1.8484
   60SAPC   H7S 4621   0.624   1.257   9.567 -0.0454 -2.0010 -0.4555
   60SAPC   C28 4622   0.598   1.361   9.381  0.0876 -0.5392  0.2914
   60SAPC   H8R 4623   0.693   1.415   9.374 -0.5333  0.4260 -0.7738
   60SAPC   C29 4624   0.526   1.361   9.268 -0.0749 -0.2108  0.3759
   60SAPC   H9R 4625   0.579   1.394   9.177 -0.7088  2.3589  0.8912
   60SAPC  C210 4626   0.384   1.314   9.248  0.3051  0.5191  0.6333
   60SAPC  H10R 4627   0.334   1.294   9.345 -2.0086 -1.1069 -0.8506
   60SAPC  H10S 4628   0.377   1.223   9.186  0.3665 -0.7122  2.4083
   60SAPC  C211 4629   0.319   1.433   9.182 -0.9232 -0.7899  1.0909
   60SAPC  H11R 4630   0.260   1.495   9.252 -0.6723 -0.3634  0.9252
   60SAPC  C212 4631   0.334   1.474   9.051 -0.2729 -0.3353 -0.0797
   60SAPC  H12R 4632   0.263   1.553   9.020  1.2052  1.3932  0.8241
   60SAPC  C213 4633   0.405   1.413   8.936 -0.0284 -0.1194 -0.4076
   60SAPC  H13R 4634   0.423   1.308   8.968 -2.3156  0.3508  2.6717
   60SAPC  H13S 4635   0.509   1.452   8.939  0.9234 -2.6317  0.4111
   60SAPC  C214 4636   0.358   1.430   8.791  0.0638  0.3131 -0.2309
   60SAPC  H14R 4637   0.277   1.501   8.770  0.4356  1.0702  0.8285
   60SAPC  C215 4638   0.405   1.353   8.694 -0.9686 -0.8103  0.0546
   60SAPC  H15R 4639   0.361   1.360   8.594  1.8985 -1.6694 -1.3328
   60SAPC  C216 4640   0.514   1.250   8.710  0.2013 -0.6649 -0.2781
   60SAPC  H16R 4641   0.512   1.178   8.625 -0.4516 -1.6361  0.5403
   60SAPC  H16S 4642   0.507   1.193   8.805  5.4523 -2.6240 -0.8635
   60SAPC  C217 4643   0.658   1.313   8.713  1.2138 -0.6970 -0.3002
   60SAPC  H17R 4644   0.723   1.222   8.716  0.3813 -1.2686  0.4446
   60SAPC  H17S 4645   0.675   1.374   8.804  0.5905  0.7272 -1.1162
   60SAPC  C218 4646   0.695   1.401   8.596 -0.6267  0.2523  0.0556
   60SAPC  H18R 4647   0.658   1.502   8.624 -0.3924  0.2269  0.4608
   60SAPC  H18S 4648   0.650   1.365   8.501  0.2255 -1.1849  0.1825
   60SAPC  C219 4649   0.843   1.412   8.584  1.2478  0.5592 -1.3438
   60SAPC  H19R 4650   0.893   1.319   8.549 -2.1333 -2.8964  2.5372
   60SAPC  H19S 4651   0.880   1.436   8.685  1.5977 -0.8164 -1.1307
   60SAPC  C220 4652   0.880   1.533   8.495 -0.1243  0.1203  0.0878
   60SAPC  H20R 4653   0.989   1.519   8.477 -0.2344 -1.1667  0.3991
   60SAPC  H20S 4654   0.870   1.627   8.553 -0.8966 -1.1715  2.0858
   60SAPC  H20T 4655   0.815   1.548   8.406  0.2339  2.4114  0.1873
   60SAPC   C33 4656   0.999   1.323   9.823 -0.0350  0.2325  1.0841
   60SAPC   H3X 4657   0.909   1.259   9.808 -1.2429  2.5850 -2.1271
   60SAPC   H3Y 4658   1.082   1.249   9.818 -0.9788 -0.9920  2.8808
   60SAPC   C34 4659   1.018   1.430   9.715 -0.8704  0.4688 -0.1881
   60SAPC   H4X 4660   1.120   1.472   9.733 -0.2437 -1.1241  0.0673
   60SAPC   H4Y 4661   0.942   1.510   9.718 -0.4685  0.9147 -1.3097
   60SAPC   C35 4662   1.003   1.373   9.569 -0.4289 -0.2480 -0.3559
   60SAPC   H5X 4663   0.908   1.319   9.549  0.0411 -1.3449  0.2758
   60SAPC   H5Y 4664   1.076   1.290   9.578 -0.1157  0.2061  1.5046
   60SAPC   C36 4665   1.038   1.476   9.462  0.2654  0.0918 -0.2385
   60SAPC   H6X 4666   1.015   1.410   9.376 -0.9969  1.2054 -0.7714
   60SAPC   H6Y 4667   1.146   1.504   9.462  0.7226 -1.6513 -0.5439
   60SAPC   C37 4668   0.948   1.604   9.463  0.8482 -0.0415  0.5360
   60SAPC   H7X 4669   0.993   1.685   9.524  2.4868  0.5094 -1.3698
   60SAPC   H7Y 4670   0.850   1.588   9.515  2.0223 -1.3317  2.4226
   60SAPC   C38 4671   0.940   1.644   9.316  0.5634  1.0413  0.3018
   60SAPC   H8X 4672   0.917   1.552   9.259 -1.1409  0.3090  2.1138
   60SAPC   H8Y 4673   1.040   1.679   9.283  1.1432 -0.8837 -0.0140
   60SAPC   C39 4674   0.825   1.739   9.292  0.9451 -0.3919  0.1566
   60SAPC   H9X 4675   0.848   1.832   9.349 -0.4307  0.0833 -0.0445
   60SAPC   H9Y 4676   0.721   1.712   9.322  1.2206 -0.0132  1.4932
   60SAPC  C310 4677   0.809   1.787   9.140  0.0993  0.1768 -0.1233
   60SAPC  H10X 4678   0.910   1.819   9.105 -0.3420  2.9015  0.9954
   60SAPC  H10Y 4679   0.741   1.874   9.138 -0.3119 -0.1427 -2.8841
   60SAPC  C311 4680   0.756   1.673   9.051 -0.0676 -0.4433  0.0260
   60SAPC  H11X 4681   0.669   1.624   9.100 -0.0146 -1.4956 -0.9219
   60SAPC  H11Y 4682   0.828   1.590   9.037  0.8867  0.5334 -1.0110
   60SAPC  C312 4683   0.718   1.720   8.907 -0.0593 -0.1395 -0.3722
   60SAPC  H12X 4684   0.629   1.786   8.918  0.6305  0.8198 -0.5012
   60SAPC  H12Y 4685   0.684   1.625   8.860  2.7784 -1.5317  0.2431
   60SAPC  C313 4686   0.828   1.798   8.833  0.4682  0.7434  1.2262
   60SAPC  H13X 4687   0.915   1.736   8.805 -0.0232  0.4401  0.3680
   60SAPC  H13Y 4688   0.864   1.876   8.904 -0.7212  0.6473  1.9419
   60SAPC  C314 4689   0.764   1.866   8.711  0.6154  0.9016 -0.3361
   60SAPC  H14X 4690   0.676   1.921   8.750 -0.1511  0.1154 -0.9359
   60SAPC  H14Y 4691   0.728   1.789   8.639 -2.4403  1.8036  0.1354
   60SAPC  C315 4692   0.856   1.954   8.619 -0.3243 -0.4968 -1.0704
   60SAPC  H15X 4693   0.927   1.885   8.571  0.0235 -1.6792  1.0778
   60SAPC  H15Y 4694   0.902   2.031   8.685 -1.2143 -0.7118 -0.1855
   60SAPC  C316 4695   0.778   2.026   8.512  0.1608  0.5993 -0.1033
   60SAPC  H16X 4696   0.695   2.076   8.568 -0.2418  1.1789 -1.2116
   60SAPC  H16Y 4697   0.735   1.951   8.443  0.6682 -1.6450  1.9391
   60SAPC  C317 4698   0.859   2.125   8.434 -0.5966 -0.6058  0.4901
   60SAPC  H17X 4699   0.953   2.084   8.391  0.8283  2.9563  0.0821
   60SAPC  H17Y 4700   0.900   2.204   8.500  1.1690 -1.4222  0.4009
   60SAPC  C318 4701   0.783   2.191   8.317  0.2844  0.0770 -0.4203
   60SAPC  H18X 4702   0.705   2.258   8.357 -0.2578 -0.5606 -0.4086
   60SAPC  H18Y 4703   0.734   2.104   8.268  0.0473  0.2670 -0.5205
   60SAPC  H18Z 4704   0.840   2.249   8.242 -1.7758  1.8007 -0.6789
   61SAPC     N 4705   1.895   6.466  11.030 -0.1933  0.3975  0.0155
   61SAPC   C12 4706   1.939   6.601  10.985 -0.1013  0.9120 -0.6762
   61SAPC  H12A 4707   1.871   6.639  10.910 -0.9391  1.4408  0.3506
   61SAPC  H12B 4708   2.034   6.590  10.933 -0.4638 -0.9017 -1.0112
   61SAPC   C13 4709   1.996   6.401  11.109  0.6487 -1.0672  0.0304
   61SAPC  H13A 4710   2.022   6.455  11.199 -0.9863 -0.1397 -0.0246
   61SAPC  H13B 4711   1.966   6.305  11.150 -1.3395 -0.1484  0.8243
   61SAPC  H13C 4712   2.082   6.379  11.048  2.6504  0.4628  2.2388
   61SAPC   C14 4713   1.769   6.486  11.107 -0.3426  0.3655 -0.8051
   61SAPC  H14A 4714   1.689   6.529  11.049 -1.4675 -2.3082 -1.3465
   61SAPC  H14B 4715   1.731   6.394  11.150 -1.7997  1.2161 -0.2113
   61SAPC  H14C 4716   1.796   6.553  11.187  2.8958  1.2783 -2.6068
   61SAPC   C15 4717   1.865   6.365  10.913  0.6174 -1.2186  0.1809
   61SAPC  H15A 4718   1.836   6.269  10.951 -0.0335 -0.8987  0.4928
   61SAPC  H15B 4719   1.791   6.408  10.848  2.0244 -0.8167 -1.1881
   61SAPC  H15C 4720   1.952   6.358  10.850 -0.5593 -1.4989 -1.4221
   61SAPC   C11 4721   1.971   6.710  11.094 -0.1003 -0.0771  0.5009
   61SAPC  H11A 4722   2.028   6.790  11.042  0.4986 -0.4101  0.6399
   61SAPC  H11B 4723   2.044   6.658  11.160 -1.7718 -1.1535  1.5414
   61SAPC     P 4724   1.757   6.851  11.084 -0.0661  0.0418 -0.1397
   61SAPC   O13 4725   1.618   6.830  11.140 -0.2779  0.0715 -0.1608
   61SAPC   O14 4726   1.810   6.986  11.109  0.2188  0.3452 -0.0034
   61SAPC   O12 4727   1.850   6.753  11.163  0.0869 -0.1021  0.3711
   61SAPC   O11 4728   1.759   6.814  10.926  0.4339  0.2458  0.9654
   61SAPC    C1 4729   1.794   6.915  10.829  0.0356  0.5383 -0.2486
   61SAPC    HA 4730   1.850   7.000  10.872  2.5952 -0.9278 -0.6082
   61SAPC    HB 4731   1.852   6.860  10.751  1.1034 -0.0662  0.9686
   61SAPC    C2 4732   1.669   6.979  10.753 -0.4582 -0.2817  0.0666
   61SAPC    HS 4733   1.610   7.038  10.826 -2.2284  0.1813 -1.7060
   61SAPC   O21 4734   1.593   6.873  10.693 -0.3023  0.7233 -0.6955
   61SAPC   C21 4735   1.478   6.918  10.643 -0.2636 -0.1471 -0.5739
   61SAPC   O22 4736   1.433   7.030  10.668 -0.0300 -0.1151  0.6813
   61SAPC   C22 4737   1.413   6.809  10.559  0.0109 -0.0499  0.2840
   61SAPC   H2R 4738   1.475   6.791  10.469  0.7130 -1.6782  1.0736
   61SAPC   H2S 4739   1.419   6.713  10.615  0.3156  1.2851  2.5899
   61SAPC    C3 4740   1.725   7.084  10.651 -0.6404 -0.1268 -0.0105
   61SAPC    HX 4741   1.770   7.157  10.722  1.7141 -0.7766 -0.7916
   61SAPC    HY 4742   1.637   7.117  10.591 -2.4979 -2.2680  1.4679
   61SAPC   O31 4743   1.818   7.026  10.560 -0.0664  0.6712  0.9077
   61SAPC   C31 4744   1.942   7.086  10.549  0.4824  0.5835 -0.1585
   61SAPC   O32 4745   1.972   7.189  10.596 -0.2598  0.0869 -0.2936
   61SAPC   C32 4746   2.022   7.006  10.447 -0.3187  0.3093  0.3855
   61SAPC   H2X 4747   1.967   6.965  10.360 -0.5887 -1.8710  1.5587
   61SAPC   H2Y 4748   2.073   6.927  10.506 -3.2436 -1.3481  0.7919
   61SAPC   C23 4749   1.270   6.843  10.520 -0.0383  0.1621 -0.1649
   61SAPC   H3R 4750   1.266   6.931  10.453  2.1332  1.2976  1.1377
   61SAPC   H3S 4751   1.205   6.864  10.608  0.4173  0.2425  0.1527
   61SAPC   C24 4752   1.223   6.713  10.452  0.5403 -0.3401 -0.4781
   61SAPC   H4R 4753   1.217   6.638  10.534 -0.0325  0.6854  0.4409
   61SAPC   H4S 4754   1.302   6.666  10.389  0.1309 -1.4309 -0.1842
   61SAPC   C25 4755   1.091   6.724  10.383  0.4024 -0.5816  0.2493
   61SAPC   H5R 4756   1.010   6.734  10.457  0.5697 -0.2452  0.3915
   61SAPC   C26 4757   1.067   6.708  10.251 -0.0817 -0.2910 -0.1331
   61SAPC   H6R 4758   0.961   6.714  10.223 -0.2802 -1.2974  0.3800
   61SAPC   C27 4759   1.161   6.684  10.139  0.0907  0.0372  0.1510
   61SAPC   H7R 4760   1.119   6.602  10.078  1.0266 -0.8547  0.6959
   61SAPC   H7S 4761   1.259   6.644  10.171  0.3037  0.5334  0.1190
   61SAPC   C28 4762   1.190   6.808  10.061  0.0337 -0.3208 -0.4292
   61SAPC   H8R 4763   1.272   6.871  10.101 -0.7303 -1.1146  2.4718
   61SAPC   C29 4764   1.133   6.835   9.938 -0.2097  0.7531  0.2198
   61SAPC   H9R 4765   1.139   6.931   9.884  1.2312 -0.1151 -1.2413
   61SAPC  C210 4766   1.022   6.745   9.872 -0.3931 -0.4797  0.3537
   61SAPC  H10R 4767   0.978   6.821   9.804  1.4678  1.4869  1.2811
   61SAPC  H10S 4768   0.957   6.688   9.941  0.3667 -0.6798  0.9124
   61SAPC  C211 4769   1.096   6.643   9.789 -0.1773  0.0745 -0.4607
   61SAPC  H11R 4770   1.164   6.578   9.845 -0.8603  0.8112  1.2697
   61SAPC  C212 4771   1.090   6.623   9.658  0.5084 -0.0015  0.1676
   61SAPC  H12R 4772   1.156   6.546   9.617  0.3544  1.0054 -2.0381
   61SAPC  C213 4773   1.008   6.696   9.552  0.3629  0.7870 -0.4626
   61SAPC  H13R 4774   0.921   6.744   9.603 -0.9814  0.4940 -2.4095
   61SAPC  H13S 4775   0.966   6.618   9.485  0.1670  0.0636  0.4918
   61SAPC  C214 4776   1.087   6.808   9.488  0.1352 -0.2781 -0.4905
   61SAPC  H14R 4777   1.109   6.898   9.548  1.8444 -1.4042  0.6252
   61SAPC  C215 4778   1.139   6.802   9.369 -0.2706 -0.3307 -0.8841
   61SAPC  H15R 4779   1.168   6.896   9.319 -0.1611 -1.7087 -3.4821
   61SAPC  C216 4780   1.133   6.688   9.265 -0.8635  0.1187  0.3461
   61SAPC  H16R 4781   1.106   6.589   9.308 -0.9294 -0.5982 -1.3297
   61SAPC  H16S 4782   1.213   6.668   9.190 -1.9230 -2.4756 -0.1537
   61SAPC  C217 4783   1.011   6.722   9.163 -0.5233 -0.6123 -0.4060
   61SAPC  H17R 4784   1.029   6.672   9.066 -0.5081 -0.0898 -0.6728
   61SAPC  H17S 4785   1.016   6.830   9.138  2.1569 -0.3629  1.0184
   61SAPC  C218 4786   0.879   6.669   9.209  0.0462 -0.8454 -0.2225
   61SAPC  H18R 4787   0.882   6.697   9.316  2.2539 -0.2993 -0.4035
   61SAPC  H18S 4788   0.868   6.559   9.195  1.7771 -1.1115  0.4224
   61SAPC  C219 4789   0.767   6.727   9.133  0.6683  0.0340  0.7840
   61SAPC  H19R 4790   0.748   6.822   9.189 -1.1292 -0.8580  1.7556
   61SAPC  H19S 4791   0.683   6.655   9.146  2.9332 -2.9572 -0.8172
   61SAPC  C220 4792   0.786   6.743   8.984 -0.3205 -0.3185 -0.1094
   61SAPC  H20R 4793   0.816   6.646   8.938 -0.4524 -0.4916  0.1689
   61SAPC  H20S 4794   0.868   6.816   8.963 -1.1735  0.8738  0.6745
   61SAPC  H20T 4795   0.698   6.779   8.927 -0.5245  1.0591  1.0638
   61SAPC   C33 4796   2.146   7.087  10.377 -0.2044  0.6144 -0.2376
   61SAPC   H3X 4797   2.243   7.034  10.388 -1.0879 -0.7940  0.8019
   61SAPC   H3Y 4798   2.162   7.189  10.420 -0.2677 -0.2668  1.9330
   61SAPC   C34 4799   2.132   7.103  10.221 -0.0540 -0.1092  0.4117
   61SAPC   H4X 4800   2.140   7.004  10.171 -0.0791  0.3000 -0.4072
   61SAPC   H4Y 4801   2.208   7.175  10.183 -0.0435 -0.5696 -0.4417
   61SAPC   C35 4802   1.997   7.170  10.201  0.0981  0.2467  0.1281
   61SAPC   H5X 4803   1.972   7.241  10.283 -1.6664  0.6002 -0.6885
   61SAPC   H5Y 4804   1.919   7.091  10.197 -0.7688  1.0586  0.6697
   61SAPC   C36 4805   1.987   7.239  10.064  0.2932 -0.2187  0.6487
   61SAPC   H6X 4806   2.078   7.302  10.052 -0.4525  0.6068 -0.7944
   61SAPC   H6Y 4807   1.901   7.310  10.065  0.8476  0.5061 -1.0013
   61SAPC   C37 4808   1.980   7.143   9.948  0.5058  0.3599 -0.8110
   61SAPC   H7X 4809   1.903   7.064   9.941  0.9319 -0.3082  1.6032
   61SAPC   H7Y 4810   2.080   7.093   9.946  0.7423  0.7353  0.6846
   61SAPC   C38 4811   1.956   7.220   9.817  0.2631  0.3460  0.3764
   61SAPC   H8X 4812   2.014   7.315   9.826  1.3752 -0.2597 -0.2470
   61SAPC   H8Y 4813   1.847   7.239   9.810 -0.1778 -1.7195  1.3816
   61SAPC   C39 4814   1.986   7.150   9.683 -0.1313 -0.0303 -0.4678
   61SAPC   H9X 4815   2.001   7.043   9.707  0.0973 -0.2362 -1.5522
   61SAPC   H9Y 4816   2.082   7.193   9.647 -0.9770  3.1399  0.8743
   61SAPC  C310 4817   1.869   7.166   9.584  0.0993 -0.1623  0.4335
   61SAPC  H10X 4818   1.852   7.275   9.596  2.0945  0.2435 -0.2858
   61SAPC  H10Y 4819   1.795   7.095   9.628 -0.0449 -1.2913 -1.5831
   61SAPC  C311 4820   1.913   7.131   9.446 -0.4483  0.9164  0.8566
   61SAPC  H11X 4821   1.936   7.025   9.424  0.0455  1.3258 -0.6899
   61SAPC  H11Y 4822   1.998   7.191   9.405 -1.3226  2.0022  0.5861
   61SAPC  C312 4823   1.795   7.171   9.359  0.5234  0.3943  0.8974
   61SAPC  H12X 4824   1.751   7.270   9.385  0.0055  0.1153  1.0770
   61SAPC  H12Y 4825   1.728   7.089   9.392 -0.6953  0.9427 -0.1961
   61SAPC  C313 4826   1.829   7.178   9.207 -0.8067 -0.2108 -0.1515
   61SAPC  H13X 4827   1.829   7.078   9.160  1.6267  0.3190 -1.3679
   61SAPC  H13Y 4828   1.933   7.215   9.201  0.0237 -2.3470  0.7429
   61SAPC  C314 4829   1.742   7.266   9.120 -0.6125  0.0456 -0.8726
   61SAPC  H14X 4830   1.727   7.361   9.175  0.5431  0.6458 -1.5671
   61SAPC  H14Y 4831   1.642   7.220   9.106 -0.4302 -0.0023 -2.0880
   61SAPC  C315 4832   1.808   7.304   8.986  0.9424  0.6122  0.1080
   61SAPC  H15X 4833   1.912   7.337   9.009  1.0682 -0.7132  1.5641
   61SAPC  H15Y 4834   1.761   7.398   8.950  0.0106  0.4717  0.9359
   61SAPC  C316 4835   1.798   7.201   8.875 -0.3908 -0.0145 -0.5824
   61SAPC  H16X 4836   1.690   7.176   8.867 -0.9358  1.6400  1.2567
   61SAPC  H16Y 4837   1.851   7.108   8.906 -0.7628 -1.0991 -3.1041
   61SAPC  C317 4838   1.836   7.263   8.735  0.5093  0.2579 -0.3774
   61SAPC  H17X 4839   1.911   7.345   8.735  1.1757 -0.3263 -1.9291
   61SAPC  H17Y 4840   1.745   7.317   8.700 -0.3498 -0.6756  0.3858
   61SAPC  C318 4841   1.883   7.148   8.642  0.3258  0.3477 -0.3657
   61SAPC  H18X 4842   1.795   7.088   8.611 -0.2565  1.3646 -0.7128
   61SAPC  H18Y 4843   1.962   7.084   8.687  0.3046  0.0520 -0.7468
   61SAPC  H18Z 4844   1.927   7.183   8.546  2.5320 -0.4688  0.3247
   62SAPC     N 4845   0.906   5.612  10.924  0.4939  0.3441  0.8411
   62SAPC   C12 4846   0.829   5.636  10.793 -0.6448 -0.0466  0.5294
   62SAPC  H12A 4847   0.724   5.652  10.814  0.2131  1.9462  3.5603
   62SAPC  H12B 4848   0.826   5.542  10.739 -0.8902 -0.6901  1.6398
   62SAPC   C13 4849   0.861   5.484  10.990  0.0073  0.3546 -0.3954
   62SAPC  H13A 4850   0.890   5.397  10.933 -2.3274 -1.5774  1.2588
   62SAPC  H13B 4851   0.895   5.486  11.092  1.9807  3.2495 -1.0642
   62SAPC  H13C 4852   0.753   5.483  10.987 -0.0244 -0.6669  0.7032
   62SAPC   C14 4853   1.047   5.605  10.891  0.4442 -0.1759  0.9713
   62SAPC  H14A 4854   1.064   5.544  10.804  1.9196 -0.7434  1.6217
   62SAPC  H14B 4855   1.092   5.702  10.875  0.3128 -0.0972  1.0843
   62SAPC  H14C 4856   1.098   5.552  10.971 -1.3769 -0.3687  2.0349
   62SAPC   C15 4857   0.879   5.717  11.027 -0.1716  0.1318  0.7634
   62SAPC  H15A 4858   0.776   5.722  11.059 -0.4459 -0.0992 -0.0741
   62SAPC  H15B 4859   0.930   5.686  11.118  1.8142  1.2329  0.0486
   62SAPC  H15C 4860   0.927   5.812  11.013  2.1709 -0.8901  1.4654
   62SAPC   C11 4861   0.870   5.750  10.686  0.2774  0.1484  0.3820
   62SAPC  H11A 4862   0.830   5.719  10.588  3.3478 -0.8047 -0.6269
   62SAPC  H11B 4863   0.981   5.748  10.676  0.5101  2.5935  1.8590
   62SAPC     P 4864   0.672   5.923  10.729  0.0787 -0.3489  0.1109
   62SAPC   O13 4865   0.590   5.805  10.753  0.2658  0.2763  0.1516
   62SAPC   O14 4866   0.664   6.038  10.814  1.0564  0.9924 -0.2844
   62SAPC   O12 4867   0.825   5.882  10.727  0.5341 -0.9565 -0.3161
   62SAPC   O11 4868   0.649   5.978  10.583 -0.1584 -0.4914  0.4540
   62SAPC    C1 4869   0.676   5.904  10.458 -0.2541 -0.4094 -0.2586
   62SAPC    HA 4870   0.779   5.862  10.460  0.1102  0.4370 -0.6859
   62SAPC    HB 4871   0.603   5.822  10.445 -0.2205 -0.6618  1.0245
   62SAPC    C2 4872   0.665   5.996  10.332 -0.1617  0.9081 -0.7860
   62SAPC    HS 4873   0.661   5.927  10.245  1.7208  1.4710 -1.3603
   62SAPC   O21 4874   0.778   6.081  10.317 -0.2843  0.6201 -0.5960
   62SAPC   C21 4875   0.786   6.147  10.201  0.6857 -0.2562  0.1003
   62SAPC   O22 4876   0.742   6.107  10.096  0.4309  0.8673  0.3705
   62SAPC   C22 4877   0.839   6.291  10.224  0.5961  0.0809 -0.0214
   62SAPC   H2R 4878   0.783   6.330  10.312 -0.1588 -0.0856 -0.4226
   62SAPC   H2S 4879   0.946   6.278  10.251 -0.2112 -3.6687  1.7510
   62SAPC    C3 4880   0.527   6.072  10.342  0.3429  0.2761 -0.4794
   62SAPC    HX 4881   0.538   6.160  10.409 -1.4043  0.5322 -0.5007
   62SAPC    HY 4882   0.457   6.008  10.400 -0.1021  0.3585 -0.9262
   62SAPC   O31 4883   0.473   6.104  10.211 -0.1477  0.2861 -0.0256
   62SAPC   C31 4884   0.413   5.995  10.155  0.2023  0.1791 -0.2391
   62SAPC   O32 4885   0.421   5.882  10.192 -0.0130  0.5335 -0.7072
   62SAPC   C32 4886   0.349   6.036  10.025 -0.2928 -0.4791 -0.3610
   62SAPC   H2X 4887   0.418   6.099   9.964 -1.3571  0.4597 -0.6089
   62SAPC   H2Y 4888   0.252   6.085  10.050 -0.5163 -0.5791 -1.0301
   62SAPC   C23 4889   0.837   6.391  10.108 -0.4134 -0.6795  0.8808
   62SAPC   H3R 4890   0.897   6.346  10.027  0.1918  1.0958  0.3368
   62SAPC   H3S 4891   0.898   6.476  10.145 -1.2156  0.7296 -0.9680
   62SAPC   C24 4892   0.702   6.434  10.052  0.1969 -0.3561  0.3878
   62SAPC   H4R 4893   0.650   6.485  10.136 -0.9318 -0.8610  0.0080
   62SAPC   H4S 4894   0.642   6.347  10.019  0.1016 -0.3808  0.6218
   62SAPC   C25 4895   0.708   6.525   9.932 -0.5370  0.3939  0.1230
   62SAPC   H5R 4896   0.725   6.632   9.954 -2.3759  0.6117  0.5934
   62SAPC   C26 4897   0.713   6.478   9.806  0.0390 -0.4907 -1.1160
   62SAPC   H6R 4898   0.697   6.554   9.728 -1.0862  0.3368 -0.0997
   62SAPC   C27 4899   0.715   6.332   9.759  0.1555  0.3678  0.2680
   62SAPC   H7R 4900   0.623   6.300   9.705 -0.0949 -0.0069  0.9169
   62SAPC   H7S 4901   0.730   6.267   9.847  2.2680  3.0018  1.9520
   62SAPC   C28 4902   0.837   6.324   9.673  0.2251 -0.0332  0.2586
   62SAPC   H8R 4903   0.929   6.315   9.731 -0.8563  0.6929  2.1144
   62SAPC   C29 4904   0.842   6.310   9.537 -0.2730  0.0718  0.0040
   62SAPC   H9R 4905   0.941   6.313   9.490  0.3656 -3.8345  0.8909
   62SAPC  C210 4906   0.723   6.295   9.447  0.7006 -0.4868 -0.2344
   62SAPC  H10R 4907   0.736   6.375   9.370  0.9193  0.6535  0.9697
   62SAPC  H10S 4908   0.643   6.351   9.501  2.1392 -0.6632  2.1478
   62SAPC  C211 4909   0.680   6.155   9.405 -0.4872  0.3629 -0.2642
   62SAPC  H11R 4910   0.680   6.075   9.481 -2.0776  0.4917 -0.0995
   62SAPC  C212 4911   0.628   6.116   9.287  0.5569 -0.0696 -0.3914
   62SAPC  H12R 4912   0.614   6.007   9.277 -1.7573  0.3173 -1.6281
   62SAPC  C213 4913   0.599   6.208   9.171  0.7559 -0.6727  0.7022
   62SAPC  H13R 4914   0.577   6.308   9.213 -0.6636 -0.1053 -1.2788
   62SAPC  H13S 4915   0.506   6.180   9.116  1.4190  0.3468 -0.9520
   62SAPC  C214 4916   0.714   6.226   9.080  0.3968 -0.2440  0.5250
   62SAPC  H14R 4917   0.809   6.177   9.107  0.0595 -1.0139  0.3240
   62SAPC  C215 4918   0.724   6.305   8.974 -0.6528 -0.3327  0.0825
   62SAPC  H15R 4919   0.827   6.314   8.935 -0.1667  2.4769  1.8395
   62SAPC  C216 4920   0.610   6.386   8.910  0.0329 -0.2113 -0.1566
   62SAPC  H16R 4921   0.607   6.489   8.950 -2.1388 -0.2412 -0.1648
   62SAPC  H16S 4922   0.509   6.342   8.928  0.1889 -1.4686 -2.1264
   62SAPC  C217 4923   0.623   6.390   8.758  0.5894  0.1184  0.4467
   62SAPC  H17R 4924   0.557   6.470   8.719  0.8884 -1.2038 -2.9106
   62SAPC  H17S 4925   0.584   6.294   8.716 -0.3873  1.2035 -1.1686
   62SAPC  C218 4926   0.765   6.421   8.707 -0.8144  0.7022 -0.1471
   62SAPC  H18R 4927   0.833   6.335   8.728 -3.4464 -1.3221  0.2777
   62SAPC  H18S 4928   0.800   6.511   8.761  0.1767  1.0480 -1.3248
   62SAPC  C219 4929   0.763   6.442   8.554 -0.7136  0.0258  0.1949
   62SAPC  H19R 4930   0.696   6.528   8.531 -0.2128  0.3525 -0.0652
   62SAPC  H19S 4931   0.720   6.355   8.500  0.6444 -0.3339 -0.3368
   62SAPC  C220 4932   0.904   6.463   8.502 -0.5086  0.8043 -0.2881
   62SAPC  H20R 4933   0.907   6.510   8.402  0.8771 -0.6983 -0.9663
   62SAPC  H20S 4934   0.955   6.366   8.484 -1.2986  0.0753  1.3248
   62SAPC  H20T 4935   0.973   6.523   8.566 -1.1924  0.1415  1.1082
   62SAPC   C33 4936   0.301   5.910   9.937 -0.4972 -0.2080  0.1155
   62SAPC   H3X 4937   0.203   5.879   9.980 -1.4832 -2.1217 -3.3251
   62SAPC   H3Y 4938   0.375   5.828   9.952  0.5777  0.3194 -2.0482
   62SAPC   C34 4939   0.309   5.938   9.782 -0.1857  0.1604 -0.5168
   62SAPC   H4X 4940   0.389   6.014   9.764  0.4593 -0.5622 -0.7028
   62SAPC   H4Y 4941   0.210   5.987   9.769 -0.7692 -0.7725  0.3622
   62SAPC   C35 4942   0.336   5.821   9.689 -0.3565 -0.0753  0.5697
   62SAPC   H5X 4943   0.306   5.858   9.589  0.4812 -2.6054 -0.6558
   62SAPC   H5Y 4944   0.254   5.747   9.701 -0.5609 -0.0786 -0.8122
   62SAPC   C36 4945   0.479   5.759   9.690  0.1500 -0.1677  0.0429
   62SAPC   H6X 4946   0.479   5.704   9.787 -1.0212  0.6689  0.5256
   62SAPC   H6Y 4947   0.544   5.850   9.692 -0.4940  0.3034 -0.4300
   62SAPC   C37 4948   0.520   5.678   9.565  0.7018 -0.0073  0.1381
   62SAPC   H7X 4949   0.438   5.603   9.558 -0.1751  0.9573 -0.0148
   62SAPC   H7Y 4950   0.616   5.629   9.593 -0.3711 -1.5214  1.2098
   62SAPC   C38 4951   0.531   5.749   9.430  0.3548 -0.1947 -0.0422
   62SAPC   H8X 4952   0.636   5.752   9.393  0.4186  1.3549  0.2219
   62SAPC   H8Y 4953   0.497   5.852   9.455 -2.2712 -1.3849  1.4487
   62SAPC   C39 4954   0.437   5.680   9.329 -0.2825  0.3204  0.5280
   62SAPC   H9X 4955   0.331   5.691   9.362  0.0143  1.0922  1.2342
   62SAPC   H9Y 4956   0.459   5.571   9.328 -1.4843  0.0605  1.0677
   62SAPC  C310 4957   0.439   5.756   9.192 -0.3035  0.2463  0.8183
   62SAPC  H10X 4958   0.538   5.737   9.145 -0.3649 -2.4175  1.6643
   62SAPC  H10Y 4959   0.423   5.864   9.208  0.9225  0.7047 -0.9187
   62SAPC  C311 4960   0.340   5.705   9.092 -0.2926  0.0543 -0.3043
   62SAPC  H11X 4961   0.259   5.664   9.157 -0.1440  0.8195  0.3699
   62SAPC  H11Y 4962   0.385   5.616   9.043 -2.0476 -0.3241 -1.3025
   62SAPC  C312 4963   0.316   5.794   8.969 -0.0478 -0.5903 -0.4393
   62SAPC  H12X 4964   0.236   5.869   8.988  2.3531  2.6858 -2.5867
   62SAPC  H12Y 4965   0.296   5.725   8.884 -1.6628  0.8248 -1.2276
   62SAPC  C313 4966   0.434   5.886   8.927 -0.4254 -0.7188  0.6242
   62SAPC  H13X 4967   0.488   5.816   8.860 -2.1691 -0.0203 -1.5656
   62SAPC  H13Y 4968   0.495   5.927   9.010 -0.9052  0.2219  0.5182
   62SAPC  C314 4969   0.385   6.011   8.857 -0.5381  0.1718 -0.3375
   62SAPC  H14X 4970   0.482   6.066   8.854 -0.0112 -0.7864 -0.8105
   62SAPC  H14Y 4971   0.314   6.074   8.915 -2.0576 -2.7355  1.0412
   62SAPC  C315 4972   0.334   6.003   8.709  0.5798  0.0830 -0.0646
   62SAPC  H15X 4973   0.225   5.990   8.724  1.1229 -1.8813  2.4318
   62SAPC  H15Y 4974   0.378   5.909   8.670  0.0603  0.0775 -0.6354
   62SAPC  C316 4975   0.383   6.112   8.620  0.5562  0.2939  0.3855
   62SAPC  H16X 4976   0.491   6.135   8.633  0.8027 -1.2021  1.1495
   62SAPC  H16Y 4977   0.339   6.210   8.647  0.4575  0.3431  0.0399
   62SAPC  C317 4978   0.358   6.086   8.474  0.4871  0.4260 -0.6409
   62SAPC  H17X 4979   0.248   6.078   8.462  0.2440  1.8488  0.6026
   62SAPC  H17Y 4980   0.404   5.991   8.438  1.3807  0.4028  0.5569
   62SAPC  C318 4981   0.404   6.202   8.381  0.3673 -0.1669  0.4078
   62SAPC  H18X 4982   0.345   6.296   8.388 -2.0489 -1.5076 -1.1835
   62SAPC  H18Y 4983   0.395   6.174   8.274  0.0150  0.0504  0.3809
   62SAPC  H18Z 4984   0.511   6.222   8.401  0.1161  0.6423  0.9882
   63SAPC     N 4985   5.143   4.886   6.456  0.6489 -0.3594  0.7116
   63SAPC   C12 4986   5.083   4.970   6.566  0.6353  0.6596 -0.0881
   63SAPC  H12A 4987   5.160   5.034   6.605  0.4067  1.3771 -0.8091
   63SAPC  H12B 4988   5.047   4.904   6.644 -0.0752 -0.5143 -1.3788
   63SAPC   C13 4989   5.248   4.799   6.517 -0.4310 -0.5300 -0.0927
   63SAPC  H13A 4990   5.212   4.715   6.574  0.2593 -0.0141  1.1284
   63SAPC  H13B 4991   5.306   4.758   6.436  1.2690  3.1695 -0.8973
   63SAPC  H13C 4992   5.315   4.859   6.578 -2.5633  0.5274  1.2631
   63SAPC   C14 4993   5.043   4.805   6.381 -0.3778  0.0550  0.4111
   63SAPC  H14A 4994   5.091   4.737   6.312 -0.5844 -0.5010  0.8121
   63SAPC  H14B 4995   4.998   4.742   6.456 -3.4417  1.5372 -0.0921
   63SAPC  H14C 4996   4.965   4.866   6.338  1.2329  0.8959 -1.4135
   63SAPC   C15 4997   5.205   4.980   6.361  0.5319  0.8570  0.0054
   63SAPC  H15A 4998   5.228   4.939   6.264 -0.1638 -0.9965  0.5894
   63SAPC  H15B 4999   5.144   5.065   6.336 -1.2463  0.6655  3.3915
   63SAPC  H15C 5000   5.300   5.021   6.391  1.4276 -0.3069 -1.2423
   63SAPC   C11 5001   4.964   5.072   6.540 -0.6184 -0.4439 -0.3677
   63SAPC  H11A 5002   4.954   5.122   6.639  3.6576 -1.2868  0.6066
   63SAPC  H11B 5003   4.868   5.024   6.511 -1.3922 -1.0373  2.9523
   63SAPC     P 5004   4.941   5.280   6.373 -0.1082 -0.0979  0.0884
   63SAPC   O13 5005   5.005   5.297   6.242  0.6786  0.3299  0.2903
   63SAPC   O14 5006   4.797   5.246   6.371  0.1174  0.2494  0.1756
   63SAPC   O12 5007   5.018   5.173   6.451  0.6825  0.3766 -0.2010
   63SAPC   O11 5008   4.960   5.412   6.454 -0.7392  0.1273 -0.0205
   63SAPC    C1 5009   5.092   5.475   6.460  0.0437 -0.3802 -0.7100
   63SAPC    HA 5010   5.167   5.424   6.396 -0.2205 -1.6811  0.0038
   63SAPC    HB 5011   5.078   5.583   6.439 -0.0140 -0.0120  1.1135
   63SAPC    C2 5012   5.154   5.449   6.603 -0.1710  0.3828 -0.2911
   63SAPC    HS 5013   5.154   5.339   6.619 -1.7479  0.0192 -2.5200
   63SAPC   O21 5014   5.080   5.524   6.701 -0.1857 -0.6894  0.3405
   63SAPC   C21 5015   5.075   5.476   6.829 -0.0805 -0.5842 -0.9394
   63SAPC   O22 5016   5.100   5.361   6.858 -0.0551  0.0928  0.2556
   63SAPC   C22 5017   5.013   5.574   6.930 -0.3929 -0.3376 -0.0706
   63SAPC   H2R 5018   5.075   5.666   6.925  0.0915 -0.6840 -0.5690
   63SAPC   H2S 5019   4.913   5.599   6.889 -0.0687 -0.2847 -0.8410
   63SAPC    C3 5020   5.296   5.503   6.615  0.1271  0.1279  0.0984
   63SAPC    HX 5021   5.283   5.613   6.630  1.0861  0.1649  0.7412
   63SAPC    HY 5022   5.347   5.492   6.517 -0.2302 -2.6104  0.1856
   63SAPC   O31 5023   5.376   5.453   6.729 -0.5040  0.1080 -0.4085
   63SAPC   C31 5024   5.473   5.368   6.699  0.5340  0.9818  0.7332
   63SAPC   O32 5025   5.487   5.321   6.588 -0.0844  0.1579 -0.4832
   63SAPC   C32 5026   5.558   5.323   6.810  0.7770 -0.3196  0.0226
   63SAPC   H2X 5027   5.522   5.218   6.819  1.9967 -0.7423 -0.0031
   63SAPC   H2Y 5028   5.553   5.366   6.912 -2.5744  2.3592 -1.1468
   63SAPC   C23 5029   5.021   5.518   7.076  0.5059 -0.3896 -0.3333
   63SAPC   H3R 5030   5.129   5.525   7.102  0.9108 -2.6096 -1.2947
   63SAPC   H3S 5031   4.985   5.413   7.081 -0.4364 -0.0892 -0.5999
   63SAPC   C24 5032   4.934   5.603   7.172 -0.2645  0.2838 -0.2431
   63SAPC   H4R 5033   4.870   5.537   7.234 -0.1699 -0.1750 -0.6255
   63SAPC   H4S 5034   4.865   5.669   7.115 -0.8802 -0.6812 -0.6373
   63SAPC   C25 5035   5.016   5.702   7.251  0.1098 -0.1205  0.1076
   63SAPC   H5R 5036   5.043   5.787   7.187 -0.8707  1.2156  1.4276
   63SAPC   C26 5037   5.046   5.700   7.381  0.1514 -0.1906  0.9598
   63SAPC   H6R 5038   5.096   5.784   7.431 -1.0607  0.0782  1.7412
   63SAPC   C27 5039   5.014   5.584   7.469 -0.2440  0.1619 -0.3765
   63SAPC   H7R 5040   5.110   5.550   7.514 -0.1705  0.9360  0.0525
   63SAPC   H7S 5041   4.957   5.505   7.415  1.5251 -0.2388 -1.7089
   63SAPC   C28 5042   4.922   5.638   7.575  0.0701 -0.7037 -0.3783
   63SAPC   H8R 5043   4.819   5.658   7.542  0.6065  0.1435 -1.5784
   63SAPC   C29 5044   4.954   5.666   7.707 -0.4884 -0.4522  0.4330
   63SAPC   H9R 5045   4.878   5.709   7.773 -0.4298 -1.2783  1.0526
   63SAPC  C210 5046   5.085   5.646   7.780  0.2443 -0.0593 -0.2148
   63SAPC  H10R 5047   5.173   5.608   7.723 -1.3389 -1.1656 -1.9934
   63SAPC  H10S 5048   5.081   5.570   7.861 -1.3674 -1.5585 -1.6543
   63SAPC  C211 5049   5.119   5.778   7.849  0.2499 -0.1408  0.3445
   63SAPC  H11R 5050   5.150   5.852   7.774  0.5978 -2.4465 -1.8611
   63SAPC  C212 5051   5.117   5.808   7.983  0.3305  0.0527 -0.1708
   63SAPC  H12R 5052   5.138   5.910   8.018  2.2461 -0.7774  1.1495
   63SAPC  C213 5053   5.063   5.722   8.092 -0.5378  0.7503 -0.8164
   63SAPC  H13R 5054   5.010   5.632   8.055 -0.2442 -0.6745  2.0864
   63SAPC  H13S 5055   4.990   5.784   8.148 -0.3426  1.6751 -1.5741
   63SAPC  C214 5056   5.162   5.676   8.187  0.4352 -0.5458 -0.3646
   63SAPC  H14R 5057   5.266   5.681   8.154 -0.0312 -0.4584 -1.8680
   63SAPC  C215 5058   5.134   5.624   8.311  0.3896 -0.0356  0.5451
   63SAPC  H15R 5059   5.222   5.585   8.363  1.4534  0.3389 -0.9614
   63SAPC  C216 5060   4.993   5.591   8.358  0.3031 -0.6511 -0.2017
   63SAPC  H16R 5061   4.989   5.482   8.380 -3.1798 -0.2179  1.7115
   63SAPC  H16S 5062   4.906   5.604   8.290 -0.6847  0.6388  1.2789
   63SAPC  C217 5063   4.947   5.660   8.486 -0.2867  0.0748 -0.3928
   63SAPC  H17R 5064   4.842   5.630   8.507  0.5131 -1.8242  1.0905
   63SAPC  H17S 5065   4.932   5.765   8.455 -4.2271 -0.1919  0.4041
   63SAPC  C218 5066   5.032   5.655   8.619 -0.3490  0.0484 -0.3742
   63SAPC  H18R 5067   5.132   5.702   8.610 -0.4368  0.3346  0.1327
   63SAPC  H18S 5068   5.054   5.552   8.654 -2.3921 -0.3910 -0.3441
   63SAPC  C219 5069   4.959   5.704   8.748  0.2358 -0.7950  0.3006
   63SAPC  H19R 5070   4.880   5.637   8.785 -0.0832  0.5866  2.2057
   63SAPC  H19S 5071   4.916   5.806   8.732  3.8845  1.0265  1.4563
   63SAPC  C220 5072   5.056   5.721   8.861  0.9575 -0.4656 -0.4487
   63SAPC  H20R 5073   5.152   5.768   8.828  1.0441 -0.3469 -0.0406
   63SAPC  H20S 5074   5.066   5.621   8.908  1.3150 -0.5897 -0.7807
   63SAPC  H20T 5075   5.016   5.794   8.935  0.3401 -0.4945 -0.7528
   63SAPC   C33 5076   5.704   5.333   6.763 -0.0065  0.4069  0.3548
   63SAPC   H3X 5077   5.727   5.437   6.731 -3.0626  1.0658  0.1366
   63SAPC   H3Y 5078   5.729   5.264   6.680 -2.5115  0.8635 -0.8319
   63SAPC   C34 5079   5.803   5.297   6.872  0.6969  0.7495 -0.1994
   63SAPC   H4X 5080   5.780   5.200   6.922  1.0105  0.8695  0.1768
   63SAPC   H4Y 5081   5.791   5.373   6.952 -0.0156 -0.2602  0.6595
   63SAPC   C35 5082   5.952   5.310   6.831  0.2447  0.5288 -0.2256
   63SAPC   H5X 5083   5.948   5.398   6.763 -0.9412  0.0243 -0.8360
   63SAPC   H5Y 5084   5.972   5.219   6.769  0.3143  1.6137 -1.8253
   63SAPC   C36 5085   6.064   5.329   6.933  0.8148  0.0126 -0.2580
   63SAPC   H6X 5086   6.100   5.434   6.927 -1.9098  1.1309  1.8221
   63SAPC   H6Y 5087   6.144   5.259   6.899  2.2674  2.0863 -1.2274
   63SAPC   C37 5088   6.024   5.295   7.075 -0.6806 -0.0000 -0.4739
   63SAPC   H7X 5089   6.016   5.184   7.077 -3.2678  0.1224 -2.2233
   63SAPC   H7Y 5090   5.930   5.345   7.107 -0.9712 -0.6883 -0.2545
   63SAPC   C38 5091   6.139   5.324   7.173 -0.0271 -0.5700 -0.2750
   63SAPC   H8X 5092   6.147   5.435   7.170  1.5671 -0.6812 -0.6567
   63SAPC   H8Y 5093   6.235   5.271   7.155 -0.5608 -2.2868  1.7702
   63SAPC   C39 5094   6.099   5.299   7.323 -0.0864 -0.2762  0.3109
   63SAPC   H9X 5095   6.060   5.195   7.327 -0.1364 -0.2303  1.0542
   63SAPC   H9Y 5096   6.015   5.366   7.351 -0.8219 -1.1884  0.3027
   63SAPC  C310 5097   6.208   5.318   7.430 -0.2558 -0.1283  1.0682
   63SAPC  H10X 5098   6.239   5.423   7.446 -1.2726  0.3775 -0.2661
   63SAPC  H10Y 5099   6.294   5.248   7.418 -0.5637 -0.1431 -1.2023
   63SAPC  C311 5100   6.133   5.296   7.562 -0.0151 -0.9234 -0.4392
   63SAPC  H11X 5101   6.091   5.194   7.571 -1.1475 -0.3824  0.5939
   63SAPC  H11Y 5102   6.050   5.370   7.556 -0.9372 -1.9703 -0.8585
   63SAPC  C312 5103   6.219   5.331   7.687  0.1212 -1.3382 -0.0340
   63SAPC  H12X 5104   6.234   5.441   7.694  0.4287 -1.3878  0.0749
   63SAPC  H12Y 5105   6.323   5.294   7.676  0.5367  0.1593 -1.2660
   63SAPC  C313 5106   6.169   5.276   7.821  0.5613  0.2475  0.3489
   63SAPC  H13X 5107   6.174   5.165   7.817 -0.9206  0.2158 -1.5104
   63SAPC  H13Y 5108   6.063   5.300   7.844  0.3862  2.6567 -2.6092
   63SAPC  C314 5109   6.246   5.340   7.947 -0.1266  0.0378  1.4911
   63SAPC  H14X 5110   6.243   5.451   7.941  0.2141 -0.0465 -0.5407
   63SAPC  H14Y 5111   6.355   5.326   7.934 -0.4901  1.0099 -3.5243
   63SAPC  C315 5112   6.203   5.278   8.083 -0.6437 -0.4105 -0.2238
   63SAPC  H15X 5113   6.210   5.169   8.066  1.8934 -0.6522  1.9644
   63SAPC  H15Y 5114   6.099   5.297   8.116 -1.1440 -4.0358  0.4399
   63SAPC  C316 5115   6.302   5.313   8.198 -0.2476  1.1385  0.0972
   63SAPC  H16X 5116   6.319   5.422   8.210  1.5532  0.8445  0.3738
   63SAPC  H16Y 5117   6.404   5.279   8.171 -0.7284  0.2618 -0.6542
   63SAPC  C317 5118   6.252   5.239   8.323 -0.0625  0.1759 -0.0992
   63SAPC  H17X 5119   6.257   5.133   8.289  0.7927  0.5648 -1.2197
   63SAPC  H17Y 5120   6.146   5.272   8.335 -0.2132 -0.2502 -0.2052
   63SAPC  C318 5121   6.331   5.263   8.446  0.0943 -0.1085 -0.4870
   63SAPC  H18X 5122   6.438   5.235   8.434  0.3302 -0.2438  1.7356
   63SAPC  H18Y 5123   6.300   5.200   8.532 -0.4169  0.7401 -0.0462
   63SAPC  H18Z 5124   6.325   5.369   8.479  0.8515 -0.0555 -0.4990
   64SAPC     N 5125   1.307   5.304   5.950  0.7210  0.3345  0.3116
   64SAPC   C12 5126   1.315   5.457   5.939 -0.2922  0.0760  0.2715
   64SAPC  H12A 5127   1.315   5.485   5.835  0.8691  0.3822  0.3456
   64SAPC  H12B 5128   1.408   5.488   5.984  1.2341  0.5451 -3.0388
   64SAPC   C13 5129   1.429   5.255   5.891 -0.2701 -0.2740  0.4142
   64SAPC  H13A 5130   1.424   5.257   5.783  1.5390 -3.0443  0.2294
   64SAPC  H13B 5131   1.521   5.300   5.927  0.1577 -1.1328  0.3995
   64SAPC  H13C 5132   1.444   5.153   5.920  2.0240  0.7039  2.8449
   64SAPC   C14 5133   1.300   5.266   6.092  0.3153  0.3375 -0.1954
   64SAPC  H14A 5134   1.390   5.293   6.146  0.4723 -0.2513 -0.1654
   64SAPC  H14B 5135   1.215   5.301   6.148  0.4948 -3.0750  2.3552
   64SAPC  H14C 5136   1.291   5.159   6.101  1.8350  0.0953 -1.2854
   64SAPC   C15 5137   1.185   5.257   5.875  0.4927  0.0271  0.1538
   64SAPC  H15A 5138   1.167   5.310   5.783  1.0276  2.2291  1.2988
   64SAPC  H15B 5139   1.194   5.149   5.867  2.6048  0.1458  0.5403
   64SAPC  H15C 5140   1.102   5.287   5.937  0.5166 -2.7847  1.6781
   64SAPC   C11 5141   1.202   5.535   6.014  0.6020  0.3460  0.3108
   64SAPC  H11A 5142   1.216   5.642   5.987 -0.0849  0.7650  1.5608
   64SAPC  H11B 5143   1.232   5.534   6.121  1.6186 -1.5745  0.0240
   64SAPC     P 5144   0.941   5.509   6.074 -0.9088  0.0389  0.1072
   64SAPC   O13 5145   0.828   5.579   6.012 -0.2768  0.7405 -0.1211
   64SAPC   O14 5146   0.919   5.381   6.139  0.4380  0.1764 -0.5506
   64SAPC   O12 5147   1.069   5.499   5.984  0.0494 -0.2762  1.0388
   64SAPC   O11 5148   0.978   5.594   6.196 -0.6721  0.0235 -0.2195
   64SAPC    C1 5149   0.999   5.738   6.201  0.4301 -0.2095 -0.0405
   64SAPC    HA 5150   1.105   5.769   6.189  0.0508  1.2774  0.3526
   64SAPC    HB 5151   0.943   5.786   6.119 -1.7903 -0.6788  1.1611
   64SAPC    C2 5152   0.943   5.802   6.335  0.2466 -0.2159  0.4289
   64SAPC    HS 5153   0.965   5.907   6.309  2.3656 -0.4240  1.2400
   64SAPC   O21 5154   1.010   5.762   6.453 -0.9464 -0.3285 -0.2187
   64SAPC   C21 5155   1.135   5.804   6.464 -0.5438  0.2141 -0.1123
   64SAPC   O22 5156   1.194   5.884   6.390  1.0659  0.8213  0.1780
   64SAPC   C22 5157   1.203   5.726   6.574  0.1697  0.5264  0.4537
   64SAPC   H2R 5158   1.166   5.621   6.583  0.2490  0.5292  0.8265
   64SAPC   H2S 5159   1.312   5.732   6.553  0.0699 -0.4667 -0.3863
   64SAPC    C3 5160   0.790   5.783   6.343  0.8142 -0.6984  0.0588
   64SAPC    HX 5161   0.779   5.673   6.338  1.2590 -0.6987 -1.1893
   64SAPC    HY 5162   0.737   5.818   6.252  1.2695  0.8443  0.3725
   64SAPC   O31 5163   0.738   5.822   6.469 -0.4958  0.0616  0.3228
   64SAPC   C31 5164   0.698   5.950   6.469 -0.7841  0.1007 -0.2274
   64SAPC   O32 5165   0.707   6.028   6.375  0.0962  0.0533 -0.2273
   64SAPC   C32 5166   0.626   5.977   6.598 -0.6753 -0.1466 -0.6934
   64SAPC   H2X 5167   0.661   5.903   6.673 -0.5048  0.1848 -0.4455
   64SAPC   H2Y 5168   0.517   5.969   6.577 -1.3169  0.0888  2.2358
   64SAPC   C23 5169   1.182   5.787   6.707  0.2224  0.4193  0.1823
   64SAPC   H3R 5170   1.204   5.896   6.698  0.6985  0.4697  1.7937
   64SAPC   H3S 5171   1.249   5.747   6.786  2.1181  0.3437 -1.4265
   64SAPC   C24 5172   1.040   5.774   6.762  0.1860  0.0602 -0.7441
   64SAPC   H4R 5173   0.966   5.790   6.680  1.3184  1.7780 -1.4694
   64SAPC   H4S 5174   1.023   5.853   6.838 -1.1727  1.0190 -1.9963
   64SAPC   C25 5175   1.027   5.639   6.824 -0.5352 -0.1444  0.5412
   64SAPC   H5R 5176   0.975   5.572   6.755 -1.8290  3.3209 -2.0242
   64SAPC   C26 5177   1.079   5.583   6.934  0.1827  0.5997 -0.2882
   64SAPC   H6R 5178   1.051   5.480   6.961  0.3202  0.9555  1.2652
   64SAPC   C27 5179   1.173   5.646   7.034  0.1989 -0.1238 -0.0239
   64SAPC   H7R 5180   1.136   5.749   7.049 -3.2080 -1.3053  0.0674
   64SAPC   H7S 5181   1.278   5.659   6.999  0.6982 -0.6634  1.2426
   64SAPC   C28 5182   1.180   5.580   7.172  0.0920  0.4162 -0.5753
   64SAPC   H8R 5183   1.256   5.501   7.168 -0.0410  0.1960  0.8660
   64SAPC   C29 5184   1.083   5.579   7.267 -0.4291  0.3456 -0.0081
   64SAPC   H9R 5185   1.100   5.534   7.365 -3.6035  0.9102  0.8582
   64SAPC  C210 5186   0.953   5.649   7.249 -0.8118  0.4038 -0.1718
   64SAPC  H10R 5187   0.868   5.597   7.297 -0.6830 -0.4238 -0.8177
   64SAPC  H10S 5188   0.932   5.640   7.140 -0.3032  0.1871 -0.2534
   64SAPC  C211 5189   0.956   5.800   7.289 -0.3022  0.6152 -0.0085
   64SAPC  H11R 5190   0.945   5.858   7.196  1.6319 -2.9014 -2.5684
   64SAPC  C212 5191   0.962   5.862   7.410 -0.3295 -0.5005  0.0917
   64SAPC  H12R 5192   0.982   5.970   7.410  0.9907 -0.7403  0.0584
   64SAPC  C213 5193   0.966   5.783   7.535  0.2214  0.6020  0.0402
   64SAPC  H13R 5194   0.936   5.677   7.524  1.8874 -0.0594  1.6785
   64SAPC  H13S 5195   0.893   5.830   7.604  0.8353  0.2777  0.9211
   64SAPC  C214 5196   1.104   5.787   7.601 -0.6216  0.0264 -0.0926
   64SAPC  H14R 5197   1.197   5.805   7.545  0.0965  0.0868  1.0836
   64SAPC  C215 5198   1.121   5.796   7.738  0.0258 -0.2122  0.1024
   64SAPC  H15R 5199   1.225   5.813   7.769  0.6408  1.3390 -2.6768
   64SAPC  C216 5200   1.026   5.781   7.851 -0.2958 -0.3289  0.1427
   64SAPC  H16R 5201   0.925   5.742   7.826  0.0910 -2.5036  1.8520
   64SAPC  H16S 5202   1.005   5.882   7.894 -1.9136 -1.2758  1.6576
   64SAPC  C217 5203   1.079   5.686   7.960 -0.4294  0.4254  0.0947
   64SAPC  H17R 5204   1.184   5.717   7.981 -0.2934 -0.4218  0.6598
   64SAPC  H17S 5205   1.086   5.586   7.913 -1.5050  0.4806 -0.1853
   64SAPC  C218 5206   0.995   5.688   8.091 -0.0229 -0.7118 -0.3957
   64SAPC  H18R 5207   0.894   5.649   8.068 -0.4513 -0.5004  1.0888
   64SAPC  H18S 5208   0.979   5.795   8.116 -3.3220 -0.6731 -2.4624
   64SAPC  C219 5209   1.066   5.600   8.195  0.0226  0.3455 -0.3581
   64SAPC  H19R 5210   1.161   5.648   8.226  0.1909  0.4601 -1.0552
   64SAPC  H19S 5211   1.087   5.502   8.149 -1.7131 -0.3416  0.2678
   64SAPC  C220 5212   0.969   5.576   8.314 -0.1976  0.5597  0.5407
   64SAPC  H20R 5213   0.957   5.667   8.376 -1.0237 -0.4664  1.9132
   64SAPC  H20S 5214   1.016   5.511   8.391  0.1643  1.6435  1.2403
   64SAPC  H20T 5215   0.881   5.523   8.272  0.9286 -0.4382 -0.6380
   64SAPC   C33 5216   0.666   6.118   6.648 -0.8326 -0.2609 -0.3772
   64SAPC   H3X 5217   0.593   6.142   6.728  0.2222  1.1700  0.1823
   64SAPC   H3Y 5218   0.661   6.197   6.569 -2.8054  1.4352  1.3961
   64SAPC   C34 5219   0.814   6.130   6.700  0.1892  0.0824 -0.4758
   64SAPC   H4X 5220   0.885   6.175   6.627 -0.5454  0.2468 -1.0972
   64SAPC   H4Y 5221   0.861   6.035   6.735 -0.3456  0.2772  0.7796
   64SAPC   C35 5222   0.814   6.225   6.820 -0.3555 -0.3838 -0.0691
   64SAPC   H5X 5223   0.747   6.311   6.799 -1.6775 -1.8257 -1.8044
   64SAPC   H5Y 5224   0.918   6.264   6.832 -0.1417 -1.5583  2.2037
   64SAPC   C36 5225   0.763   6.149   6.947  0.2791  0.0237 -0.0304
   64SAPC   H6X 5226   0.827   6.058   6.951  1.9861  1.0817 -2.0945
   64SAPC   H6Y 5227   0.658   6.115   6.934  0.3835 -0.8649  1.3558
   64SAPC   C37 5228   0.762   6.220   7.081  0.4220 -0.1983  0.1965
   64SAPC   H7X 5229   0.688   6.299   7.056 -2.0389 -2.2292  0.7715
   64SAPC   H7Y 5230   0.861   6.261   7.112 -0.3742  1.0225  1.1653
   64SAPC   C38 5231   0.711   6.146   7.205 -0.2928  0.0571 -0.1251
   64SAPC   H8X 5232   0.758   6.047   7.219  1.2314  0.6393 -0.9958
   64SAPC   H8Y 5233   0.600   6.137   7.206 -0.0981 -2.3836  0.2926
   64SAPC   C39 5234   0.740   6.228   7.333 -0.3542 -0.0823 -0.1471
   64SAPC   H9X 5235   0.696   6.330   7.323 -1.0289 -0.3828 -0.2332
   64SAPC   H9Y 5236   0.849   6.246   7.347 -0.2927  0.5185 -1.3349
   64SAPC  C310 5237   0.691   6.151   7.452  0.7469 -0.0763  0.2885
   64SAPC  H10X 5238   0.721   6.044   7.450 -3.0227 -1.1949 -3.0971
   64SAPC  H10Y 5239   0.580   6.142   7.450  0.6409  1.3540 -0.8166
   64SAPC  C311 5240   0.740   6.220   7.582 -0.4813  0.3265  0.2105
   64SAPC  H11X 5241   0.686   6.316   7.592  0.2987  0.7637  0.2461
   64SAPC  H11Y 5242   0.849   6.241   7.573 -0.5212  0.3443 -0.2275
   64SAPC  C312 5243   0.720   6.131   7.701  0.2823  0.0676  0.1168
   64SAPC  H12X 5244   0.762   6.031   7.677 -1.5614 -0.6767 -0.0827
   64SAPC  H12Y 5245   0.614   6.106   7.722  0.3130  0.1557  0.3754
   64SAPC  C313 5246   0.796   6.178   7.835 -0.1011  0.0635 -0.4334
   64SAPC  H13X 5247   0.768   6.281   7.862  0.6378  0.2744 -0.4533
   64SAPC  H13Y 5248   0.907   6.174   7.825 -0.2355 -0.1019 -2.1333
   64SAPC  C314 5249   0.758   6.092   7.959  0.1500 -0.0149 -0.4063
   64SAPC  H14X 5250   0.787   5.985   7.959 -0.7343 -0.2568  1.0981
   64SAPC  H14Y 5251   0.647   6.095   7.964  0.0892 -1.8092 -0.5272
   64SAPC  C315 5252   0.801   6.161   8.085 -0.1170 -0.6781  0.3072
   64SAPC  H15X 5253   0.736   6.249   8.106 -0.6483 -1.1949  0.8544
   64SAPC  H15Y 5254   0.909   6.187   8.076 -0.6825  2.0754  1.1147
   64SAPC  C316 5255   0.783   6.067   8.209  0.3696 -0.2805  0.0409
   64SAPC  H16X 5256   0.834   5.971   8.185 -0.2686 -0.9242  1.2545
   64SAPC  H16Y 5257   0.679   6.031   8.222  0.1409  1.0990  2.3093
   64SAPC  C317 5258   0.841   6.134   8.329 -0.0700 -0.1664 -0.4509
   64SAPC  H17X 5259   0.773   6.216   8.361 -0.1166  0.5530 -2.2790
   64SAPC  H17Y 5260   0.939   6.182   8.307  0.1383 -1.8608 -3.6338
   64SAPC  C318 5261   0.864   6.023   8.436 -0.3783  0.0434 -0.3471
   64SAPC  H18X 5262   0.771   5.972   8.467  0.6191 -2.1020 -0.8301
   64SAPC  H18Y 5263   0.910   6.072   8.525  1.4573 -2.0644 -0.1060
   64SAPC  H18Z 5264   0.933   5.944   8.400  0.2793 -0.3695  1.7328
   65SAPC     N 5265   0.846   0.030   5.768  0.1960  0.1864  0.0509
   65SAPC   C12 5266   0.810   0.098   5.898 -0.0871  0.4235 -0.0212
   65SAPC  H12A 5267   0.902   0.127   5.946 -0.2333  1.2624 -0.2342
   65SAPC  H12B 5268   0.760   0.028   5.964  1.7878  0.7259  1.7830
   65SAPC   C13 5269   0.724  -0.006   5.687 -0.1800  0.3294  0.4391
   65SAPC  H13A 5270   0.654  -0.071   5.736  0.5245  0.7017  1.9878
   65SAPC  H13B 5271   0.671   0.079   5.647 -1.9617 -0.4939  1.0282
   65SAPC  H13C 5272   0.751  -0.060   5.598  1.6833 -0.9132  1.7182
   65SAPC   C14 5273   0.933   0.123   5.687 -0.4688  0.1048  0.1722
   65SAPC  H14A 5274   0.957   0.065   5.599  1.1048  1.5321 -0.3698
   65SAPC  H14B 5275   0.874   0.210   5.662 -0.9200 -0.3435 -0.3214
   65SAPC  H14C 5276   1.026   0.155   5.734  0.4230  0.9742 -2.1183
   65SAPC   C15 5277   0.920  -0.098   5.797  0.2290  0.3257 -0.1459
   65SAPC  H15A 5278   0.937  -0.149   5.704  1.9963  2.2526 -0.9219
   65SAPC  H15B 5279   1.021  -0.088   5.835 -0.2759  1.8660  0.8329
   65SAPC  H15C 5280   0.874  -0.159   5.873 -0.6223 -1.8179 -2.3338
   65SAPC   C11 5281   0.737   0.224   5.883  0.3795  0.4965  0.0047
   65SAPC  H11A 5282   0.626   0.216   5.873  0.5919 -0.7041 -1.4547
   65SAPC  H11B 5283   0.756   0.290   5.796 -1.0754  0.3853 -0.4211
   65SAPC     P 5284   0.690   0.436   6.016  0.2062 -0.5565 -0.1496
   65SAPC   O13 5285   0.777   0.538   5.949 -0.1918  0.5188  0.3991
   65SAPC   O14 5286   0.549   0.419   5.964  0.0364 -0.2710  0.2444
   65SAPC   O12 5287   0.763   0.300   5.999 -0.3152 -0.0834  0.5264
   65SAPC   O11 5288   0.686   0.457   6.173  0.4297  0.2137 -0.5428
   65SAPC    C1 5289   0.616   0.352   6.250  0.3815  0.3382 -0.6483
   65SAPC    HA 5290   0.510   0.340   6.220  0.0358  1.3316  0.1462
   65SAPC    HB 5291   0.672   0.256   6.243  0.0123 -0.0253  1.1291
   65SAPC    C2 5292   0.621   0.385   6.406  0.2296 -0.6044 -0.6139
   65SAPC    HS 5293   0.544   0.462   6.431 -0.0841 -1.6824  1.8319
   65SAPC   O21 5294   0.751   0.428   6.446  0.0898  0.2127 -0.0539
   65SAPC   C21 5295   0.751   0.520   6.535  0.6467 -0.4265 -0.0854
   65SAPC   O22 5296   0.660   0.596   6.566 -0.0326 -0.1241 -0.1076
   65SAPC   C22 5297   0.894   0.542   6.586  0.0857 -0.6140 -0.2139
   65SAPC   H2R 5298   0.974   0.540   6.509  1.2773 -1.6984  1.0004
   65SAPC   H2S 5299   0.901   0.638   6.641 -0.7238 -0.9104  0.4084
   65SAPC    C3 5300   0.582   0.263   6.496  0.0340  0.6846  0.2855
   65SAPC    HX 5301   0.661   0.187   6.476 -0.9168 -0.1740 -0.1952
   65SAPC    HY 5302   0.491   0.219   6.450  1.3684  1.4320 -3.2019
   65SAPC   O31 5303   0.562   0.294   6.635  0.0807  0.1748 -0.1844
   65SAPC   C31 5304   0.445   0.336   6.667  0.0393 -0.3678 -0.1588
   65SAPC   O32 5305   0.347   0.345   6.594  0.2493  0.1814  0.1872
   65SAPC   C32 5306   0.443   0.369   6.810  0.2118 -0.0259  0.6496
   65SAPC   H2X 5307   0.529   0.435   6.835  0.7048 -0.2926 -0.3157
   65SAPC   H2Y 5308   0.451   0.279   6.875  0.3529 -0.1382  0.4776
   65SAPC   C23 5309   0.946   0.422   6.681  1.0609  0.0914  0.0086
   65SAPC   H3R 5310   1.049   0.454   6.708  1.1476  0.5479 -0.8356
   65SAPC   H3S 5311   0.956   0.326   6.626  0.2094 -0.8975  1.5535
   65SAPC   C24 5312   0.854   0.393   6.801 -0.3410  0.1192  0.3844
   65SAPC   H4R 5313   0.880   0.291   6.836 -1.3181 -1.3730 -3.1041
   65SAPC   H4S 5314   0.748   0.377   6.771 -0.6590  0.0053  1.5080
   65SAPC   C25 5315   0.841   0.495   6.912  0.5507 -0.0678 -0.0546
   65SAPC   H5R 5316   0.814   0.591   6.866 -1.4606 -1.5421 -2.0907
   65SAPC   C26 5317   0.868   0.480   7.048 -0.3698 -0.2134  0.5168
   65SAPC   H6R 5318   0.866   0.571   7.110  1.4465  0.9212 -1.0289
   65SAPC   C27 5319   0.906   0.356   7.131 -0.5580  0.5992 -0.6862
   65SAPC   H7R 5320   1.010   0.382   7.161  0.4318 -1.6355 -1.9804
   65SAPC   H7S 5321   0.933   0.267   7.070 -0.7578  0.2582 -0.2776
   65SAPC   C28 5322   0.818   0.307   7.244  0.3017 -0.5589 -0.2041
   65SAPC   H8R 5323   0.726   0.257   7.211  0.8825 -2.0564  0.3763
   65SAPC   C29 5324   0.844   0.320   7.377 -0.6219  0.0651  0.2676
   65SAPC   H9R 5325   0.776   0.273   7.449 -0.3942  0.9194  1.0488
   65SAPC  C210 5326   0.955   0.404   7.439  0.0364  0.2486 -0.8540
   65SAPC  H10R 5327   1.046   0.421   7.378  0.5761 -1.8282 -0.6674
   65SAPC  H10S 5328   1.009   0.340   7.512 -1.6976 -2.6939 -2.0847
   65SAPC  C211 5329   0.907   0.534   7.489 -0.2029 -0.2519  0.4560
   65SAPC  H11R 5330   0.889   0.610   7.411  2.6588 -0.9168 -0.9024
   65SAPC  C212 5331   0.875   0.562   7.616  0.2873  0.1502 -0.4227
   65SAPC  H12R 5332   0.835   0.663   7.633 -1.1736 -0.7021  1.3980
   65SAPC  C213 5333   0.871   0.480   7.742  0.1200 -0.3487  0.2541
   65SAPC  H13R 5334   0.829   0.379   7.722  1.8913 -1.1166  0.3093
   65SAPC  H13S 5335   0.786   0.526   7.796 -0.4545 -0.2896 -0.6856
   65SAPC  C214 5336   1.002   0.498   7.817 -0.4022  0.4032 -0.4377
   65SAPC  H14R 5337   1.076   0.568   7.776 -0.3679  0.4400 -0.3103
   65SAPC  C215 5338   1.036   0.429   7.928  0.0891  0.4700 -0.0227
   65SAPC  H15R 5339   1.125   0.463   7.984 -2.1002  4.5414  1.1978
   65SAPC  C216 5340   0.953   0.328   8.000  0.3232  0.0356 -0.1437
   65SAPC  H16R 5341   0.997   0.229   7.974  0.0943 -0.3020  0.7199
   65SAPC  H16S 5342   0.854   0.335   7.950 -0.8190 -0.1976  2.0229
   65SAPC  C217 5343   0.937   0.351   8.150  0.2432  0.0910  0.2873
   65SAPC  H17R 5344   0.870   0.276   8.198  2.0096 -1.2249  0.7303
   65SAPC  H17S 5345   0.909   0.457   8.164 -1.4358  0.2113 -3.1808
   65SAPC  C218 5346   1.068   0.313   8.220  0.0548 -0.0238 -0.1878
   65SAPC  H18R 5347   1.141   0.394   8.199 -1.3080  1.4616  0.6514
   65SAPC  H18S 5348   1.107   0.220   8.174  2.4115  0.2297  1.2105
   65SAPC  C219 5349   1.061   0.292   8.370 -0.6454  0.1114  0.0591
   65SAPC  H19R 5350   1.158   0.246   8.401 -0.5707 -0.0868 -0.4634
   65SAPC  H19S 5351   0.979   0.221   8.395  1.6898 -1.8583  2.4885
   65SAPC  C220 5352   1.028   0.404   8.461  0.2362  0.8826 -0.7378
   65SAPC  H20R 5353   1.115   0.473   8.470  1.2856 -0.6025  0.7948
   65SAPC  H20S 5354   1.031   0.361   8.563  0.4285  0.0152 -1.1056
   65SAPC  H20T 5355   0.938   0.464   8.436 -0.4352  0.6246  1.0097
   65SAPC   C33 5356   0.315   0.450   6.852 -0.4696 -0.4006  0.6022
   65SAPC   H3X 5357   0.224   0.387   6.843 -0.1559 -0.4404 -2.6645
   65SAPC   H3Y 5358   0.320   0.540   6.787  1.5615 -1.0598 -0.1640
   65SAPC   C34 5359   0.328   0.492   7.003  1.0170 -0.1926 -0.3600
   65SAPC   H4X 5360   0.410   0.564   7.022  2.0858 -1.1664 -1.2318
   65SAPC   H4Y 5361   0.349   0.396   7.054 -1.8097 -0.4047  0.4984
   65SAPC   C35 5362   0.197   0.546   7.065 -0.9810 -0.0350 -0.0926
   65SAPC   H5X 5363   0.113   0.482   7.031 -1.8557 -0.1185  2.1378
   65SAPC   H5Y 5364   0.179   0.646   7.021  1.4410  1.1704  1.5480
   65SAPC   C36 5365   0.213   0.550   7.216  0.1965  0.1569  0.4918
   65SAPC   H6X 5366   0.308   0.599   7.245  0.1833 -1.1298  2.8193
   65SAPC   H6Y 5367   0.235   0.447   7.251  0.7887  0.4005  0.8416
   65SAPC   C37 5368   0.105   0.625   7.293  0.1643 -0.0254  0.4125
   65SAPC   H7X 5369   0.005   0.595   7.254  0.7136 -1.5191  0.1473
   65SAPC   H7Y 5370   0.112   0.735   7.280 -0.7705  0.4269  3.2215
   65SAPC   C38 5371   0.110   0.593   7.447 -0.2904 -0.4474 -0.6047
   65SAPC   H8X 5372   0.080   0.486   7.457 -0.2666 -0.4698 -0.7629
   65SAPC   H8Y 5373   0.032   0.650   7.502 -1.0468 -1.5911 -0.4478
   65SAPC   C39 5374   0.248   0.627   7.513 -0.5865  0.1523  0.1320
   65SAPC   H9X 5375   0.279   0.731   7.489  0.8380 -0.4141 -0.5592
   65SAPC   H9Y 5376   0.318   0.559   7.460 -2.1173  0.6610 -2.6954
   65SAPC  C310 5377   0.249   0.615   7.665 -0.2683 -0.0480  0.2303
   65SAPC  H10X 5378   0.254   0.506   7.686  0.8124 -0.2191 -0.8971
   65SAPC  H10Y 5379   0.162   0.671   7.707 -1.1854  0.4381 -2.2099
   65SAPC  C311 5380   0.383   0.675   7.717  0.3985 -0.2864 -0.8012
   65SAPC  H11X 5381   0.377   0.784   7.698  1.7166 -0.1756 -0.5846
   65SAPC  H11Y 5382   0.461   0.625   7.655  0.2299  0.0760 -1.3124
   65SAPC  C312 5383   0.394   0.652   7.869 -0.3247  0.3133  0.4002
   65SAPC  H12X 5384   0.396   0.541   7.879 -1.8178  0.2644  0.2438
   65SAPC  H12Y 5385   0.302   0.685   7.922 -0.1974 -0.4284  1.0956
   65SAPC  C313 5386   0.529   0.702   7.940  0.3217 -0.1127  0.2136
   65SAPC  H13X 5387   0.522   0.810   7.965  0.4073  0.3476 -1.6658
   65SAPC  H13Y 5388   0.614   0.667   7.878 -0.1558 -2.3944  0.8099
   65SAPC  C314 5389   0.560   0.636   8.073 -0.6943 -0.3216  0.6612
   65SAPC  H14X 5390   0.664   0.664   8.101 -1.2162 -0.2411  2.5842
   65SAPC  H14Y 5391   0.567   0.527   8.050 -0.7090 -0.4536  1.2845
   65SAPC  C315 5392   0.462   0.674   8.173  0.3857  0.3857  0.1071
   65SAPC  H15X 5393   0.357   0.649   8.146  0.0579 -0.0777  1.7133
   65SAPC  H15Y 5394   0.474   0.779   8.208  1.5696 -0.3937  2.1443
   65SAPC  C316 5395   0.470   0.586   8.307 -0.1852  0.4460 -0.2722
   65SAPC  H16X 5396   0.561   0.616   8.363 -0.4371  0.3826  0.1751
   65SAPC  H16Y 5397   0.484   0.478   8.285  3.5486  1.1443 -1.7341
   65SAPC  C317 5398   0.351   0.602   8.403 -0.3383  0.0551 -0.4338
   65SAPC  H17X 5399   0.310   0.705   8.397 -0.9047 -0.1295  0.2663
   65SAPC  H17Y 5400   0.382   0.577   8.506 -0.0485 -2.8163 -1.1890
   65SAPC  C318 5401   0.243   0.499   8.368 -0.3664  0.2775  0.2624
   65SAPC  H18X 5402   0.198   0.506   8.267  0.3656  0.9462 -0.0198
   65SAPC  H18Y 5403   0.160   0.510   8.441 -1.2982 -2.1231 -0.3869
   65SAPC  H18Z 5404   0.288   0.398   8.382 -0.0673 -0.0435 -2.7518
   66SAPC     N 5405   5.721   6.450   5.763 -0.6078 -0.3300  0.4614
   66SAPC   C12 5406   5.614   6.415   5.866 -0.9100 -0.2464 -0.0598
   66SAPC  H12A 5407   5.657   6.357   5.947 -0.7238  2.5039  1.8679
   66SAPC  H12B 5408   5.541   6.358   5.811 -0.3166 -0.8431 -0.2384
   66SAPC   C13 5409   5.750   6.322   5.694  0.8647 -0.3860 -0.0593
   66SAPC  H13A 5410   5.669   6.295   5.627  0.2138  0.4936  0.3534
   66SAPC  H13B 5411   5.832   6.330   5.625  0.9726  0.3745  0.1468
   66SAPC  H13C 5412   5.773   6.232   5.748  0.0628 -0.4939  0.1152
   66SAPC   C14 5413   5.684   6.561   5.668 -0.0234 -0.2513 -0.3929
   66SAPC  H14A 5414   5.655   6.652   5.717  1.2747  0.1354 -0.3272
   66SAPC  H14B 5415   5.761   6.575   5.594  0.9267  0.2759  0.6771
   66SAPC  H14C 5416   5.599   6.529   5.610 -0.1451 -0.5400 -0.0551
   66SAPC   C15 5417   5.836   6.495   5.833  0.2834  0.2279  0.2073
   66SAPC  H15A 5418   5.880   6.405   5.873 -0.3409 -0.1933 -0.0474
   66SAPC  H15B 5419   5.915   6.532   5.769  0.2815 -1.0047 -0.5245
   66SAPC  H15C 5420   5.798   6.554   5.915  1.5501  0.0027  0.9748
   66SAPC   C11 5421   5.533   6.518   5.950  0.1822 -0.6058 -0.2662
   66SAPC  H11A 5422   5.456   6.468   6.012  1.0581 -1.1494  0.4132
   66SAPC  H11B 5423   5.485   6.581   5.873  1.9286  2.9195  1.4359
   66SAPC     P 5424   5.654   6.726   6.055  0.2058  0.3130  0.1477
   66SAPC   O13 5425   5.764   6.742   6.145  0.6005  0.7826 -0.3066
   66SAPC   O14 5426   5.675   6.779   5.918 -0.2952 -0.5956 -0.0457
   66SAPC   O12 5427   5.617   6.577   6.046 -0.4470 -0.1125  0.5995
   66SAPC   O11 5428   5.525   6.797   6.110 -0.1026 -0.5832  0.2177
   66SAPC    C1 5429   5.416   6.741   6.178  0.0313  0.5153  0.0544
   66SAPC    HA 5430   5.324   6.763   6.119  1.5411 -0.8655 -2.9552
   66SAPC    HB 5431   5.420   6.630   6.187 -3.5689  0.2254 -1.2320
   66SAPC    C2 5432   5.389   6.801   6.319 -0.1375  0.1735  0.6420
   66SAPC    HS 5433   5.367   6.909   6.306 -1.1214 -0.2682 -1.6773
   66SAPC   O21 5434   5.509   6.784   6.405 -0.1665  0.5578  0.0987
   66SAPC   C21 5435   5.594   6.876   6.395 -0.1809 -0.2377 -0.1512
   66SAPC   O22 5436   5.586   6.979   6.331  0.3642  0.3076 -0.1400
   66SAPC   C22 5437   5.720   6.844   6.482  0.0068  0.7721  0.8099
   66SAPC   H2R 5438   5.718   6.742   6.526 -1.8208  1.4993  2.5098
   66SAPC   H2S 5439   5.809   6.847   6.415 -1.2749 -2.0414 -1.0978
   66SAPC    C3 5440   5.271   6.729   6.387  0.4147 -0.1865 -0.1550
   66SAPC    HX 5441   5.302   6.625   6.409  1.1668  0.0298 -0.2032
   66SAPC    HY 5442   5.188   6.734   6.313 -0.5399 -0.3081  0.8922
   66SAPC   O31 5443   5.246   6.794   6.512  1.0181 -0.4315 -0.1508
   66SAPC   C31 5444   5.192   6.718   6.604 -0.3409 -0.2070  0.4066
   66SAPC   O32 5445   5.161   6.600   6.598 -0.2436 -0.0124  0.1001
   66SAPC   C32 5446   5.161   6.805   6.731 -0.1889  0.4598 -0.3030
   66SAPC   H2X 5447   5.055   6.835   6.717  0.4314  2.1901 -1.4200
   66SAPC   H2Y 5448   5.221   6.897   6.738  2.0720 -0.9677 -0.4157
   66SAPC   C23 5449   5.744   6.949   6.591  0.2463 -0.0190 -0.1058
   66SAPC   H3R 5450   5.733   7.050   6.547 -0.6401 -0.0252  0.1026
   66SAPC   H3S 5451   5.847   6.937   6.629  0.2762 -0.9769 -0.4743
   66SAPC   C24 5452   5.666   6.943   6.718  0.0892  0.3008 -0.5801
   66SAPC   H4R 5453   5.675   6.852   6.781 -0.5179  0.2230 -0.6000
   66SAPC   H4S 5454   5.560   6.948   6.687 -0.1588 -0.3255  0.1611
   66SAPC   C25 5455   5.691   7.055   6.816 -0.1735 -0.6189  0.6726
   66SAPC   H5R 5456   5.697   7.152   6.763 -1.8715 -1.9268 -2.0747
   66SAPC   C26 5457   5.749   7.049   6.938 -0.4365 -0.4528 -0.5442
   66SAPC   H6R 5458   5.758   7.141   6.998  0.0429 -2.1706  2.1195
   66SAPC   C27 5459   5.791   6.928   7.006  0.2565 -0.0067 -0.6755
   66SAPC   H7R 5460   5.894   6.956   7.036 -0.0779  0.1908  0.3154
   66SAPC   H7S 5461   5.807   6.837   6.944 -1.3940 -1.1865  0.5771
   66SAPC   C28 5462   5.716   6.891   7.131  0.3044 -0.6983  0.2648
   66SAPC   H8R 5463   5.651   6.804   7.116 -0.3434  0.1648 -2.1912
   66SAPC   C29 5464   5.727   6.953   7.252 -0.2683 -0.7294 -0.1485
   66SAPC   H9R 5465   5.654   6.925   7.331  0.2362 -0.7046  0.3310
   66SAPC  C210 5466   5.819   7.063   7.297  0.0834 -0.1771  0.0689
   66SAPC  H10R 5467   5.889   7.078   7.212  0.5847 -0.3671  0.4532
   66SAPC  H10S 5468   5.875   7.029   7.386  1.1720  0.2613 -0.4393
   66SAPC  C211 5469   5.743   7.191   7.321 -0.3579  0.3767  0.1746
   66SAPC  H11R 5470   5.761   7.269   7.246 -1.7062 -0.9985 -1.6257
   66SAPC  C212 5471   5.653   7.222   7.425 -0.4708 -0.5511 -0.3742
   66SAPC  H12R 5472   5.607   7.321   7.424 -0.8327 -0.7185 -2.2721
   66SAPC  C213 5473   5.617   7.137   7.539 -0.5139  0.0848 -0.5905
   66SAPC  H13R 5474   5.628   7.028   7.526  0.0660  0.2471 -1.4930
   66SAPC  H13S 5475   5.508   7.152   7.550 -0.6304 -1.3265  0.2112
   66SAPC  C214 5476   5.687   7.171   7.664  0.2420  0.2196 -0.4462
   66SAPC  H14R 5477   5.745   7.264   7.671  1.6462 -0.6271 -0.6523
   66SAPC  C215 5478   5.671   7.094   7.772  0.1846 -0.4584  0.2353
   66SAPC  H15R 5479   5.724   7.125   7.863 -0.6706  0.9378  0.2652
   66SAPC  C216 5480   5.603   6.958   7.776 -0.3204  0.2579  0.2166
   66SAPC  H16R 5481   5.587   6.911   7.676  0.0681 -1.6533  1.0367
   66SAPC  H16S 5482   5.498   6.964   7.812 -0.5371  0.9857 -0.5191
   66SAPC  C217 5483   5.675   6.854   7.865 -0.0472 -0.6801 -0.2507
   66SAPC  H17R 5484   5.775   6.825   7.827  0.3084  0.2453 -0.0150
   66SAPC  H17S 5485   5.606   6.766   7.866 -1.1162  0.1469  0.8095
   66SAPC  C218 5486   5.676   6.900   8.008 -0.5623  0.4282  0.1349
   66SAPC  H18R 5487   5.593   6.969   8.036 -0.6832  1.3535 -2.3544
   66SAPC  H18S 5488   5.765   6.963   8.027 -0.1632  0.1837 -0.8888
   66SAPC  C219 5489   5.695   6.783   8.113 -0.9775  0.4873  0.1360
   66SAPC  H19R 5490   5.603   6.721   8.104 -0.3680 -0.1212 -2.1984
   66SAPC  H19S 5491   5.697   6.822   8.217  1.1518  0.5018  0.1046
   66SAPC  C220 5492   5.812   6.686   8.103 -0.2304 -0.1784  0.1306
   66SAPC  H20R 5493   5.910   6.737   8.115  0.5447 -1.0260 -2.2673
   66SAPC  H20S 5494   5.811   6.644   8.001 -0.0007  1.3885 -0.5347
   66SAPC  H20T 5495   5.812   6.613   8.187  0.3192 -1.1261 -0.6872
   66SAPC   C33 5496   5.152   6.718   6.867 -1.1273  0.2679  0.1630
   66SAPC   H3X 5497   5.135   6.612   6.838  2.4287 -0.3465  0.1037
   66SAPC   H3Y 5498   5.062   6.752   6.923 -0.7575  1.7004 -0.0770
   66SAPC   C34 5499   5.276   6.735   6.951 -0.6507  0.1227  0.4802
   66SAPC   H4X 5500   5.314   6.839   6.945 -0.1996 -0.0659 -0.0535
   66SAPC   H4Y 5501   5.362   6.672   6.917 -1.8780 -0.9007 -0.7997
   66SAPC   C35 5502   5.251   6.696   7.094 -0.9078  0.7183 -0.3960
   66SAPC   H5X 5503   5.239   6.586   7.108  0.1464  0.4587 -1.4393
   66SAPC   H5Y 5504   5.158   6.746   7.130 -0.3312  2.3830 -1.1849
   66SAPC   C36 5505   5.358   6.750   7.195 -0.2768  0.6828  0.6621
   66SAPC   H6X 5506   5.372   6.859   7.177 -1.5338  0.4356 -2.0933
   66SAPC   H6Y 5507   5.453   6.694   7.181  0.1266  0.3815  4.1043
   66SAPC   C37 5508   5.308   6.731   7.342  0.1529  0.2047 -0.1153
   66SAPC   H7X 5509   5.282   6.626   7.367 -1.9383  0.5521 -0.7761
   66SAPC   H7Y 5510   5.215   6.792   7.346 -0.2352 -0.3978  0.0862
   66SAPC   C38 5511   5.410   6.779   7.445 -0.3769 -0.8586  0.1481
   66SAPC   H8X 5512   5.422   6.889   7.432 -0.0832 -0.9445 -0.3416
   66SAPC   H8Y 5513   5.508   6.731   7.423  0.0017 -0.1902  0.3634
   66SAPC   C39 5514   5.363   6.744   7.588 -0.6230  0.5734  0.3550
   66SAPC   H9X 5515   5.454   6.718   7.647 -0.7095  1.5262  0.9290
   66SAPC   H9Y 5516   5.293   6.658   7.582 -0.2303  0.2921 -0.1962
   66SAPC  C310 5517   5.279   6.846   7.662  0.0802 -0.2653 -0.0792
   66SAPC  H10X 5518   5.178   6.858   7.618 -0.0451  3.2172  1.0384
   66SAPC  H10Y 5519   5.335   6.941   7.674  0.3675 -0.4217 -0.1732
   66SAPC  C311 5520   5.262   6.795   7.809  0.1677 -0.1345  0.6233
   66SAPC  H11X 5521   5.357   6.814   7.863  1.1194  0.1829 -1.1340
   66SAPC  H11Y 5522   5.237   6.687   7.803 -1.7356  0.3923 -1.7519
   66SAPC  C312 5523   5.150   6.876   7.867  0.1160 -0.0911  0.3623
   66SAPC  H12X 5524   5.059   6.869   7.804 -0.2142  0.8031  0.7401
   66SAPC  H12Y 5525   5.175   6.984   7.859  0.6015 -0.4166 -3.2375
   66SAPC  C313 5526   5.109   6.822   8.005  0.1125 -0.0379  0.7780
   66SAPC  H13X 5527   5.073   6.718   7.994 -2.6130  0.9827 -0.3484
   66SAPC  H13Y 5528   5.019   6.879   8.035 -0.5669 -0.1822 -0.9518
   66SAPC  C314 5529   5.224   6.841   8.104  0.1841  0.5833 -0.6816
   66SAPC  H14X 5530   5.283   6.929   8.069  0.9086 -0.2060 -1.4832
   66SAPC  H14Y 5531   5.284   6.747   8.108 -1.2802 -0.2798  3.3177
   66SAPC  C315 5532   5.182   6.882   8.241  0.3274 -0.0238  0.4457
   66SAPC  H15X 5533   5.083   6.933   8.243 -0.7429 -2.0513  0.7262
   66SAPC  H15Y 5534   5.249   6.962   8.279 -0.5123 -0.4803  2.9233
   66SAPC  C316 5535   5.173   6.782   8.356  0.2122 -0.1978  0.5238
   66SAPC  H16X 5536   5.180   6.834   8.454 -1.5711 -0.6057  0.8814
   66SAPC  H16Y 5537   5.260   6.713   8.349  0.5995  0.4522 -1.3989
   66SAPC  C317 5538   5.042   6.696   8.355 -0.0710  0.3561  0.1940
   66SAPC  H17X 5539   5.042   6.639   8.260 -0.5382  0.6750  0.0014
   66SAPC  H17Y 5540   4.950   6.756   8.369 -0.9979 -1.0401  0.2415
   66SAPC  C318 5541   5.051   6.592   8.466 -0.5189 -0.1523  0.3701
   66SAPC  H18X 5542   5.068   6.629   8.570 -1.2629 -1.7102  1.0755
   66SAPC  H18Y 5543   5.143   6.533   8.448 -0.4480  0.6986 -2.2412
   66SAPC  H18Z 5544   4.954   6.538   8.477 -2.6029  3.3731  0.2193
   67SAPC     N 5545   0.534   2.261   6.074  0.0180 -0.4638  0.6441
   67SAPC   C12 5546   0.627   2.196   6.182  0.1573  0.1280 -0.2657
   67SAPC  H12A 5547   0.722   2.246   6.187 -0.5960  1.9399 -2.7307
   67SAPC  H12B 5548   0.647   2.097   6.144  1.7651  0.6428 -0.8023
   67SAPC   C13 5549   0.405   2.194   6.049  0.4142 -0.3428  0.0025
   67SAPC  H13A 5550   0.349   2.245   5.972 -0.9675 -0.9648  0.5612
   67SAPC  H13B 5551   0.425   2.091   6.023 -2.4058 -0.8731 -0.2208
   67SAPC  H13C 5552   0.348   2.203   6.140  0.0674 -0.7305 -0.1698
   67SAPC   C14 5553   0.498   2.405   6.111  0.4918 -0.5888 -0.0230
   67SAPC  H14A 5554   0.443   2.455   6.034  0.7927  0.6177  0.5364
   67SAPC  H14B 5555   0.456   2.409   6.210 -1.7124 -1.3986 -0.9039
   67SAPC  H14C 5556   0.586   2.468   6.115 -0.1099  0.1894  1.4052
   67SAPC   C15 5557   0.607   2.257   5.942  0.2737 -0.4074 -0.2225
   67SAPC  H15A 5558   0.611   2.157   5.902  1.3617 -0.0397 -1.0407
   67SAPC  H15B 5559   0.559   2.320   5.869 -0.9596 -1.3205 -0.2282
   67SAPC  H15C 5560   0.704   2.293   5.971 -0.7936  1.1687  1.4928
   67SAPC   C11 5561   0.567   2.169   6.322  0.6264  0.4111  0.3633
   67SAPC  H11A 5562   0.637   2.114   6.388  1.8204 -0.2048 -1.3765
   67SAPC  H11B 5563   0.480   2.102   6.302 -1.6934  4.3406 -3.6762
   67SAPC     P 5564   0.372   2.307   6.440 -0.1045  0.0091  0.5671
   67SAPC   O13 5565   0.332   2.447   6.444  0.0319 -0.1497  0.1316
   67SAPC   O14 5566   0.287   2.214   6.367  0.1422 -0.0126 -0.6583
   67SAPC   O12 5567   0.521   2.291   6.392 -0.0100  0.4238  0.0157
   67SAPC   O11 5568   0.388   2.254   6.584 -0.0109  0.3601  0.2146
   67SAPC    C1 5569   0.465   2.325   6.679  0.2478 -0.2360 -0.9460
   67SAPC    HA 5570   0.572   2.344   6.655  1.4163 -1.2175  3.0828
   67SAPC    HB 5571   0.418   2.425   6.690  2.2487  0.8995 -2.4710
   67SAPC    C2 5572   0.463   2.250   6.818  0.8293 -0.0901 -0.2800
   67SAPC    HS 5573   0.500   2.315   6.900  0.4290 -1.7222  1.2138
   67SAPC   O21 5574   0.531   2.125   6.812 -0.3753  0.1863 -0.9560
   67SAPC   C21 5575   0.662   2.133   6.789 -0.3456 -0.1305  0.1133
   67SAPC   O22 5576   0.726   2.237   6.779 -0.4596  0.6347 -0.0842
   67SAPC   C22 5577   0.718   1.990   6.789  0.1080 -0.3292  0.1450
   67SAPC   H2R 5578   0.685   1.946   6.692  1.0292  1.6838 -1.1254
   67SAPC   H2S 5579   0.829   2.002   6.781 -0.1436  2.0092 -0.2978
   67SAPC    C3 5580   0.312   2.233   6.856 -0.5096 -0.5709  0.2970
   67SAPC    HX 5581   0.262   2.152   6.798  0.9671 -2.3555  1.4538
   67SAPC    HY 5582   0.263   2.330   6.830  3.2153  1.4838  0.5553
   67SAPC   O31 5583   0.293   2.220   7.000  0.3454  0.7550 -0.1271
   67SAPC   C31 5584   0.291   2.094   7.035  0.2647 -0.3288  0.0547
   67SAPC   O32 5585   0.308   1.993   6.967  0.7522  0.1291 -0.0957
   67SAPC   C32 5586   0.274   2.092   7.186 -0.2677 -0.3029  0.2314
   67SAPC   H2X 5587   0.174   2.132   7.211 -0.3795 -1.5083  1.7874
   67SAPC   H2Y 5588   0.360   2.146   7.231  1.0109 -3.6305  1.9996
   67SAPC   C23 5589   0.688   1.923   6.918 -0.4765 -0.7595  0.0171
   67SAPC   H3R 5590   0.602   1.970   6.971  0.7516  1.9569 -0.2995
   67SAPC   H3S 5591   0.770   1.931   6.992  0.6337  0.5993 -1.3365
   67SAPC   C24 5592   0.645   1.774   6.902  0.0843 -0.2341  0.7989
   67SAPC   H4R 5593   0.548   1.779   6.849 -1.5266 -0.3509  3.6234
   67SAPC   H4S 5594   0.612   1.740   7.003  0.0633  0.1939  0.9368
   67SAPC   C25 5595   0.741   1.673   6.834 -0.2834  0.5066 -0.0362
   67SAPC   H5R 5596   0.804   1.713   6.754 -0.4539  1.2846  0.2148
   67SAPC   C26 5597   0.771   1.549   6.872  0.6126 -0.1917 -0.2179
   67SAPC   H6R 5598   0.845   1.489   6.817  0.2739 -0.4742 -0.3718
   67SAPC   C27 5599   0.699   1.482   6.991  0.4220  0.2957 -0.3542
   67SAPC   H7R 5600   0.590   1.490   6.971  0.2118 -1.3732  0.0945
   67SAPC   H7S 5601   0.734   1.532   7.084  0.8866 -1.4814  0.4534
   67SAPC   C28 5602   0.722   1.335   7.004  0.1055 -0.2201  0.2067
   67SAPC   H8R 5603   0.733   1.282   6.908 -0.8049  0.6254 -0.3680
   67SAPC   C29 5604   0.712   1.257   7.112  0.3374  0.1096 -1.0527
   67SAPC   H9R 5605   0.726   1.149   7.097 -1.6132 -0.1578 -1.1287
   67SAPC  C210 5606   0.686   1.311   7.252  0.0883  0.1705 -0.5764
   67SAPC  H10R 5607   0.661   1.420   7.249 -0.6740  0.0509  1.0335
   67SAPC  H10S 5608   0.776   1.293   7.316  0.4181  0.6707 -0.8935
   67SAPC  C211 5609   0.562   1.255   7.320  0.5755  0.9481 -1.1481
   67SAPC  H11R 5610   0.464   1.280   7.277  0.2352 -1.0779 -1.6092
   67SAPC  C212 5611   0.559   1.148   7.404  0.6445  0.5424  0.4113
   67SAPC  H12R 5612   0.464   1.117   7.450 -0.7684  1.9633 -1.4666
   67SAPC  C213 5613   0.685   1.062   7.445 -0.0081  0.3202  0.0595
   67SAPC  H13R 5614   0.711   1.085   7.551  0.5506  0.0092 -0.0059
   67SAPC  H13S 5615   0.778   1.084   7.387 -0.0921 -0.2336 -0.2909
   67SAPC  C214 5616   0.656   0.914   7.452  0.5203 -0.1087  0.9648
   67SAPC  H14R 5617   0.655   0.864   7.550  1.7016 -1.0411  0.5180
   67SAPC  C215 5618   0.613   0.839   7.343 -0.1357 -0.6307 -0.1867
   67SAPC  H15R 5619   0.575   0.738   7.365 -0.5028 -0.0585  1.9136
   67SAPC  C216 5620   0.593   0.889   7.199 -0.3067  0.3114 -0.2094
   67SAPC  H16R 5621   0.646   0.818   7.131  0.4314 -0.0035  0.6848
   67SAPC  H16S 5622   0.648   0.982   7.173 -0.8474  1.3286  2.1113
   67SAPC  C217 5623   0.454   0.910   7.152  0.3819 -0.3605  0.8380
   67SAPC  H17R 5624   0.402   0.996   7.199 -0.5497  0.6235 -1.9167
   67SAPC  H17S 5625   0.393   0.818   7.168 -0.7797  0.4293  0.9980
   67SAPC  C218 5626   0.447   0.931   6.997 -0.3510 -0.5500  0.0082
   67SAPC  H18R 5627   0.490   0.843   6.945  1.6605  1.4831 -1.8857
   67SAPC  H18S 5628   0.512   1.017   6.971 -2.2244  1.0779  0.5069
   67SAPC  C219 5629   0.298   0.957   6.942  0.7162 -0.3888  0.1863
   67SAPC  H19R 5630   0.256   1.042   7.000 -1.4933  0.5479 -2.7302
   67SAPC  H19S 5631   0.236   0.867   6.960 -0.0685  0.5067  2.1419
   67SAPC  C220 5632   0.299   0.976   6.782 -0.0439 -0.1490 -0.4721
   67SAPC  H20R 5633   0.358   1.068   6.760 -1.3601  0.3656 -1.8646
   67SAPC  H20S 5634   0.198   0.987   6.737 -0.6009  0.7203  0.9402
   67SAPC  H20T 5635   0.345   0.886   6.737  0.4814 -0.8169  1.3457
   67SAPC   C33 5636   0.283   1.943   7.242  0.0679 -0.4382  0.0288
   67SAPC   H3X 5637   0.208   1.881   7.189 -0.2805 -0.8905  1.0356
   67SAPC   H3Y 5638   0.253   1.944   7.349 -0.7296 -0.8560 -0.1895
   67SAPC   C34 5639   0.427   1.886   7.235 -0.1136 -0.7944 -0.1540
   67SAPC   H4X 5640   0.500   1.942   7.298 -1.1013 -0.8173  1.0372
   67SAPC   H4Y 5641   0.461   1.888   7.130 -0.2440 -0.8177 -0.1967
   67SAPC   C35 5642   0.435   1.734   7.253 -0.2537  0.0431  0.0989
   67SAPC   H5X 5643   0.540   1.726   7.218 -1.0558 -1.7979 -2.0031
   67SAPC   H5Y 5644   0.372   1.685   7.176 -0.3146  0.9928 -0.4585
   67SAPC   C36 5645   0.414   1.677   7.396 -0.5387  0.1927 -0.4805
   67SAPC   H6X 5646   0.449   1.744   7.478 -1.8285  0.0530  0.2002
   67SAPC   H6Y 5647   0.477   1.589   7.419 -0.0810  0.2700 -1.4210
   67SAPC   C37 5648   0.271   1.627   7.425 -0.1481  0.7771  0.0357
   67SAPC   H7X 5649   0.270   1.517   7.413 -0.4525  0.7904 -0.0793
   67SAPC   H7Y 5650   0.200   1.669   7.351 -0.8693  1.1444  0.9231
   67SAPC   C38 5651   0.217   1.656   7.566 -0.3683 -0.0736  1.1740
   67SAPC   H8X 5652   0.123   1.598   7.577 -0.2347 -0.7379 -0.8887
   67SAPC   H8Y 5653   0.198   1.765   7.571  1.1288  0.3095 -0.8010
   67SAPC   C39 5654   0.307   1.613   7.684 -0.1451 -0.5556  0.0678
   67SAPC   H9X 5655   0.414   1.632   7.660 -0.2484 -0.7620 -0.5638
   67SAPC   H9Y 5656   0.305   1.502   7.685 -0.2418 -0.5485  0.7842
   67SAPC  C310 5657   0.250   1.658   7.818  0.1929 -0.2084  0.3427
   67SAPC  H10X 5658   0.140   1.641   7.815  0.3542 -1.0399 -0.9434
   67SAPC  H10Y 5659   0.259   1.768   7.833 -0.1331 -0.2335  0.7600
   67SAPC  C311 5660   0.301   1.581   7.938  1.2263  0.1248 -0.0081
   67SAPC  H11X 5661   0.330   1.478   7.905 -1.2970  0.0248 -2.1084
   67SAPC  H11Y 5662   0.215   1.575   8.008  1.8307  1.1780  0.8373
   67SAPC  C312 5663   0.419   1.648   8.009  0.1765 -0.3290 -0.1259
   67SAPC  H12X 5664   0.381   1.734   8.067  0.3499  1.1971 -2.2295
   67SAPC  H12Y 5665   0.497   1.671   7.933  1.3149 -0.4456  1.0053
   67SAPC  C313 5666   0.483   1.540   8.101  0.2923  0.4209 -0.0438
   67SAPC  H13X 5667   0.523   1.461   8.033  2.0178  1.5056 -0.3119
   67SAPC  H13Y 5668   0.398   1.500   8.162 -0.3781  0.0857 -1.1746
   67SAPC  C314 5669   0.595   1.600   8.191 -1.0655  0.0398  0.1858
   67SAPC  H14X 5670   0.682   1.611   8.123  0.0457 -0.9105  1.4469
   67SAPC  H14Y 5671   0.623   1.530   8.272 -2.0534 -1.3152 -0.6109
   67SAPC  C315 5672   0.566   1.736   8.245  0.2364 -0.3947 -0.4408
   67SAPC  H15X 5673   0.550   1.812   8.164 -0.1648  1.0743  0.9902
   67SAPC  H15Y 5674   0.661   1.764   8.296 -0.1907  1.2852 -0.5247
   67SAPC  C316 5675   0.455   1.751   8.338  0.7259 -0.5102 -0.4774
   67SAPC  H16X 5676   0.350   1.733   8.304  0.6556  0.7719 -0.9549
   67SAPC  H16Y 5677   0.457   1.856   8.374  0.7365  0.3347 -2.8704
   67SAPC  C317 5678   0.464   1.659   8.465  0.2884 -0.0553  0.2210
   67SAPC  H17X 5679   0.572   1.667   8.493  0.2829  0.4476  0.1053
   67SAPC  H17Y 5680   0.447   1.552   8.439 -2.0053  0.7409 -1.6621
   67SAPC  C318 5681   0.390   1.704   8.587  0.1273 -0.7196 -0.0481
   67SAPC  H18X 5682   0.417   1.810   8.604  0.5780 -0.5806 -1.5847
   67SAPC  H18Y 5683   0.418   1.639   8.673  0.3757  0.0243  0.4388
   67SAPC  H18Z 5684   0.280   1.690   8.576  0.0861 -0.7244  0.3439
   68SAPC     N 5685   5.619   0.804   6.299 -0.4909  0.3635  0.0442
   68SAPC   C12 5686   5.739   0.892   6.275  0.2303  0.5432 -0.1182
   68SAPC  H12A 5687   5.811   0.864   6.351 -2.1018  1.8444  2.6618
   68SAPC  H12B 5688   5.721   0.997   6.292  0.8903  0.3882  1.7274
   68SAPC   C13 5689   5.520   0.816   6.185 -0.0090 -0.2341 -0.7954
   68SAPC  H13A 5690   5.561   0.774   6.094  0.3679  0.7192 -1.0679
   68SAPC  H13B 5691   5.431   0.761   6.212  0.5293  0.1588  1.8969
   68SAPC  H13C 5692   5.485   0.916   6.168 -0.4434 -0.3685 -0.6958
   68SAPC   C14 5693   5.661   0.666   6.314 -0.3824  0.1689 -0.3324
   68SAPC  H14A 5694   5.724   0.631   6.233 -1.4347 -0.1502 -1.0124
   68SAPC  H14B 5695   5.716   0.647   6.406 -0.5059  2.3143  0.1973
   68SAPC  H14C 5696   5.579   0.596   6.322 -0.5992  0.2002 -2.1451
   68SAPC   C15 5697   5.556   0.836   6.432  0.7104  0.3298  0.5360
   68SAPC  H15A 5698   5.537   0.942   6.437  0.3579  0.2370  1.2152
   68SAPC  H15B 5699   5.464   0.780   6.442  0.4721  0.1202 -2.4005
   68SAPC  H15C 5700   5.624   0.801   6.508  1.2340  0.5133  0.1555
   68SAPC   C11 5701   5.833   0.869   6.151 -0.4817  0.3197  0.2999
   68SAPC  H11A 5702   5.915   0.944   6.156 -1.3146  1.3914 -1.6727
   68SAPC  H11B 5703   5.773   0.900   6.063  0.4289 -0.0516 -0.4637
   68SAPC     P 5704   6.023   0.696   6.211 -0.1844 -0.1015 -0.1082
   68SAPC   O13 5705   5.984   0.684   6.357  0.7925  0.0422  0.1432
   68SAPC   O14 5706   6.079   0.579   6.138  0.4607  0.5917  0.1325
   68SAPC   O12 5707   5.884   0.739   6.136  0.4062 -0.4099  0.1108
   68SAPC   O11 5708   6.112   0.824   6.188  0.2111 -0.0011 -0.1653
   68SAPC    C1 5709   6.253   0.809   6.198 -0.1091  0.7107 -0.7092
   68SAPC    HA 5710   6.288   0.711   6.160 -0.9776  0.3329 -0.5451
   68SAPC    HB 5711   6.306   0.873   6.124 -0.4255 -1.1357 -2.5686
   68SAPC    C2 5712   6.304   0.852   6.342 -0.2886  0.1408  0.4387
   68SAPC    HS 5713   6.412   0.825   6.335  0.1917  2.4174 -1.8081
   68SAPC   O21 5714   6.247   0.778   6.451 -0.0845  0.0056  0.2165
   68SAPC   C21 5715   6.281   0.656   6.459 -0.3566  0.5701 -0.6731
   68SAPC   O22 5716   6.360   0.597   6.385 -0.1216  0.2050  0.2739
   68SAPC   C22 5717   6.212   0.592   6.579  0.3534 -0.0461  0.3213
   68SAPC   H2R 5718   6.233   0.630   6.681 -1.8692 -0.3999  0.9230
   68SAPC   H2S 5719   6.106   0.617   6.559  0.8915  2.1858  0.0511
   68SAPC    C3 5720   6.286   1.002   6.360 -0.6480 -0.2604 -0.1647
   68SAPC    HX 5721   6.184   1.026   6.321 -1.0119  0.5476  1.2494
   68SAPC    HY 5722   6.356   1.039   6.282 -2.0160  1.3068 -0.6830
   68SAPC   O31 5723   6.320   1.057   6.482  0.1007 -0.0573  0.1862
   68SAPC   C31 5724   6.222   1.091   6.566  0.3032  0.0182 -0.1209
   68SAPC   O32 5725   6.104   1.090   6.542  0.4132  0.2636 -0.4428
   68SAPC   C32 5726   6.288   1.110   6.705 -0.4162 -0.3955  0.2840
   68SAPC   H2X 5727   6.367   1.187   6.698  0.1332 -0.9883 -0.0454
   68SAPC   H2Y 5728   6.333   1.014   6.737  3.8629  0.9253 -1.4995
   68SAPC   C23 5729   6.236   0.428   6.586  0.5193 -0.1072 -0.0276
   68SAPC   H3R 5730   6.342   0.404   6.610  0.3125 -0.1923  0.8201
   68SAPC   H3S 5731   6.205   0.385   6.489 -2.2458  0.2867  0.6440
   68SAPC   C24 5732   6.137   0.353   6.678  0.6415  0.6179 -0.3178
   68SAPC   H4R 5733   6.131   0.250   6.635 -0.2724 -0.6282  2.6714
   68SAPC   H4S 5734   6.037   0.401   6.674  0.7103  0.8136  0.3618
   68SAPC   C25 5735   6.187   0.342   6.818 -0.3699 -0.1926  0.7446
   68SAPC   H5R 5736   6.259   0.262   6.840  1.4835  1.1789 -0.1268
   68SAPC   C26 5737   6.141   0.408   6.930  0.3729  0.2724 -0.3906
   68SAPC   H6R 5738   6.185   0.381   7.027  0.8180  1.6189 -0.2108
   68SAPC   C27 5739   6.026   0.505   6.942 -0.6176 -0.6429 -0.1292
   68SAPC   H7R 5740   5.972   0.481   7.036 -2.3408  3.6286  0.0993
   68SAPC   H7S 5741   5.943   0.480   6.872 -1.9444 -0.0266  1.2067
   68SAPC   C28 5742   6.064   0.647   6.938  0.3863 -0.2244 -0.9334
   68SAPC   H8R 5743   6.078   0.691   6.838 -1.3342  2.2965 -0.1330
   68SAPC   C29 5744   6.082   0.735   7.046  0.1882 -0.3092 -0.2627
   68SAPC   H9R 5745   6.130   0.832   7.024 -1.7636  0.1775 -2.5304
   68SAPC  C210 5746   6.080   0.697   7.190 -0.0397 -1.0435  0.0585
   68SAPC  H10R 5747   6.185   0.706   7.225  0.0637 -1.3401 -0.1773
   68SAPC  H10S 5748   6.053   0.591   7.208  0.3120 -1.5023 -2.0388
   68SAPC  C211 5749   5.986   0.791   7.270 -1.0722 -0.4551  1.2409
   68SAPC  H11R 5750   5.954   0.878   7.210 -0.3522 -0.5719  0.6885
   68SAPC  C212 5751   5.977   0.799   7.405  0.0760  0.1514 -0.3131
   68SAPC  H12R 5752   5.894   0.858   7.446 -0.1175  0.8612 -1.6848
   68SAPC  C213 5753   6.061   0.710   7.506 -0.4254 -0.7024  0.3671
   68SAPC  H13R 5754   6.136   0.649   7.451  0.2680 -0.7538  1.3519
   68SAPC  H13S 5755   5.983   0.647   7.555 -2.3835 -0.3121 -2.1296
   68SAPC  C214 5756   6.145   0.795   7.600  0.5254  0.3467  0.1369
   68SAPC  H14R 5757   6.240   0.832   7.560  0.0504 -0.0352 -1.3977
   68SAPC  C215 5758   6.113   0.829   7.730  0.4630  0.0581 -0.3040
   68SAPC  H15R 5759   6.181   0.894   7.787 -0.9420 -0.0382  1.5311
   68SAPC  C216 5760   5.985   0.798   7.806 -0.2519 -0.3939 -0.4175
   68SAPC  H16R 5761   5.904   0.791   7.731 -1.1053 -0.1170  0.4554
   68SAPC  H16S 5762   5.975   0.880   7.880  1.0932  0.6606 -1.3855
   68SAPC  C217 5763   5.983   0.669   7.887 -0.6499 -0.3096 -0.1297
   68SAPC  H17R 5764   5.983   0.574   7.829  0.6196 -0.9777  0.9529
   68SAPC  H17S 5765   5.881   0.665   7.932 -1.5282  1.7501 -1.8218
   68SAPC  C218 5766   6.082   0.666   7.997 -0.0398  0.3015  0.2219
   68SAPC  H18R 5767   6.065   0.754   8.062 -0.9326  0.8055 -0.6906
   68SAPC  H18S 5768   6.189   0.662   7.965 -0.0736  0.6469  0.0684
   68SAPC  C219 5769   6.059   0.553   8.098 -0.3883  0.0406  0.2512
   68SAPC  H19R 5770   6.043   0.460   8.039 -1.6705  0.0499  0.5598
   68SAPC  H19S 5771   5.962   0.573   8.149 -0.4537  2.6997 -0.8585
   68SAPC  C220 5772   6.160   0.537   8.211 -0.0025 -0.2258 -1.2604
   68SAPC  H20R 5773   6.122   0.457   8.279  1.4433  0.5523  0.5115
   68SAPC  H20S 5774   6.178   0.628   8.272 -0.8925 -1.0086  0.2048
   68SAPC  H20T 5775   6.255   0.511   8.161  0.8235 -1.9023  1.1256
   68SAPC   C33 5776   6.184   1.142   6.809  0.3511 -0.3550  0.2891
   68SAPC   H3X 5777   6.101   1.069   6.796 -0.8960  0.8195  1.5459
   68SAPC   H3Y 5778   6.147   1.246   6.806 -2.2290 -1.2685 -0.7836
   68SAPC   C34 5779   6.236   1.121   6.950 -0.1777  0.1176  0.0185
   68SAPC   H4X 5780   6.318   1.188   6.982 -0.8777  1.4187 -0.8791
   68SAPC   H4Y 5781   6.269   1.016   6.965  2.8835  0.6696 -2.3018
   68SAPC   C35 5782   6.128   1.154   7.060 -0.4490  0.7770  0.9033
   68SAPC   H5X 5783   6.037   1.092   7.049  1.9082 -2.5658 -0.9500
   68SAPC   H5Y 5784   6.108   1.263   7.054 -3.3537  0.2071 -0.1821
   68SAPC   C36 5785   6.178   1.106   7.196  0.4434 -0.6492  0.5260
   68SAPC   H6X 5786   6.279   1.149   7.216  0.5543 -1.1666  1.0732
   68SAPC   H6Y 5787   6.202   0.998   7.188  2.1444 -0.3984  1.9873
   68SAPC   C37 5788   6.091   1.141   7.314  0.0269  0.2609 -0.4122
   68SAPC   H7X 5789   5.989   1.097   7.308  0.2611 -0.3192 -0.2482
   68SAPC   H7Y 5790   6.081   1.250   7.296  1.4438  0.1674 -1.9024
   68SAPC   C38 5791   6.155   1.108   7.447 -0.3090  0.1553  0.1431
   68SAPC   H8X 5792   6.257   1.153   7.440 -1.2101  1.9143 -2.1772
   68SAPC   H8Y 5793   6.174   0.999   7.451 -3.0356 -0.3037  3.0684
   68SAPC   C39 5794   6.075   1.159   7.570  0.0796  0.5788  0.2557
   68SAPC   H9X 5795   5.994   1.086   7.590 -1.0680  2.1040  1.2194
   68SAPC   H9Y 5796   6.023   1.252   7.541  0.2238  0.0920 -1.6575
   68SAPC  C310 5797   6.159   1.191   7.693 -0.2058  0.3843  0.2011
   68SAPC  H10X 5798   6.221   1.282   7.680 -0.1296  0.1744 -0.9236
   68SAPC  H10Y 5799   6.232   1.112   7.720  0.1583  0.3546 -0.8586
   68SAPC  C311 5800   6.078   1.205   7.817  0.4243  1.0131  0.0656
   68SAPC  H11X 5801   6.017   1.115   7.841  3.0377 -0.8011  0.2399
   68SAPC  H11Y 5802   6.007   1.289   7.817  1.7105  2.1151 -0.2801
   68SAPC  C312 5803   6.168   1.228   7.948  0.5605 -0.4407  0.2783
   68SAPC  H12X 5804   6.236   1.314   7.934  0.3415 -0.3509 -0.2279
   68SAPC  H12Y 5805   6.249   1.153   7.953  1.2827  0.2777 -0.5868
   68SAPC  C313 5806   6.068   1.235   8.070 -0.7006  0.5363 -1.1893
   68SAPC  H13X 5807   5.999   1.151   8.090 -0.0743  0.4718  0.7512
   68SAPC  H13Y 5808   5.994   1.316   8.056  0.0101  1.2452 -0.9142
   68SAPC  C314 5809   6.133   1.267   8.208  0.6021 -0.3983 -0.6183
   68SAPC  H14X 5810   6.208   1.191   8.240 -0.1220 -0.0608  1.9177
   68SAPC  H14Y 5811   6.053   1.267   8.285  1.4989  0.0169  0.3198
   68SAPC  C315 5812   6.194   1.410   8.207 -0.3840 -0.9757 -0.1236
   68SAPC  H15X 5813   6.124   1.480   8.158  1.5153  2.6077  1.9941
   68SAPC  H15Y 5814   6.284   1.413   8.142 -1.4427  0.9438 -1.5564
   68SAPC  C316 5815   6.237   1.461   8.341 -0.2970  0.2420  0.2056
   68SAPC  H16X 5816   6.335   1.415   8.370 -1.5794 -1.7355  1.5278
   68SAPC  H16Y 5817   6.160   1.433   8.416 -0.3457  3.5562  1.4710
   68SAPC  C317 5818   6.249   1.620   8.352 -0.9461 -0.1209 -0.2865
   68SAPC  H17X 5819   6.148   1.665   8.340 -1.3053 -1.2372 -1.6734
   68SAPC  H17Y 5820   6.310   1.669   8.273 -1.5179 -0.5131 -0.9801
   68SAPC  C318 5821   6.314   1.660   8.484 -0.1075 -0.0305  0.0640
   68SAPC  H18X 5822   6.408   1.602   8.495  1.0788  0.7405 -4.9740
   68SAPC  H18Y 5823   6.238   1.632   8.560 -0.4066  2.4568  0.7208
   68SAPC  H18Z 5824   6.346   1.764   8.501 -0.6543  0.5108 -2.0175
   69SLPC     N 5825   2.713   5.640  11.051 -0.6004  0.4983 -1.0461
   69SLPC   C13 5826   2.636   5.723  11.152  0.4732  0.1324  0.0802
   69SLPC  H13A 5827   2.690   5.769  11.233  0.0236  0.3357  0.2685
   69SLPC  H13B 5828   2.592   5.805  11.098 -1.3976  0.0340  1.4055
   69SLPC  H13C 5829   2.561   5.665  11.205  2.4716 -2.3079  0.3474
   69SLPC   C14 5830   2.630   5.598  10.940  0.3069  0.8966  0.0186
   69SLPC  H14A 5831   2.689   5.540  10.871  2.9898  1.1472  2.0351
   69SLPC  H14B 5832   2.559   5.528  10.981 -2.0752  3.3609  0.2353
   69SLPC  H14C 5833   2.575   5.670  10.882 -1.4013  1.7075  2.5576
   69SLPC   C15 5834   2.758   5.511  11.122 -0.6988 -0.3261 -0.3067
   69SLPC  H15A 5835   2.805   5.532  11.217 -0.1129  2.1969 -1.1215
   69SLPC  H15B 5836   2.685   5.439  11.156 -2.8756  1.7793 -0.3687
   69SLPC  H15C 5837   2.832   5.458  11.063  0.4908  1.5502 -0.5359
   69SLPC   C12 5838   2.834   5.715  10.996 -0.0059 -0.7823  1.2195
   69SLPC  H12A 5839   2.901   5.649  10.944 -2.0579 -1.8823 -0.0611
   69SLPC  H12B 5840   2.894   5.750  11.079  0.2415 -1.7786  1.4657
   69SLPC   C11 5841   2.815   5.833  10.897 -0.5552 -0.4548 -0.5303
   69SLPC  H11A 5842   2.785   5.789  10.799 -0.4030 -0.7276 -0.4536
   69SLPC  H11B 5843   2.914   5.879  10.880  0.3347 -1.6282  1.3209
   69SLPC     P 5844   2.632   6.021  10.897 -0.0084 -0.0915 -0.1170
   69SLPC   O13 5845   2.502   5.973  10.937  0.0379 -0.0880 -0.6627
   69SLPC   O14 5846   2.672   6.155  10.937  0.6953  0.0836  0.0666
   69SLPC   O12 5847   2.736   5.924  10.964  0.0726 -0.3046  0.0831
   69SLPC   O11 5848   2.652   6.004  10.741 -0.0594 -0.9661 -0.2088
   69SLPC    C1 5849   2.569   5.922  10.661 -0.1428  0.0922  0.3062
   69SLPC    HA 5850   2.583   5.817  10.696  0.6597 -0.5767 -1.9354
   69SLPC    HB 5851   2.463   5.948  10.678 -0.0830  0.2688  0.4055
   69SLPC    C2 5852   2.603   5.937  10.508  0.0484 -0.2460 -0.9742
   69SLPC    HS 5853   2.712   5.923  10.493 -0.2010 -2.6242 -0.7152
   69SLPC   O21 5854   2.570   6.076  10.475 -0.4257  0.4573  0.0827
   69SLPC   C21 5855   2.635   6.118  10.356 -0.0818 -0.3240  0.3819
   69SLPC   O22 5856   2.705   6.057  10.280 -0.1410 -0.7893  0.0721
   69SLPC   C22 5857   2.585   6.262  10.330  0.5878 -0.1326  0.4219
   69SLPC   H2R 5858   2.480   6.268  10.366  0.3808 -1.3014  0.0399
   69SLPC   H2S 5859   2.646   6.328  10.395  0.5967  0.8073 -0.5261
   69SLPC    C3 5860   2.518   5.829  10.433  0.7592 -0.1096  0.1074
   69SLPC    HX 5861   2.416   5.872  10.421  0.3035 -0.6032  2.0605
   69SLPC    HY 5862   2.489   5.748  10.503 -1.7640  1.4821  0.9820
   69SLPC   O31 5863   2.583   5.780  10.319 -1.0164 -0.3512  0.4257
   69SLPC   C31 5864   2.527   5.822  10.199 -0.6835 -0.1646 -0.4799
   69SLPC   O32 5865   2.424   5.887  10.192 -0.0079  0.3009  0.2488
   69SLPC   C32 5866   2.608   5.754  10.090  0.3494 -0.5649 -0.6742
   69SLPC   H2X 5867   2.646   5.658  10.131 -1.7522 -0.3876  1.7529
   69SLPC   H2Y 5868   2.693   5.818  10.060 -1.0363  2.2459  1.2240
   69SLPC   C23 5869   2.596   6.306  10.181 -0.4912  0.5122 -0.1350
   69SLPC   H3R 5870   2.703   6.285  10.158 -0.2367  0.5286  0.9603
   69SLPC   H3S 5871   2.569   6.414  10.175 -3.5451 -0.2383 -0.4393
   69SLPC   C24 5872   2.507   6.233  10.089  0.1300 -0.4479 -0.5438
   69SLPC   H4R 5873   2.401   6.231  10.123 -0.0192  0.4288 -0.9376
   69SLPC   H4S 5874   2.541   6.127  10.089 -1.9735 -1.1529  0.6243
   69SLPC   C25 5875   2.524   6.277   9.946  0.4364  0.2041  0.3332
   69SLPC   H5R 5876   2.630   6.264   9.918  0.5828 -0.9669  1.3870
   69SLPC   H5S 5877   2.495   6.385   9.944  1.0131  0.3425 -0.6551
   69SLPC   C26 5878   2.435   6.200   9.846 -0.3696 -0.6612  0.1163
   69SLPC   H6R 5879   2.411   6.098   9.883 -1.0128 -0.0581  1.4154
   69SLPC   H6S 5880   2.492   6.185   9.752 -1.4548 -0.6199 -0.5518
   69SLPC   C27 5881   2.301   6.272   9.819  0.1475  0.6332  0.1920
   69SLPC   H7R 5882   2.311   6.379   9.791 -1.5379  1.2569  1.8791
   69SLPC   H7S 5883   2.245   6.284   9.914  0.9690  0.7742  0.6663
   69SLPC   C28 5884   2.219   6.216   9.704  0.0504  0.2263  0.7392
   69SLPC   H8R 5885   2.271   6.241   9.609 -0.4810  0.3757  0.4856
   69SLPC   H8S 5886   2.123   6.272   9.705  1.3016  2.4366  2.4489
   69SLPC   C29 5887   2.200   6.069   9.714  0.1922 -0.1597 -0.0061
   69SLPC   H9R 5888   2.155   6.034   9.808  2.9768 -0.4721  1.2426
   69SLPC  C210 5889   2.235   5.977   9.619 -0.6884 -0.2415 -0.0050
   69SLPC  H10R 5890   2.216   5.873   9.650 -0.1363 -0.5666 -0.7588
   69SLPC  C211 5891   2.302   6.013   9.486 -0.3627  0.6223  0.3725
   69SLPC  H11R 5892   2.391   6.077   9.501  0.0425  0.2403 -0.4007
   69SLPC  H11S 5893   2.226   6.072   9.429  1.2063  0.2090 -2.2139
   69SLPC  C212 5894   2.337   5.897   9.398 -0.8042 -0.3517 -0.6331
   69SLPC  H12R 5895   2.428   5.847   9.435  1.1176  2.0526 -1.9740
   69SLPC  C213 5896   2.265   5.855   9.296 -1.3188  0.2857 -0.1262
   69SLPC  H13R 5897   2.303   5.774   9.232 -0.2269  0.6773  0.0217
   69SLPC  C214 5898   2.140   5.924   9.242  0.4506  0.0371 -0.0676
   69SLPC  H14R 5899   2.071   5.956   9.323 -2.0654 -1.2294 -1.6709
   69SLPC  H14S 5900   2.078   5.850   9.188 -1.7021  1.1311  0.8616
   69SLPC  C215 5901   2.160   6.042   9.149 -0.7264 -0.6050  0.6819
   69SLPC  H15R 5902   2.209   6.131   9.195  0.9369 -0.1998 -1.7606
   69SLPC  H15S 5903   2.057   6.069   9.117  0.5857 -1.3217 -4.6098
   69SLPC  C216 5904   2.223   6.007   9.015  0.2224 -0.5723 -0.5040
   69SLPC  H16R 5905   2.321   5.960   9.037  0.1194 -0.6625 -0.2264
   69SLPC  H16S 5906   2.245   6.107   8.972  2.3426  0.2047  2.2491
   69SLPC  C217 5907   2.135   5.926   8.921 -0.0906 -0.9670  0.1325
   69SLPC  H17R 5908   2.038   5.896   8.965  0.1719 -1.7751  0.1672
   69SLPC  H17S 5909   2.183   5.830   8.895 -1.3204 -1.6135  0.2378
   69SLPC  C218 5910   2.121   6.006   8.793  0.1128 -0.4769  0.1368
   69SLPC  H18R 5911   2.063   6.100   8.807  1.1828  0.5530 -1.9922
   69SLPC  H18S 5912   2.085   5.950   8.705  0.7959  1.2566 -1.2852
   69SLPC  H18T 5913   2.226   6.035   8.769  0.3634  0.4534  2.1940
   69SLPC   C33 5914   2.523   5.715   9.966 -0.5084  0.6330 -0.2621
   69SLPC   H3X 5915   2.459   5.799   9.933  0.4301  1.3541 -0.2694
   69SLPC   H3Y 5916   2.462   5.625   9.988 -0.6476  0.3190 -1.8870
   69SLPC   C34 5917   2.615   5.655   9.858  0.2919  0.0931 -0.7260
   69SLPC   H4X 5918   2.653   5.556   9.892 -1.1205 -0.5791 -1.0864
   69SLPC   H4Y 5919   2.697   5.727   9.834 -0.2096  0.7781 -0.3838
   69SLPC   C35 5920   2.543   5.651   9.724 -0.8549  0.8803  0.7343
   69SLPC   H5X 5921   2.632   5.638   9.658 -0.2266 -2.1861  2.1108
   69SLPC   H5Y 5922   2.488   5.743   9.696 -2.3198 -0.4918 -0.9933
   69SLPC   C36 5923   2.433   5.542   9.711 -0.4371  0.6475 -0.1913
   69SLPC   H6X 5924   2.359   5.541   9.794  0.2211  0.7685  0.4079
   69SLPC   H6Y 5925   2.488   5.447   9.731 -1.4211  0.0699 -0.2057
   69SLPC   C37 5926   2.363   5.532   9.572 -0.5711 -0.3051 -0.1067
   69SLPC   H7X 5927   2.303   5.625   9.577 -1.0842 -0.7193  1.4261
   69SLPC   H7Y 5928   2.282   5.456   9.566 -0.6879 -0.4333  2.6172
   69SLPC   C38 5929   2.449   5.513   9.446 -0.6063  0.3441  0.0420
   69SLPC   H8X 5930   2.527   5.592   9.438  1.9187 -2.0166  0.2827
   69SLPC   H8Y 5931   2.389   5.524   9.354  0.7095  2.0791 -0.6320
   69SLPC   C39 5932   2.534   5.382   9.445 -0.6106  0.4627 -0.6451
   69SLPC   H9X 5933   2.461   5.302   9.466  0.7757 -0.4393  0.8953
   69SLPC   H9Y 5934   2.608   5.371   9.527  1.4212  1.3179 -2.2935
   69SLPC  C310 5935   2.602   5.347   9.316  0.0566  0.0744 -0.0944
   69SLPC  H10X 5936   2.705   5.319   9.345 -0.4167 -0.1648  1.3686
   69SLPC  H10Y 5937   2.609   5.437   9.252 -0.6109  0.6691  0.6641
   69SLPC  C311 5938   2.546   5.226   9.243  0.1502  0.3956 -0.4171
   69SLPC  H11X 5939   2.438   5.245   9.224 -0.0421 -0.8577 -0.5983
   69SLPC  H11Y 5940   2.540   5.133   9.303 -1.1339  0.2245 -0.8089
   69SLPC  C312 5941   2.619   5.205   9.115  0.2953 -0.1888  0.4246
   69SLPC  H12X 5942   2.715   5.153   9.132  0.8853  1.2708  1.6122
   69SLPC  H12Y 5943   2.646   5.299   9.062 -0.0038  0.7005  1.8358
   69SLPC  C313 5944   2.534   5.132   9.002  0.2302  0.0056 -0.4734
   69SLPC  H13X 5945   2.434   5.181   8.993  0.3005 -0.3271 -3.3280
   69SLPC  H13Y 5946   2.508   5.027   9.026  1.4067 -0.0632  0.5567
   69SLPC  C314 5947   2.603   5.143   8.864  0.5643 -0.0753 -0.6961
   69SLPC  H14X 5948   2.635   5.248   8.845 -0.7388  0.4874  0.1692
   69SLPC  H14Y 5949   2.529   5.125   8.784 -0.2054  2.4453 -0.6085
   69SLPC  C315 5950   2.711   5.038   8.851  0.2690  0.3675  0.2036
   69SLPC  H15X 5951   2.648   4.948   8.867 -0.6969  0.8217 -0.8893
   69SLPC  H15Y 5952   2.774   5.054   8.941  1.2412 -1.4723 -0.1408
   69SLPC  C316 5953   2.781   5.046   8.714  0.2143 -0.7605  0.2649
   69SLPC  H16X 5954   2.838   5.142   8.709  2.5341 -1.9340  3.0953
   69SLPC  H16Y 5955   2.712   5.048   8.627 -1.2300  0.7595  1.4137
   69SLPC  C317 5956   2.881   4.933   8.689 -0.3234 -0.7869  0.0581
   69SLPC  H17X 5957   2.824   4.837   8.692 -2.0989  0.1784 -1.8580
   69SLPC  H17Y 5958   2.959   4.937   8.768 -0.5943 -0.8754  0.3340
   69SLPC  C318 5959   2.937   4.943   8.549 -0.4452 -0.1818 -0.7572
   69SLPC  H18X 5960   3.016   5.020   8.549 -2.0566  1.5013 -0.4076
   69SLPC  H18Y 5961   2.858   4.968   8.475 -0.4577  2.9377  0.2625
   69SLPC  H18Z 5962   2.980   4.841   8.538 -0.4139 -1.0488  5.5319
   70SLPC     N 5963   3.529   3.693  11.168 -0.9559 -0.3379  0.4828
   70SLPC   C13 5964   3.488   3.831  11.219 -0.8084 -0.2236  0.2377
   70SLPC  H13A 5965   3.529   3.900  11.147 -1.2444  1.0529  1.1953
   70SLPC  H13B 5966   3.380   3.836  11.220 -0.8573  0.0130 -1.9222
   70SLPC  H13C 5967   3.506   3.848  11.324  0.7656 -0.8743  0.0822
   70SLPC   C14 5968   3.492   3.586  11.270  0.4770  0.6883 -0.3662
   70SLPC  H14A 5969   3.385   3.573  11.279  0.3052  0.8958 -1.9575
   70SLPC  H14B 5970   3.507   3.488  11.227  0.3545 -0.0370  1.1925
   70SLPC  H14C 5971   3.532   3.595  11.370 -2.2635 -1.2251  0.9771
   70SLPC   C15 5972   3.681   3.686  11.148 -0.2111  0.0685 -0.3444
   70SLPC  H15A 5973   3.708   3.587  11.114  0.4590  0.6059 -1.3886
   70SLPC  H15B 5974   3.720   3.764  11.085  2.4299 -1.6648 -0.9336
   70SLPC  H15C 5975   3.728   3.693  11.245 -1.7635  0.0105  0.4360
   70SLPC   C12 5976   3.467   3.669  11.036 -0.3590 -0.4933 -0.2663
   70SLPC  H12A 5977   3.373   3.720  11.030 -0.1383  0.1879  1.6774
   70SLPC  H12B 5978   3.434   3.566  11.039 -0.6341 -0.3639  1.2843
   70SLPC   C11 5979   3.547   3.701  10.901  0.2871  0.8760 -0.7976
   70SLPC  H11A 5980   3.480   3.683  10.814  2.0899 -0.2134 -1.9724
   70SLPC  H11B 5981   3.620   3.618  10.893  0.3861  0.7756  0.9795
   70SLPC     P 5982   3.564   3.971  10.857 -0.0121 -0.0297  0.4859
   70SLPC   O13 5983   3.416   3.965  10.848 -0.1285  0.2644 -0.9198
   70SLPC   O14 5984   3.618   4.067  10.962 -0.1119  0.0144 -0.5245
   70SLPC   O12 5985   3.612   3.829  10.894  0.2442  0.3800 -0.1991
   70SLPC   O11 5986   3.614   4.002  10.708  0.1087 -0.0429 -0.4035
   70SLPC    C1 5987   3.696   3.916  10.637  0.1842 -0.3619 -0.0570
   70SLPC    HA 5988   3.778   3.965  10.580 -0.6098  0.9963 -0.0459
   70SLPC    HB 5989   3.750   3.848  10.707 -0.3729 -1.1854 -0.4222
   70SLPC    C2 5990   3.613   3.830  10.530  0.0115 -0.8170  0.1984
   70SLPC    HS 5991   3.551   3.752  10.579  0.7102  0.4357  3.1742
   70SLPC   O21 5992   3.702   3.784  10.429 -0.1562  0.9259  0.7462
   70SLPC   C21 5993   3.764   3.672  10.460 -0.1024  0.4523 -0.8541
   70SLPC   O22 5994   3.742   3.609  10.564  0.1616 -0.7375  0.6658
   70SLPC   C22 5995   3.859   3.621  10.356  0.5334  0.0656  0.2220
   70SLPC   H2R 5996   3.873   3.512  10.367 -1.2000 -0.2242 -0.3202
   70SLPC   H2S 5997   3.795   3.623  10.265  0.3624 -1.5681  0.2889
   70SLPC    C3 5998   3.506   3.916  10.451 -0.0310  0.0914 -0.3025
   70SLPC    HX 5999   3.568   3.996  10.405 -0.5272  1.7757  1.8825
   70SLPC    HY 6000   3.450   3.972  10.529  1.1660  0.2873  0.4407
   70SLPC   O31 6001   3.428   3.851  10.350  0.4672  0.7132 -0.2557
   70SLPC   C31 6002   3.325   3.793  10.399 -0.0055 -0.4733 -0.1276
   70SLPC   O32 6003   3.290   3.795  10.518 -0.4175  0.7425 -0.2689
   70SLPC   C32 6004   3.253   3.718  10.289  0.1927  0.3007  0.2401
   70SLPC   H2X 6005   3.260   3.608  10.304 -0.3005  0.0453 -1.3363
   70SLPC   H2Y 6006   3.304   3.730  10.191  1.7539 -1.9321  0.7328
   70SLPC   C23 6007   3.985   3.703  10.327  0.2182  0.3351 -0.5136
   70SLPC   H3R 6008   3.967   3.812  10.341  1.9830  0.5749  0.0927
   70SLPC   H3S 6009   4.013   3.695  10.220  2.4046 -0.9147  0.1109
   70SLPC   C24 6010   4.109   3.676  10.411  0.4864  0.2380 -0.8225
   70SLPC   H4R 6011   4.105   3.700  10.520  1.2813  1.8837 -1.1462
   70SLPC   H4S 6012   4.200   3.733  10.383  1.8377 -0.7787  1.3569
   70SLPC   C25 6013   4.153   3.527  10.403 -0.0202 -0.0283 -0.1971
   70SLPC   H5R 6014   4.089   3.459  10.464  0.5874  0.5959  1.1781
   70SLPC   H5S 6015   4.252   3.524  10.453  0.3397 -0.3407 -0.9243
   70SLPC   C26 6016   4.163   3.459  10.260 -0.6004  0.2723  0.2888
   70SLPC   H6R 6017   4.063   3.471  10.215 -0.9824  0.8327  1.2686
   70SLPC   H6S 6018   4.192   3.352  10.268  1.5862  0.8610  0.6557
   70SLPC   C27 6019   4.264   3.516  10.165 -0.5094  0.5302 -0.8066
   70SLPC   H7R 6020   4.366   3.494  10.205 -0.8597 -0.9812 -0.7130
   70SLPC   H7S 6021   4.252   3.626  10.163  3.4456  1.1353  1.7412
   70SLPC   C28 6022   4.239   3.463  10.023  0.1272  0.5334  0.1229
   70SLPC   H8R 6023   4.138   3.488   9.984 -0.5149 -0.5205  1.0750
   70SLPC   H8S 6024   4.234   3.353  10.030  1.6399  0.3832 -1.0651
   70SLPC   C29 6025   4.352   3.489   9.933  0.1947  0.5550 -0.7999
   70SLPC   H9R 6026   4.449   3.483   9.985 -0.0032  1.2708 -0.3420
   70SLPC  C210 6027   4.350   3.503   9.797  0.1358 -0.4519 -0.1586
   70SLPC  H10R 6028   4.444   3.530   9.747  1.0458 -0.6503  1.4180
   70SLPC  C211 6029   4.227   3.498   9.716  1.3086  0.3654 -0.0153
   70SLPC  H11R 6030   4.204   3.605   9.697  1.5717  0.2673 -0.9220
   70SLPC  H11S 6031   4.139   3.478   9.781  0.6840  1.8083 -0.3977
   70SLPC  C212 6032   4.217   3.414   9.586 -0.2971  0.6684 -0.3270
   70SLPC  H12R 6033   4.183   3.311   9.607  0.5685  0.6513  1.0579
   70SLPC  C213 6034   4.277   3.449   9.471 -0.6056 -0.4742  0.3059
   70SLPC  H13R 6035   4.276   3.374   9.391  0.0449  0.0356 -0.1809
   70SLPC  C214 6036   4.358   3.578   9.452  0.2507 -0.1345  0.3980
   70SLPC  H14R 6037   4.463   3.561   9.485  0.7880  0.0434 -1.1822
   70SLPC  H14S 6038   4.315   3.660   9.514  0.8786 -0.5042  1.3399
   70SLPC  C215 6039   4.357   3.632   9.307 -0.5727 -0.0960  0.4788
   70SLPC  H15R 6040   4.435   3.709   9.288  1.3053 -1.9058  0.6818
   70SLPC  H15S 6041   4.263   3.688   9.287 -0.0021  1.5314  2.1771
   70SLPC  C216 6042   4.384   3.515   9.204 -0.3907  0.2382 -0.3291
   70SLPC  H16R 6043   4.287   3.463   9.192 -0.8270  0.6232  1.4863
   70SLPC  H16S 6044   4.469   3.451   9.237  0.5956  0.1836 -2.8289
   70SLPC  C217 6045   4.427   3.566   9.063 -0.3454  0.3249  0.1493
   70SLPC  H17R 6046   4.525   3.616   9.075  0.0577 -0.5764  0.7486
   70SLPC  H17S 6047   4.348   3.636   9.028 -0.3287 -1.0026 -2.6560
   70SLPC  C218 6048   4.425   3.452   8.962  0.5851 -0.4326 -0.0645
   70SLPC  H18R 6049   4.491   3.371   9.001 -0.6489 -2.0367 -1.2398
   70SLPC  H18S 6050   4.462   3.472   8.859  2.5402  0.9765  0.8889
   70SLPC  H18T 6051   4.328   3.398   8.966  0.9041 -0.9512  0.8089
   70SLPC   C33 6052   3.106   3.760  10.272  0.6599 -0.0726  0.9794
   70SLPC   H3X 6053   3.096   3.870  10.258 -1.1744 -0.1302  1.6309
   70SLPC   H3Y 6054   3.063   3.731  10.370  2.1055 -2.1931  1.0144
   70SLPC   C34 6055   3.035   3.681  10.166 -0.7491 -0.5256 -0.0915
   70SLPC   H4X 6056   2.929   3.698  10.192 -1.0254 -0.4349 -1.2246
   70SLPC   H4Y 6057   3.058   3.573  10.180 -0.6278 -0.6607 -1.2668
   70SLPC   C35 6058   3.067   3.720  10.025  0.3971  0.6217 -0.3181
   70SLPC   H5X 6059   3.174   3.690  10.019  0.5598  1.3741 -1.2628
   70SLPC   H5Y 6060   3.062   3.830  10.014 -0.7015  0.5936 -0.1604
   70SLPC   C36 6061   2.985   3.651   9.916 -0.3405  0.2743  0.0816
   70SLPC   H6X 6062   2.898   3.716   9.894  0.9704  2.2576  0.6241
   70SLPC   H6Y 6063   2.953   3.556   9.963 -0.1002 -0.1883 -0.6847
   70SLPC   C37 6064   3.070   3.634   9.790 -0.3937 -0.1300  0.2152
   70SLPC   H7X 6065   3.162   3.578   9.817 -1.1139 -1.4708 -0.0678
   70SLPC   H7Y 6066   3.089   3.739   9.756 -0.2044  0.3577  1.8123
   70SLPC   C38 6067   3.005   3.559   9.673  0.5266  0.3694 -0.6440
   70SLPC   H8X 6068   2.895   3.575   9.668  1.0067  3.5340 -2.9333
   70SLPC   H8Y 6069   3.023   3.452   9.695 -0.9261  0.0862 -0.7558
   70SLPC   C39 6070   3.067   3.604   9.543 -0.2578  0.5906  0.0182
   70SLPC   H9X 6071   3.172   3.636   9.560 -0.7486  1.9561  0.5076
   70SLPC   H9Y 6072   3.005   3.691   9.514  0.4689  0.5242 -1.8329
   70SLPC  C310 6073   3.046   3.501   9.437  1.2119  0.5317 -0.3605
   70SLPC  H10X 6074   2.936   3.488   9.437  1.0921  1.4898 -1.9428
   70SLPC  H10Y 6075   3.081   3.398   9.461 -0.0539  0.2585  0.3766
   70SLPC  C311 6076   3.083   3.532   9.289 -0.1686  0.3208 -0.9184
   70SLPC  H11X 6077   3.167   3.466   9.256 -1.0142 -1.9849  1.3513
   70SLPC  H11Y 6078   3.123   3.635   9.280 -0.7447  0.8671  2.2464
   70SLPC  C312 6079   2.977   3.508   9.176  0.0408  0.1836  0.0943
   70SLPC  H12X 6080   2.893   3.581   9.178 -0.4032 -0.3204  0.0928
   70SLPC  H12Y 6081   2.944   3.406   9.206  3.8338  0.0797  4.3386
   70SLPC  C313 6082   3.032   3.504   9.028  0.0864 -0.2419 -0.2402
   70SLPC  H13X 6083   2.947   3.479   8.961  0.3202  0.5505 -0.8372
   70SLPC  H13Y 6084   3.114   3.435   9.001  0.3947  0.3819 -0.8975
   70SLPC  C314 6085   3.075   3.645   8.989  0.4728 -0.3769  0.0400
   70SLPC  H14X 6086   3.163   3.663   9.054  0.6261 -0.8333 -0.0393
   70SLPC  H14Y 6087   2.994   3.717   9.013 -1.3951 -2.4289  0.0244
   70SLPC  C315 6088   3.108   3.663   8.846 -0.1948 -0.1286  0.4103
   70SLPC  H15X 6089   3.019   3.661   8.779  0.6010 -2.6014 -0.6248
   70SLPC  H15Y 6090   3.180   3.586   8.809 -1.4156 -0.1713 -2.0352
   70SLPC  C316 6091   3.199   3.790   8.823  0.8359  0.6598  0.6902
   70SLPC  H16X 6092   3.299   3.774   8.868  1.4861  0.3317 -0.8238
   70SLPC  H16Y 6093   3.158   3.876   8.881 -0.4932  0.6704 -0.2384
   70SLPC  C317 6094   3.208   3.830   8.672 -1.4444  0.3212  0.5207
   70SLPC  H17X 6095   3.273   3.919   8.668 -1.2378  0.0701 -2.9653
   70SLPC  H17Y 6096   3.109   3.852   8.625 -1.3859 -0.3009  0.0928
   70SLPC  C318 6097   3.287   3.730   8.585 -0.0640 -0.0551 -0.2564
   70SLPC  H18X 6098   3.230   3.635   8.587 -0.4978  0.1845 -0.8517
   70SLPC  H18Y 6099   3.377   3.707   8.645 -1.5589 -2.0124  1.3228
   70SLPC  H18Z 6100   3.302   3.780   8.487 -2.3288 -0.1892 -0.7206
   71SLPC     N 6101   3.421   2.100  10.691  0.7864 -0.8384 -0.6602
   71SLPC   C13 6102   3.406   1.951  10.680 -0.0565  0.3312 -0.2299
   71SLPC  H13A 6103   3.329   1.914  10.746 -1.6809  2.3511 -0.9176
   71SLPC  H13B 6104   3.379   1.932  10.577  2.5172 -0.9346 -0.6964
   71SLPC  H13C 6105   3.496   1.898  10.707 -0.2312 -0.3665 -0.9906
   71SLPC   C14 6106   3.525   2.133  10.589 -0.0032  0.3811  0.3098
   71SLPC  H14A 6107   3.502   2.106  10.487  0.8901  1.4347 -0.1706
   71SLPC  H14B 6108   3.520   2.240  10.575 -1.2383  0.0227 -2.3216
   71SLPC  H14C 6109   3.622   2.094  10.617 -0.1051 -2.0449 -2.4569
   71SLPC   C15 6110   3.468   2.137  10.826  0.7713 -0.0737 -0.0381
   71SLPC  H15A 6111   3.489   2.242  10.834  1.1294 -0.3250  2.6573
   71SLPC  H15B 6112   3.382   2.129  10.891  1.4820  2.6432  1.2912
   71SLPC  H15C 6113   3.542   2.071  10.869 -0.2072 -2.1292 -1.3941
   71SLPC   C12 6114   3.295   2.179  10.648 -0.2638 -0.1834 -0.0794
   71SLPC  H12A 6115   3.216   2.142  10.712 -1.1100  0.5527 -0.6707
   71SLPC  H12B 6116   3.268   2.165  10.545  0.3517  1.0913 -0.4262
   71SLPC   C11 6117   3.302   2.339  10.675  0.2718 -0.0932 -0.3774
   71SLPC  H11A 6118   3.316   2.358  10.784 -0.9365 -0.3094 -0.1817
   71SLPC  H11B 6119   3.201   2.376  10.650  0.4423 -0.5955 -1.8746
   71SLPC     P 6120   3.399   2.456  10.466 -0.2147  0.4550  0.3065
   71SLPC   O13 6121   3.265   2.521  10.461  0.3277  0.0836 -0.1103
   71SLPC   O14 6122   3.516   2.543  10.433  0.4280 -0.3478 -0.6173
   71SLPC   O12 6123   3.415   2.397  10.607  0.1389 -0.3106 -0.1848
   71SLPC   O11 6124   3.404   2.333  10.375  0.0998 -0.3217 -0.3814
   71SLPC    C1 6125   3.510   2.294  10.292 -0.0830 -0.0917 -0.5394
   71SLPC    HA 6126   3.603   2.352  10.312  1.7109 -4.0169  3.3479
   71SLPC    HB 6127   3.540   2.187  10.301 -0.8865 -0.4638 -1.9609
   71SLPC    C2 6128   3.467   2.309  10.146 -0.0553 -0.5632  0.0713
   71SLPC    HS 6129   3.442   2.416  10.128 -0.2565 -0.8251 -1.3082
   71SLPC   O21 6130   3.347   2.231  10.117  0.1451  0.4627  0.0921
   71SLPC   C21 6131   3.245   2.297  10.073  0.2506 -0.4045 -0.3411
   71SLPC   O22 6132   3.236   2.420  10.080  0.4025  0.0712 -0.0355
   71SLPC   C22 6133   3.132   2.210  10.025 -0.1211  0.1636 -0.8219
   71SLPC   H2R 6134   3.138   2.108  10.070 -1.0747  0.5866  0.2928
   71SLPC   H2S 6135   3.031   2.244  10.057 -0.0022 -0.1786 -0.0647
   71SLPC    C3 6136   3.574   2.259  10.042 -0.1851  0.0119  0.0344
   71SLPC    HX 6137   3.550   2.160   9.996  1.1252 -1.2995  2.1063
   71SLPC    HY 6138   3.665   2.241  10.103  1.0350 -2.2761 -2.3503
   71SLPC   O31 6139   3.596   2.361   9.942  0.2084  0.9235 -0.0268
   71SLPC   C31 6140   3.532   2.354   9.832  0.6447 -0.0114 -0.5904
   71SLPC   O32 6141   3.447   2.274   9.795 -0.2620  0.4223  0.2931
   71SLPC   C32 6142   3.593   2.460   9.751  0.1038  0.6169  0.0665
   71SLPC   H2X 6143   3.696   2.427   9.729  0.1464 -0.0803  1.2259
   71SLPC   H2Y 6144   3.597   2.562   9.795 -1.4567  0.8275 -0.2373
   71SLPC   C23 6145   3.139   2.180   9.874 -0.2681  0.0354 -0.6201
   71SLPC   H3R 6146   3.077   2.089   9.861  1.1910 -1.4595  2.4832
   71SLPC   H3S 6147   3.243   2.154   9.847 -0.1207  0.8406 -0.8477
   71SLPC   C24 6148   3.101   2.304   9.801  0.2290 -0.5877  0.3716
   71SLPC   H4R 6149   3.180   2.380   9.821 -0.7164  0.2657  0.8642
   71SLPC   H4S 6150   3.004   2.348   9.834  0.4964 -0.2404  0.7119
   71SLPC   C25 6151   3.098   2.287   9.656  0.7609 -0.9310 -0.0106
   71SLPC   H5R 6152   3.012   2.226   9.620 -0.1928 -0.0999  0.8181
   71SLPC   H5S 6153   3.183   2.225   9.620  1.1685  0.6917 -1.9243
   71SLPC   C26 6154   3.118   2.412   9.567  0.2252 -0.5622 -0.4170
   71SLPC   H6R 6155   3.201   2.472   9.611  0.5265 -0.7554 -0.7223
   71SLPC   H6S 6156   3.021   2.467   9.565  0.6890  0.2272 -1.2130
   71SLPC   C27 6157   3.162   2.386   9.423 -0.3598 -0.1877  0.0912
   71SLPC   H7R 6158   3.263   2.339   9.412 -0.6249 -0.6571 -0.3378
   71SLPC   H7S 6159   3.175   2.488   9.382 -0.7016 -1.0937 -2.3242
   71SLPC   C28 6160   3.061   2.312   9.337 -0.1314 -0.0843 -0.0837
   71SLPC   H8R 6161   3.017   2.226   9.391 -0.3141 -1.5830 -2.5052
   71SLPC   H8S 6162   3.107   2.267   9.246 -0.8547 -0.6743 -0.1602
   71SLPC   C29 6163   2.957   2.415   9.298 -0.1488  0.5839  0.0052
   71SLPC   H9R 6164   2.898   2.457   9.380 -0.7038 -1.3402  0.6355
   71SLPC  C210 6165   2.942   2.479   9.179 -0.0569  0.4214 -0.1093
   71SLPC  H10R 6166   2.866   2.558   9.171 -0.9424 -0.3895  0.0808
   71SLPC  C211 6167   3.025   2.452   9.054  0.0294 -0.5897 -0.1894
   71SLPC  H11R 6168   3.052   2.346   9.034 -0.3975 -0.4564 -1.5141
   71SLPC  H11S 6169   3.123   2.504   9.067  0.4310 -1.3550 -0.0848
   71SLPC  C212 6170   2.957   2.516   8.929 -0.7009 -0.4417 -0.1301
   71SLPC  H12R 6171   2.847   2.512   8.926 -0.7818 -0.3519  1.8327
   71SLPC  C213 6172   3.025   2.557   8.817  0.1582  0.5114  0.0390
   71SLPC  H13R 6173   2.965   2.606   8.738  2.4768 -0.3770 -2.3472
   71SLPC  C214 6174   3.169   2.550   8.783  0.0145  0.7456 -0.0149
   71SLPC  H14R 6175   3.234   2.495   8.855  0.0753  0.8745  0.0277
   71SLPC  H14S 6176   3.212   2.652   8.782 -0.3543  0.9081  0.6647
   71SLPC  C215 6177   3.182   2.486   8.641  0.2887 -0.1740 -0.9544
   71SLPC  H15R 6178   3.290   2.490   8.616  0.4436 -0.2504 -0.2897
   71SLPC  H15S 6179   3.129   2.548   8.565 -1.5046 -1.1940 -0.5709
   71SLPC  C216 6180   3.121   2.340   8.637 -1.0082 -0.0679  0.4605
   71SLPC  H16R 6181   3.015   2.339   8.605 -0.9757 -2.0291  0.3451
   71SLPC  H16S 6182   3.118   2.308   8.744 -1.0508 -1.1723  0.1322
   71SLPC  C217 6183   3.202   2.239   8.553 -0.3517  0.0783  0.0193
   71SLPC  H17R 6184   3.260   2.303   8.484  0.5591 -2.0666 -1.2710
   71SLPC  H17S 6185   3.128   2.175   8.500  0.5421 -0.2573 -0.8481
   71SLPC  C218 6186   3.283   2.155   8.639  0.1839  0.6776 -1.3603
   71SLPC  H18R 6187   3.341   2.214   8.713 -0.4181  3.0099 -2.6792
   71SLPC  H18S 6188   3.344   2.075   8.592  0.7501  0.7950 -0.8272
   71SLPC  H18T 6189   3.209   2.111   8.710  1.7219  0.9699  0.4837
   71SLPC   C33 6190   3.503   2.483   9.620  0.3162  0.7397 -0.3100
   71SLPC   H3X 6191   3.421   2.556   9.636  0.2396  0.9920 -1.8167
   71SLPC   H3Y 6192   3.464   2.386   9.582 -0.7253  0.8253  0.5124
   71SLPC   C34 6193   3.597   2.536   9.507 -0.0345  0.0093  0.1285
   71SLPC   H4X 6194   3.660   2.452   9.470 -1.4597 -0.3844 -1.4804
   71SLPC   H4Y 6195   3.666   2.615   9.543  0.4937 -2.4243  4.7778
   71SLPC   C35 6196   3.525   2.588   9.376  0.4385 -0.0959  0.1431
   71SLPC   H5X 6197   3.459   2.674   9.399  0.4249 -0.3585  1.0996
   71SLPC   H5Y 6198   3.461   2.506   9.336 -0.1597 -0.9027  2.6881
   71SLPC   C36 6199   3.625   2.611   9.261 -0.1435  0.1878  0.0869
   71SLPC   H6X 6200   3.676   2.514   9.246 -0.0044  0.0436  1.3786
   71SLPC   H6Y 6201   3.693   2.693   9.294 -0.8187  0.7733  0.0418
   71SLPC   C37 6202   3.557   2.657   9.129 -0.5217 -0.3491 -0.9827
   71SLPC   H7X 6203   3.515   2.760   9.130 -1.6598 -0.8068 -0.2497
   71SLPC   H7Y 6204   3.474   2.586   9.108  0.9997 -2.3605 -0.3394
   71SLPC   C38 6205   3.655   2.661   9.012  0.5900  1.0735  0.2106
   71SLPC   H8X 6206   3.717   2.569   9.015 -0.4661  0.2151 -2.8570
   71SLPC   H8Y 6207   3.716   2.754   9.007  1.6021  0.3831 -0.4262
   71SLPC   C39 6208   3.571   2.650   8.884 -0.2062 -0.2444 -0.2586
   71SLPC   H9X 6209   3.508   2.741   8.880  3.2566  2.3648  1.2851
   71SLPC   H9Y 6210   3.513   2.556   8.886 -0.1889 -0.3010 -1.9009
   71SLPC  C310 6211   3.656   2.653   8.757  0.0253 -0.0587 -0.3820
   71SLPC  H10X 6212   3.729   2.569   8.754  1.4284  1.1106 -0.1328
   71SLPC  H10Y 6213   3.717   2.746   8.767 -1.3345  0.8776 -0.6401
   71SLPC  C311 6214   3.577   2.660   8.627  0.1851  0.2008 -0.1643
   71SLPC  H11X 6215   3.510   2.749   8.633  2.0178  1.4838  2.0176
   71SLPC  H11Y 6216   3.515   2.572   8.602  2.3334 -0.6237 -2.8769
   71SLPC  C312 6217   3.683   2.665   8.507  0.1319 -0.5515  1.1811
   71SLPC  H12X 6218   3.762   2.741   8.518  0.8497 -1.0041 -0.6465
   71SLPC  H12Y 6219   3.627   2.709   8.422  0.9433 -0.1065  0.8803
   71SLPC  C313 6220   3.752   2.534   8.472 -0.1360  0.5800 -0.0964
   71SLPC  H13X 6221   3.806   2.490   8.558  1.8331  2.8880 -0.0944
   71SLPC  H13Y 6222   3.824   2.551   8.389 -0.8329  0.1185 -0.8096
   71SLPC  C314 6223   3.636   2.435   8.416 -0.2275 -0.7200  0.5531
   71SLPC  H14X 6224   3.584   2.483   8.330 -0.3631  0.1834  1.1330
   71SLPC  H14Y 6225   3.552   2.417   8.487 -0.4193  2.2237  1.1428
   71SLPC  C315 6226   3.696   2.302   8.393 -0.8181  0.1345 -0.8550
   71SLPC  H15X 6227   3.741   2.272   8.489  1.1393  0.2113 -1.7225
   71SLPC  H15Y 6228   3.783   2.309   8.324 -1.0013 -1.4103 -1.2537
   71SLPC  C316 6229   3.611   2.181   8.378  0.6094  0.0297 -0.2014
   71SLPC  H16X 6230   3.530   2.170   8.453 -0.1836 -0.7103 -1.1509
   71SLPC  H16Y 6231   3.672   2.090   8.392 -0.9320 -1.0311 -0.2471
   71SLPC  C317 6232   3.549   2.182   8.236  0.1804  0.4458 -0.0029
   71SLPC  H17X 6233   3.484   2.272   8.224  0.7159  0.5862 -2.0020
   71SLPC  H17Y 6234   3.483   2.095   8.214 -0.2758  1.1508 -1.4809
   71SLPC  C318 6235   3.644   2.202   8.118 -0.2036 -0.1859 -0.4839
   71SLPC  H18X 6236   3.718   2.119   8.115 -1.4361 -1.3057 -0.3590
   71SLPC  H18Y 6237   3.705   2.295   8.126 -1.7483  0.7658  0.4423
   71SLPC  H18Z 6238   3.577   2.208   8.029 -2.2896 -2.0361  0.9156
   72SLPC     N 6239   4.481   0.336  11.142 -0.3653 -0.7964  0.1020
   72SLPC   C13 6240   4.417   0.212  11.191  0.1401 -0.3231 -0.2291
   72SLPC  H13A 6241   4.316   0.207  11.151  0.4310  0.3453 -1.0504
   72SLPC  H13B 6242   4.469   0.126  11.150  0.3356 -0.3422  0.0563
   72SLPC  H13C 6243   4.413   0.183  11.295 -0.1406  1.7952  0.3696
   72SLPC   C14 6244   4.625   0.302  11.127 -0.3831 -0.5122 -0.0463
   72SLPC  H14A 6245   4.672   0.383  11.074 -0.3706 -0.0014  0.7410
   72SLPC  H14B 6246   4.684   0.281  11.215  0.3284  0.4957 -0.2833
   72SLPC  H14C 6247   4.643   0.212  11.070 -2.1053 -1.7465  1.2747
   72SLPC   C15 6248   4.464   0.442  11.241 -0.0900  0.3939  0.1754
   72SLPC  H15A 6249   4.364   0.480  11.254  0.2419  0.9764  0.9877
   72SLPC  H15B 6250   4.504   0.408  11.336 -1.5297  0.0277  0.6571
   72SLPC  H15C 6251   4.517   0.531  11.210 -0.6812 -0.0013 -2.1084
   72SLPC   C12 6252   4.424   0.363  11.000  0.0136  0.1691 -0.2361
   72SLPC  H12A 6253   4.317   0.351  11.014  0.0740 -1.4433 -0.9945
   72SLPC  H12B 6254   4.452   0.281  10.935  0.3672 -0.1737  0.3480
   72SLPC   C11 6255   4.444   0.488  10.919  0.2246 -0.8309  0.6811
   72SLPC  H11A 6256   4.424   0.563  10.999 -2.4778 -1.1280  0.3153
   72SLPC  H11B 6257   4.373   0.507  10.836 -1.7170 -0.4489  2.4096
   72SLPC     P 6258   4.638   0.446  10.756  0.3532  0.0498  0.1074
   72SLPC   O13 6259   4.780   0.474  10.760 -0.9707  0.4197 -0.7898
   72SLPC   O14 6260   4.601   0.300  10.758 -0.3746 -0.3748  0.6105
   72SLPC   O12 6261   4.576   0.519  10.882 -0.0693  0.2946  0.2694
   72SLPC   O11 6262   4.575   0.524  10.633  0.2002  0.4075  0.2789
   72SLPC    C1 6263   4.434   0.521  10.601  0.0546 -0.2481  0.5928
   72SLPC    HA 6264   4.392   0.422  10.632 -0.2269  0.3227  2.0755
   72SLPC    HB 6265   4.374   0.604  10.644  0.3293 -0.1281  0.7423
   72SLPC    C2 6266   4.424   0.531  10.448  0.8198 -0.0832  0.1190
   72SLPC    HS 6267   4.475   0.444  10.400  0.8742 -0.4888  0.9084
   72SLPC   O21 6268   4.479   0.655  10.397 -0.0850  0.3543  0.4002
   72SLPC   C21 6269   4.533   0.647  10.273 -0.0034  0.1259 -0.8587
   72SLPC   O22 6270   4.565   0.545  10.218 -0.1064 -1.1623  0.2337
   72SLPC   C22 6271   4.551   0.790  10.225  0.3306  0.4659  0.2691
   72SLPC   H2R 6272   4.564   0.851  10.317 -1.5476  0.0260  0.8563
   72SLPC   H2S 6273   4.645   0.802  10.167 -1.7151  1.7934 -2.8675
   72SLPC    C3 6274   4.275   0.530  10.394 -0.6045 -0.2059 -0.1775
   72SLPC    HX 6275   4.236   0.626  10.434 -2.5323 -1.5722  1.3777
   72SLPC    HY 6276   4.229   0.446  10.451  0.9615 -2.2075 -1.7877
   72SLPC   O31 6277   4.268   0.515  10.246  0.5943 -0.5757 -0.1794
   72SLPC   C31 6278   4.271   0.383  10.205  0.8434 -0.7386 -0.2022
   72SLPC   O32 6279   4.288   0.285  10.281  0.4649 -0.1436  0.2075
   72SLPC   C32 6280   4.251   0.378  10.052 -0.5648 -0.4296 -0.0076
   72SLPC   H2X 6281   4.334   0.313  10.018 -1.0345 -0.4059 -1.2444
   72SLPC   H2Y 6282   4.249   0.475   9.997 -2.2001 -0.4190  0.0485
   72SLPC   C23 6283   4.437   0.835  10.131 -0.6206 -0.1412 -0.4153
   72SLPC   H3R 6284   4.443   0.943  10.105  0.1013 -0.2433 -0.6805
   72SLPC   H3S 6285   4.333   0.816  10.167  0.0581  1.6430  2.6556
   72SLPC   C24 6286   4.450   0.750   9.998  0.6758  0.4005 -0.7142
   72SLPC   H4R 6287   4.431   0.641  10.014 -1.3868  0.7301 -0.7729
   72SLPC   H4S 6288   4.557   0.762   9.971  0.7391 -0.6191 -0.9475
   72SLPC   C25 6289   4.354   0.794   9.887 -0.3817 -0.1435 -0.3616
   72SLPC   H5R 6290   4.366   0.893   9.838 -2.4919  0.0625 -0.5120
   72SLPC   H5S 6291   4.250   0.812   9.923  0.7719  2.8324  1.6590
   72SLPC   C26 6292   4.351   0.690   9.774  0.4338  0.3476 -0.2302
   72SLPC   H6R 6293   4.356   0.588   9.819 -1.0199  0.4498  0.1755
   72SLPC   H6S 6294   4.435   0.691   9.702  1.6716  2.3639  1.1789
   72SLPC   C27 6295   4.207   0.691   9.709  0.4004 -0.1734  0.3926
   72SLPC   H7R 6296   4.126   0.685   9.785 -1.0302 -0.9095 -1.1644
   72SLPC   H7S 6297   4.200   0.605   9.639  1.4923  0.8034 -0.9535
   72SLPC   C28 6298   4.190   0.818   9.629  0.6910 -0.2033 -0.1707
   72SLPC   H8R 6299   4.285   0.842   9.576 -0.9914  3.0269 -1.8857
   72SLPC   H8S 6300   4.174   0.907   9.693 -0.0573  0.5203 -1.3366
   72SLPC   C29 6301   4.076   0.823   9.526  0.1270  0.2637 -0.0337
   72SLPC   H9R 6302   3.974   0.828   9.567 -0.5975  2.7116 -2.0380
   72SLPC  C210 6303   4.076   0.816   9.393 -0.5412 -0.3109  0.0375
   72SLPC  H10R 6304   3.973   0.829   9.355 -1.0433 -0.9334  1.1173
   72SLPC  C211 6305   4.178   0.795   9.292 -0.2251  0.5027 -0.7192
   72SLPC  H11R 6306   4.174   0.690   9.256  1.0010  0.4556 -0.7530
   72SLPC  H11S 6307   4.278   0.804   9.339 -0.7213 -0.3050  0.5118
   72SLPC  C212 6308   4.161   0.898   9.179  0.1942 -0.5548  0.3622
   72SLPC  H12R 6309   4.179   1.002   9.211 -0.4513 -0.5649  0.7794
   72SLPC  C213 6310   4.132   0.872   9.053  0.7061  0.8689  0.0915
   72SLPC  H13R 6311   4.126   0.959   8.985  0.6788  1.0992  0.3915
   72SLPC  C214 6312   4.110   0.742   8.985 -0.0239 -0.5082  0.2939
   72SLPC  H14R 6313   4.070   0.677   9.065  1.0280 -1.5904 -0.0430
   72SLPC  H14S 6314   4.207   0.692   8.959  0.5529  1.0331 -0.5960
   72SLPC  C215 6315   4.009   0.746   8.870  0.3091 -0.4518 -0.1700
   72SLPC  H15R 6316   3.929   0.820   8.893 -1.2670 -1.9558 -0.6959
   72SLPC  H15S 6317   3.955   0.649   8.864  0.2245 -0.5051  1.2547
   72SLPC  C216 6318   4.059   0.763   8.731  0.3620  0.0833 -0.0246
   72SLPC  H16R 6319   3.978   0.758   8.656  0.0343 -1.4557  0.4236
   72SLPC  H16S 6320   4.122   0.673   8.711 -2.4251 -2.2520  1.3898
   72SLPC  C217 6321   4.138   0.895   8.697  0.0609  0.5930 -0.0333
   72SLPC  H17R 6322   4.220   0.907   8.771 -0.6149  1.6955  0.5544
   72SLPC  H17S 6323   4.073   0.985   8.706  0.4599  0.8218  0.5776
   72SLPC  C218 6324   4.188   0.888   8.553 -0.0507 -0.3616  1.1510
   72SLPC  H18R 6325   4.248   0.979   8.533 -2.0785  0.9505  0.8413
   72SLPC  H18S 6326   4.105   0.904   8.481  1.6513  0.6086 -0.6452
   72SLPC  H18T 6327   4.247   0.799   8.523  1.2003  1.3262 -1.5601
   72SLPC   C33 6328   4.126   0.299  10.016 -0.0411  0.5524  0.3795
   72SLPC   H3X 6329   4.034   0.336  10.065 -1.0949 -0.1046 -1.0930
   72SLPC   H3Y 6330   4.135   0.196  10.059 -0.9315  0.5932  0.6696
   72SLPC   C34 6331   4.118   0.285   9.866 -0.0699 -0.2695 -0.4014
   72SLPC   H4X 6332   4.208   0.242   9.817 -0.5707  1.8204 -3.2988
   72SLPC   H4Y 6333   4.109   0.385   9.818 -1.5851 -0.2558 -0.1332
   72SLPC   C35 6334   3.998   0.193   9.824  0.4685  0.0442  0.2363
   72SLPC   H5X 6335   3.900   0.221   9.869 -0.3402 -3.0143  0.4797
   72SLPC   H5Y 6336   4.016   0.087   9.853 -1.1246  0.1020  1.4798
   72SLPC   C36 6337   3.978   0.189   9.670  0.2664 -0.4590 -0.2016
   72SLPC   H6X 6338   3.942   0.091   9.633  2.5817 -1.1129 -0.8298
   72SLPC   H6Y 6339   4.072   0.221   9.620 -1.1407 -1.2302 -3.5400
   72SLPC   C37 6340   3.873   0.297   9.628 -0.2795  0.4194  0.4510
   72SLPC   H7X 6341   3.911   0.384   9.684  0.2343 -0.3893  1.3774
   72SLPC   H7Y 6342   3.775   0.271   9.673 -0.6715 -0.0074 -0.6316
   72SLPC   C38 6343   3.864   0.325   9.476 -0.0360  0.2559 -0.4248
   72SLPC   H8X 6344   3.789   0.404   9.454 -0.7099  0.0623  1.1307
   72SLPC   H8Y 6345   3.827   0.236   9.421  2.5813 -1.4581  0.5163
   72SLPC   C39 6346   4.000   0.360   9.421 -0.3977 -0.7089 -0.0134
   72SLPC   H9X 6347   4.079   0.282   9.422 -1.7561 -2.0981  0.8362
   72SLPC   H9Y 6348   4.040   0.452   9.468 -2.0390  0.8192 -1.5495
   72SLPC  C310 6349   3.988   0.380   9.269  0.1245 -0.1898  0.4349
   72SLPC  H10X 6350   4.074   0.437   9.227 -0.2084 -1.0448 -1.4667
   72SLPC  H10Y 6351   3.892   0.431   9.246 -1.0972 -1.1419  3.2108
   72SLPC  C311 6352   3.984   0.253   9.182 -0.3187 -0.0413 -1.0257
   72SLPC  H11X 6353   3.928   0.179   9.242  0.1594  2.7971  3.1369
   72SLPC  H11Y 6354   4.085   0.211   9.163 -1.7933 -3.5245 -1.5390
   72SLPC  C312 6355   3.905   0.291   9.054  0.2016  0.1828  1.1221
   72SLPC  H12X 6356   3.939   0.387   9.010 -1.5080  0.1254 -0.3694
   72SLPC  H12Y 6357   3.800   0.321   9.076  1.4869  3.3588  3.3584
   72SLPC  C313 6358   3.908   0.185   8.944  0.7089 -0.0914 -0.2503
   72SLPC  H13X 6359   3.852   0.098   8.985  1.1962 -1.0355 -1.5700
   72SLPC  H13Y 6360   4.014   0.160   8.922  0.1199 -1.4191 -1.7020
   72SLPC  C314 6361   3.846   0.231   8.807  0.2361 -0.1234  0.0241
   72SLPC  H14X 6362   3.861   0.154   8.729 -0.7663 -0.1577 -0.1502
   72SLPC  H14Y 6363   3.903   0.322   8.776 -2.0950  0.9480 -1.2819
   72SLPC  C315 6364   3.695   0.251   8.809  0.1601 -0.1872  0.3907
   72SLPC  H15X 6365   3.679   0.333   8.883 -0.2445  0.2020 -0.1234
   72SLPC  H15Y 6366   3.640   0.162   8.848 -0.3593  1.0537  2.6144
   72SLPC  C316 6367   3.633   0.293   8.675  0.4542  0.4829 -0.1934
   72SLPC  H16X 6368   3.675   0.393   8.647 -0.8923  1.8361  2.3924
   72SLPC  H16Y 6369   3.523   0.304   8.675  0.3172 -0.9199 -1.0224
   72SLPC  C317 6370   3.654   0.184   8.570  0.2435 -0.1594 -0.7683
   72SLPC  H17X 6371   3.763   0.169   8.555  0.7426  2.6007 -0.2137
   72SLPC  H17Y 6372   3.604   0.222   8.478 -0.1087  1.0918 -0.0686
   72SLPC  C318 6373   3.599   0.050   8.615 -0.2845 -0.4105  0.0727
   72SLPC  H18X 6374   3.598  -0.020   8.528 -0.1059 -0.1243 -0.1602
   72SLPC  H18Y 6375   3.498   0.050   8.662 -0.6241 -1.1467 -0.6456
   72SLPC  H18Z 6376   3.674  -0.002   8.677  1.3591 -0.4463 -1.8910
   73SLPC     N 6377   4.024   5.614  11.150 -0.2595 -0.4963 -0.7026
   73SLPC   C13 6378   4.051   5.619  11.302  0.6564 -0.5306  0.8932
   73SLPC  H13A 6379   4.148   5.661  11.324  0.2871  0.1803  1.1922
   73SLPC  H13B 6380   3.985   5.686  11.355  1.3445  0.9367 -0.0640
   73SLPC  H13C 6381   4.045   5.523  11.350  0.0334  0.4426  2.7911
   73SLPC   C14 6382   3.994   5.749  11.105  0.4681 -0.1937  0.5596
   73SLPC  H14A 6383   4.075   5.820  11.121  0.1955  0.3091 -0.2720
   73SLPC  H14B 6384   3.980   5.758  10.998 -0.4303 -0.5168  0.6461
   73SLPC  H14C 6385   3.904   5.774  11.160  0.1265  1.4783 -0.6998
   73SLPC   C15 6386   3.906   5.527  11.131  0.2095  0.3396  0.1265
   73SLPC  H15A 6387   3.863   5.540  11.033 -0.3575 -3.1253 -0.1613
   73SLPC  H15B 6388   3.934   5.423  11.134 -1.4639 -0.1816 -1.4997
   73SLPC  H15C 6389   3.831   5.549  11.205  0.0377 -2.1527  0.7384
   73SLPC   C12 6390   4.139   5.555  11.072 -0.0399  0.6488 -0.1563
   73SLPC  H12A 6391   4.110   5.555  10.968  1.1035 -1.6303 -0.5136
   73SLPC  H12B 6392   4.163   5.451  11.090  1.1574  0.8881 -0.3567
   73SLPC   C11 6393   4.265   5.639  11.088 -0.0157  0.4658 -0.1487
   73SLPC  H11A 6394   4.365   5.595  11.066  0.2087  0.6621  0.4717
   73SLPC  H11B 6395   4.280   5.644  11.197 -0.2334  0.3251 -0.1125
   73SLPC     P 6396   4.299   5.784  10.875 -0.0760  0.0338  0.4055
   73SLPC   O13 6397   4.239   5.908  10.827  0.1890  0.2312 -0.1893
   73SLPC   O14 6398   4.447   5.773  10.871 -0.4480 -1.0887 -0.4973
   73SLPC   O12 6399   4.254   5.769  11.030 -0.2731  0.2340 -0.1518
   73SLPC   O11 6400   4.216   5.674  10.790 -0.4868 -0.7639  0.3636
   73SLPC    C1 6401   4.272   5.553  10.747 -0.1285 -0.4511 -0.2147
   73SLPC    HA 6402   4.329   5.503  10.828 -1.8560 -1.0528  0.6517
   73SLPC    HB 6403   4.187   5.484  10.728 -1.9194  2.5715 -3.9928
   73SLPC    C2 6404   4.337   5.587  10.609  0.1095  0.4987 -0.4842
   73SLPC    HS 6405   4.366   5.694  10.608  0.8502  0.2985 -1.5940
   73SLPC   O21 6406   4.241   5.558  10.504  0.2562  0.9743  0.1655
   73SLPC   C21 6407   4.254   5.637  10.390 -0.3206 -0.1694 -0.2724
   73SLPC   O22 6408   4.328   5.734  10.384 -0.0247  0.5358 -0.1551
   73SLPC   C22 6409   4.135   5.608  10.289  0.1418 -0.0917 -0.2224
   73SLPC   H2R 6410   4.146   5.501  10.260 -0.5742  0.9351 -4.6690
   73SLPC   H2S 6411   4.036   5.620  10.337  0.3487  0.5473  0.0525
   73SLPC    C3 6412   4.469   5.507  10.580  0.2873 -0.2312  0.0895
   73SLPC    HX 6413   4.443   5.408  10.623 -0.0772 -0.2376 -0.1402
   73SLPC    HY 6414   4.551   5.546  10.645 -1.6985  1.4582  1.6398
   73SLPC   O31 6415   4.513   5.499  10.444  0.5069  0.1644 -0.2989
   73SLPC   C31 6416   4.615   5.584  10.409  0.0968  0.2273  0.1363
   73SLPC   O32 6417   4.649   5.682  10.469  0.2172  0.2492 -0.1988
   73SLPC   C32 6418   4.675   5.547  10.268 -0.3263 -0.0366 -1.0157
   73SLPC   H2X 6419   4.770   5.491  10.277 -0.4047  0.3417  2.9267
   73SLPC   H2Y 6420   4.689   5.638  10.205  1.0382  1.0509  0.8192
   73SLPC   C23 6421   4.153   5.694  10.158  0.2858  0.5475  0.0248
   73SLPC   H3R 6422   4.259   5.685  10.125 -0.1043 -1.5529 -0.6855
   73SLPC   H3S 6423   4.132   5.799  10.187  0.8694  0.4370  0.8690
   73SLPC   C24 6424   4.047   5.645  10.060  0.2236 -0.6235  0.2185
   73SLPC   H4R 6425   3.944   5.647  10.101  0.3615 -1.4959  0.6102
   73SLPC   H4S 6426   4.061   5.537  10.039 -1.3806 -0.7395 -0.2777
   73SLPC   C25 6427   4.044   5.712   9.921 -0.9011  0.0865  0.3463
   73SLPC   H5R 6428   4.149   5.698   9.886 -0.3219 -0.3948  2.2280
   73SLPC   H5S 6429   4.045   5.823   9.930  1.1459  0.3640 -2.5152
   73SLPC   C26 6430   3.937   5.671   9.832 -0.3399  0.2572 -0.1495
   73SLPC   H6R 6431   3.850   5.740   9.834 -0.0094  0.6751  0.0590
   73SLPC   H6S 6432   3.897   5.573   9.862  1.1819 -0.1789  0.4934
   73SLPC   C27 6433   3.974   5.674   9.686  0.5978  0.3547  0.1530
   73SLPC   H7R 6434   3.876   5.654   9.637 -0.2948  0.2770  1.9273
   73SLPC   H7S 6435   4.052   5.598   9.662 -0.5844 -1.2437  1.2751
   73SLPC   C28 6436   4.038   5.811   9.630  0.2683  0.1686  0.2022
   73SLPC   H8R 6437   4.139   5.818   9.675  0.2274  0.5769  0.2328
   73SLPC   H8S 6438   3.976   5.895   9.669 -0.2633 -0.8146  1.4992
   73SLPC   C29 6439   4.044   5.810   9.474  0.2343 -0.5960  0.5867
   73SLPC   H9R 6440   4.145   5.783   9.442 -0.0836 -0.8014 -0.2733
   73SLPC  C210 6441   3.954   5.835   9.381  0.7087 -0.4341  0.3778
   73SLPC  H10R 6442   3.989   5.832   9.277 -1.4172 -0.3512 -0.3582
   73SLPC  C211 6443   3.811   5.881   9.393  0.2587  0.3925  0.0150
   73SLPC  H11R 6444   3.770   5.852   9.492 -0.6731  1.0887 -0.1584
   73SLPC  H11S 6445   3.746   5.823   9.324 -0.8167 -0.8542  2.0102
   73SLPC  C212 6446   3.783   6.026   9.376 -0.4213 -0.5066  0.1983
   73SLPC  H12R 6447   3.791   6.063   9.273 -0.4129  1.5912  0.9333
   73SLPC  C213 6448   3.761   6.115   9.476 -0.7204 -0.1407  0.3094
   73SLPC  H13R 6449   3.723   6.215   9.450  1.6323  1.0218  1.2541
   73SLPC  C214 6450   3.760   6.096   9.626 -0.4083  0.1520 -0.0847
   73SLPC  H14R 6451   3.810   6.002   9.659 -1.0221  0.5875  2.1490
   73SLPC  H14S 6452   3.653   6.100   9.653 -0.6214  1.4211 -1.0662
   73SLPC  C215 6453   3.811   6.224   9.700  0.7075 -0.2071  0.0714
   73SLPC  H15R 6454   3.726   6.289   9.727  0.7501  0.4801 -1.3693
   73SLPC  H15S 6455   3.902   6.265   9.650  0.5845 -0.2557 -0.1958
   73SLPC  C216 6456   3.846   6.180   9.845 -0.2526  0.1773  0.6960
   73SLPC  H16R 6457   3.846   6.275   9.904  1.8784  0.3023  0.5307
   73SLPC  H16S 6458   3.948   6.137   9.845  0.0525  0.8412 -1.0742
   73SLPC  C217 6459   3.760   6.083   9.927 -0.0071  0.5733 -0.5397
   73SLPC  H17R 6460   3.766   5.983   9.881 -0.0428  0.9373 -1.3374
   73SLPC  H17S 6461   3.658   6.127   9.919  0.3526  1.6100  0.4716
   73SLPC  C218 6462   3.805   6.075  10.077  0.4905  0.4103 -0.4974
   73SLPC  H18R 6463   3.715   6.047  10.136 -0.6849  0.2722 -2.3397
   73SLPC  H18S 6464   3.845   6.168  10.122 -2.1762  0.7767  1.2373
   73SLPC  H18T 6465   3.886   5.999  10.083 -0.4227 -0.7057 -1.9588
   73SLPC   C33 6466   4.578   5.451  10.189  0.2205  0.2400 -0.3284
   73SLPC   H3X 6467   4.483   5.502  10.161 -0.9527 -2.4816 -1.3824
   73SLPC   H3Y 6468   4.556   5.357  10.244 -0.4065  0.3245 -0.4219
   73SLPC   C34 6469   4.631   5.400  10.059 -0.3620 -0.7619  0.5469
   73SLPC   H4X 6470   4.583   5.304  10.033 -1.1139 -0.8966  2.3427
   73SLPC   H4Y 6471   4.730   5.359  10.085 -0.6741 -2.5240 -0.9683
   73SLPC   C35 6472   4.637   5.509   9.952 -0.3321  0.4162 -0.0332
   73SLPC   H5X 6473   4.738   5.494   9.908 -0.6040  0.3179 -0.6268
   73SLPC   H5Y 6474   4.629   5.610   9.998 -0.6593  0.5696 -0.4255
   73SLPC   C36 6475   4.531   5.499   9.835 -0.2285  0.9322  0.3194
   73SLPC   H6X 6476   4.435   5.523   9.885  0.7129  2.7345  1.3403
   73SLPC   H6Y 6477   4.534   5.392   9.805  2.8362  1.1969 -0.5081
   73SLPC   C37 6478   4.555   5.592   9.719  0.1151  0.5946  0.9349
   73SLPC   H7X 6479   4.647   5.560   9.665 -1.3014 -1.3631 -0.3884
   73SLPC   H7Y 6480   4.567   5.699   9.748  0.3981  0.3580  1.6997
   73SLPC   C38 6481   4.445   5.584   9.610  0.5688 -0.3745  0.3465
   73SLPC   H8X 6482   4.346   5.622   9.643  0.2432 -0.1391 -0.8760
   73SLPC   H8Y 6483   4.445   5.478   9.579 -1.9175 -0.0019 -1.0104
   73SLPC   C39 6484   4.481   5.665   9.480  0.2419  0.2812  0.0362
   73SLPC   H9X 6485   4.587   5.641   9.457 -0.1433 -1.5277  0.0824
   73SLPC   H9Y 6486   4.478   5.771   9.513 -1.4725 -0.1616  1.3601
   73SLPC  C310 6487   4.384   5.637   9.374 -0.2533 -0.1216  0.1876
   73SLPC  H10X 6488   4.282   5.643   9.419  1.3221 -1.1226  4.1163
   73SLPC  H10Y 6489   4.401   5.531   9.346 -0.1524 -0.3374  1.0523
   73SLPC  C311 6490   4.390   5.720   9.244 -0.1213  0.1299 -0.2799
   73SLPC  H11X 6491   4.294   5.699   9.192  0.6190  0.2712 -1.7209
   73SLPC  H11Y 6492   4.470   5.681   9.178  1.2226  0.7988  0.9106
   73SLPC  C312 6493   4.403   5.871   9.262 -0.1877 -0.0949  0.1749
   73SLPC  H12X 6494   4.489   5.875   9.331  0.3251 -1.3167 -0.3747
   73SLPC  H12Y 6495   4.317   5.906   9.324 -0.3095 -0.4443  0.2020
   73SLPC  C313 6496   4.424   5.946   9.134 -0.8499 -0.0705  0.2338
   73SLPC  H13X 6497   4.440   5.880   9.047  1.1446  0.0071  0.5144
   73SLPC  H13Y 6498   4.512   6.014   9.135 -1.6577  1.0376 -1.4690
   73SLPC  C314 6499   4.297   6.023   9.096 -0.2367 -0.1229 -0.2358
   73SLPC  H14X 6500   4.303   6.119   9.153 -1.2226 -0.9685  1.3286
   73SLPC  H14Y 6501   4.214   5.967   9.144  2.6077 -4.0442  0.3591
   73SLPC  C315 6502   4.292   6.068   8.948 -0.8715 -0.5435 -0.2552
   73SLPC  H15X 6503   4.291   5.990   8.870  1.9143 -0.0972 -0.7761
   73SLPC  H15Y 6504   4.387   6.125   8.940 -0.6467 -0.6727  1.2021
   73SLPC  C316 6505   4.173   6.164   8.921  0.3085  0.1274  0.7622
   73SLPC  H16X 6506   4.178   6.246   8.996  1.6272  0.2432  0.5704
   73SLPC  H16Y 6507   4.083   6.102   8.942  0.3866 -0.1179  0.3682
   73SLPC  C317 6508   4.163   6.205   8.780 -0.9878 -0.5727  0.1490
   73SLPC  H17X 6509   4.135   6.120   8.713 -2.1293  0.9562 -1.3720
   73SLPC  H17Y 6510   4.256   6.259   8.753 -1.9320  1.0526  0.1291
   73SLPC  C318 6511   4.050   6.311   8.747 -0.3911  0.5692  0.3117
   73SLPC  H18X 6512   3.951   6.263   8.763 -0.4367  1.5417  3.2423
   73SLPC  H18Y 6513   4.058   6.337   8.639 -0.1979 -0.2885  0.1183
   73SLPC  H18Z 6514   4.066   6.399   8.813  1.3307 -1.5613  2.8320
   74SLPC     N 6515   4.948   0.620  10.410  0.0393  0.0956 -0.5990
   74SLPC   C13 6516   4.974   0.568  10.552 -0.1169  0.8637 -0.4659
   74SLPC  H13A 6517   4.988   0.461  10.542  0.7521  0.7277  1.8921
   74SLPC  H13B 6518   5.071   0.604  10.585  0.4429 -0.8811 -0.1027
   74SLPC  H13C 6519   4.894   0.587  10.622 -1.1525  0.5763 -1.5521
   74SLPC   C14 6520   4.911   0.758  10.431 -0.0511  0.5105  0.2215
   74SLPC  H14A 6521   4.989   0.810  10.486 -1.5344  2.3421  0.6610
   74SLPC  H14B 6522   4.904   0.808  10.336 -0.5558  0.0027 -0.0073
   74SLPC  H14C 6523   4.818   0.782  10.479  0.3493  1.3827  0.5830
   74SLPC   C15 6524   4.825   0.554  10.361  0.7118 -0.2464 -0.1090
   74SLPC  H15A 6525   4.829   0.446  10.366 -0.8168 -0.3072  0.1670
   74SLPC  H15B 6526   4.745   0.570  10.432  1.8534  1.1970  0.8650
   74SLPC  H15C 6527   4.803   0.579  10.258  0.6175 -0.4067 -0.1273
   74SLPC   C12 6528   5.070   0.602  10.319 -0.7527 -0.7860  0.0221
   74SLPC  H12A 6529   5.040   0.648  10.226 -2.1941  0.5883  1.1543
   74SLPC  H12B 6530   5.090   0.496  10.311 -0.9023 -0.9074  1.1491
   74SLPC   C11 6531   5.208   0.658  10.364  0.4182  0.4575 -0.4034
   74SLPC  H11A 6532   5.204   0.767  10.386 -3.0919  0.0297  1.4356
   74SLPC  H11B 6533   5.282   0.649  10.282  0.5668  1.8752 -0.4331
   74SLPC     P 6534   5.290   0.432  10.475 -0.3216 -0.0346 -0.0325
   74SLPC   O13 6535   5.362   0.389  10.595  0.6725 -0.1723  0.2894
   74SLPC   O14 6536   5.166   0.354  10.447  0.2978 -0.5191 -0.1774
   74SLPC   O12 6537   5.251   0.585  10.479  0.2389 -0.3561 -0.0172
   74SLPC   O11 6538   5.380   0.414  10.349  0.3731  0.6101 -0.0244
   74SLPC    C1 6539   5.515   0.458  10.354  0.0837 -0.9743 -0.5048
   74SLPC    HA 6540   5.523   0.534  10.435  1.4577  0.8933 -2.3494
   74SLPC    HB 6541   5.579   0.373  10.385 -1.1262 -1.1600  1.6692
   74SLPC    C2 6542   5.552   0.525  10.216 -0.4418 -0.3431 -0.2370
   74SLPC    HS 6543   5.471   0.598  10.197 -0.1169 -0.1987 -1.0547
   74SLPC   O21 6544   5.555   0.424  10.111 -0.8824 -0.0493  0.0772
   74SLPC   C21 6545   5.532   0.466   9.989  0.1442 -0.5670  0.0399
   74SLPC   O22 6546   5.487   0.571   9.959  0.3646 -0.5575 -0.2354
   74SLPC   C22 6547   5.566   0.353   9.893  0.3359  0.3069  0.0780
   74SLPC   H2R 6548   5.494   0.271   9.911 -0.9346  1.9618  2.8552
   74SLPC   H2S 6549   5.556   0.387   9.787  1.6148  1.2307  0.2425
   74SLPC    C3 6550   5.687   0.596  10.234 -0.3361  1.0294 -0.5742
   74SLPC    HX 6551   5.768   0.522  10.251 -0.2912  0.2472 -3.7727
   74SLPC    HY 6552   5.684   0.656  10.327 -0.4572  2.7494 -1.6683
   74SLPC   O31 6553   5.734   0.675  10.123  0.7384  0.3715 -0.7566
   74SLPC   C31 6554   5.671   0.786  10.092  0.1577  0.2515 -0.4286
   74SLPC   O32 6555   5.592   0.839  10.171 -0.3160 -0.8072  0.8148
   74SLPC   C32 6556   5.726   0.848   9.960 -0.8823 -0.4712  0.5199
   74SLPC   H2X 6557   5.835   0.865   9.977 -0.7923 -0.6430  0.1319
   74SLPC   H2Y 6558   5.688   0.952   9.946 -1.3009 -0.6519  0.3178
   74SLPC   C23 6559   5.699   0.300   9.915 -0.2169  0.1460  0.8238
   74SLPC   H3R 6560   5.701   0.219   9.992  0.0421 -1.5436 -0.9350
   74SLPC   H3S 6561   5.770   0.370   9.964  1.1964 -0.9999  0.4495
   74SLPC   C24 6562   5.773   0.243   9.792  0.0941 -0.1747 -0.0336
   74SLPC   H4R 6563   5.687   0.202   9.734 -1.3797  0.3425  1.7393
   74SLPC   H4S 6564   5.841   0.164   9.830 -1.7959 -0.6955  2.4063
   74SLPC   C25 6565   5.846   0.348   9.717 -0.1036  0.0866 -0.2603
   74SLPC   H5R 6566   5.926   0.396   9.778  0.7024 -0.3089 -0.9904
   74SLPC   H5S 6567   5.786   0.436   9.687  0.5105  1.2597  1.8167
   74SLPC   C26 6568   5.911   0.282   9.591  0.1441  0.1484 -0.1268
   74SLPC   H6R 6569   5.993   0.220   9.632 -0.1272  0.6573  1.2352
   74SLPC   H6S 6570   5.953   0.370   9.537 -2.7224  1.3210 -0.5983
   74SLPC   C27 6571   5.810   0.222   9.496  0.5636  0.8021  0.1191
   74SLPC   H7R 6572   5.718   0.283   9.508  0.2130  0.8369 -2.4676
   74SLPC   H7S 6573   5.789   0.116   9.519  2.4093  0.4333  0.1894
   74SLPC   C28 6574   5.869   0.211   9.360  0.0540 -0.2083 -0.6172
   74SLPC   H8R 6575   5.954   0.141   9.379 -0.4223 -1.5056 -3.0490
   74SLPC   H8S 6576   5.908   0.310   9.329  0.2165 -0.3211 -0.7746
   74SLPC   C29 6577   5.781   0.154   9.249 -0.2343 -0.0520  0.1499
   74SLPC   H9R 6578   5.704   0.081   9.278 -0.6698 -1.1914 -3.7062
   74SLPC  C210 6579   5.790   0.171   9.116 -0.5890  0.2577  0.0945
   74SLPC  H10R 6580   5.699   0.145   9.059 -0.1375 -2.8447  0.7189
   74SLPC  C211 6581   5.879   0.262   9.043  0.0298 -0.1801  0.2173
   74SLPC  H11R 6582   5.916   0.223   8.946  0.4808 -0.5123  0.5217
   74SLPC  H11S 6583   5.968   0.271   9.108  0.0384  0.5225  0.1113
   74SLPC  C212 6584   5.814   0.402   9.009  0.0936  0.1081 -0.6127
   74SLPC  H12R 6585   5.817   0.472   9.094 -0.7951 -1.6120  0.8889
   74SLPC  C213 6586   5.759   0.449   8.895 -0.4862 -0.2703 -0.0440
   74SLPC  H13R 6587   5.730   0.555   8.890  0.0059 -0.1367 -0.0880
   74SLPC  C214 6588   5.739   0.360   8.775  0.4735  0.1741 -1.0191
   74SLPC  H14R 6589   5.630   0.356   8.753  0.5132  1.9836 -1.6692
   74SLPC  H14S 6590   5.775   0.256   8.790 -1.1994 -0.8824 -3.8098
   74SLPC  C215 6591   5.808   0.415   8.649  0.3957 -0.2051 -0.7751
   74SLPC  H15R 6592   5.915   0.439   8.665  0.2826  0.1909 -0.6288
   74SLPC  H15S 6593   5.753   0.509   8.628  1.6305  0.2141 -2.2613
   74SLPC  C216 6594   5.772   0.322   8.531  0.3509 -0.3152 -0.2348
   74SLPC  H16R 6595   5.662   0.330   8.517  0.3286  0.8313  0.5249
   74SLPC  H16S 6596   5.800   0.215   8.544 -1.0637 -0.4565  1.7928
   74SLPC  C217 6597   5.840   0.376   8.405 -0.8457  0.2222 -0.6394
   74SLPC  H17R 6598   5.949   0.372   8.427 -0.8829  0.2524 -0.4498
   74SLPC  H17S 6599   5.807   0.479   8.380 -1.5054  0.0764 -0.3612
   74SLPC  C218 6600   5.815   0.297   8.279 -0.3218 -0.0396  0.2213
   74SLPC  H18R 6601   5.890   0.217   8.264 -0.7092 -0.2602 -0.5682
   74SLPC  H18S 6602   5.821   0.353   8.183 -1.5664  1.6971  1.1247
   74SLPC  H18T 6603   5.708   0.264   8.283 -0.3621  0.0406 -0.1636
   74SLPC   C33 6604   5.709   0.759   9.834  0.4043  0.9450  0.5020
   74SLPC   H3X 6605   5.601   0.741   9.812  0.6442  2.8883 -2.5737
   74SLPC   H3Y 6606   5.772   0.672   9.862 -1.7192 -0.9598 -0.4311
   74SLPC   C34 6607   5.761   0.828   9.707 -0.8774  0.3804  0.9629
   74SLPC   H4X 6608   5.869   0.854   9.719 -0.7387  0.3054 -0.0510
   74SLPC   H4Y 6609   5.711   0.925   9.686 -1.8412 -0.2816  0.1147
   74SLPC   C35 6610   5.724   0.733   9.588  0.1239  0.4626 -0.0442
   74SLPC   H5X 6611   5.613   0.737   9.575 -0.0190 -1.8409  0.1544
   74SLPC   H5Y 6612   5.744   0.625   9.605  1.8060  0.6127 -0.9718
   74SLPC   C36 6613   5.805   0.762   9.457 -0.0434  0.1389  0.0400
   74SLPC   H6X 6614   5.901   0.807   9.487  0.0329  1.3568 -1.9260
   74SLPC   H6Y 6615   5.752   0.834   9.390 -1.5057 -0.2801  0.7242
   74SLPC   C37 6616   5.839   0.639   9.373  0.4398 -0.1654  0.0132
   74SLPC   H7X 6617   5.750   0.593   9.326 -0.6462  2.4866 -0.6359
   74SLPC   H7Y 6618   5.879   0.553   9.431  0.3457  0.0991  0.4805
   74SLPC   C38 6619   5.948   0.681   9.264  0.0310 -0.1030 -0.8642
   74SLPC   H8X 6620   6.000   0.589   9.228 -0.5190 -0.6245 -0.3459
   74SLPC   H8Y 6621   6.036   0.734   9.307 -0.8094 -0.9123  1.9913
   74SLPC   C39 6622   5.885   0.754   9.150 -0.8171  0.3191  0.3868
   74SLPC   H9X 6623   5.836   0.848   9.183 -1.5489  0.0142  0.1765
   74SLPC   H9Y 6624   5.803   0.699   9.099  0.8673 -0.9740 -0.9733
   74SLPC  C310 6625   5.993   0.780   9.045  0.9081  1.2072 -0.2806
   74SLPC  H10X 6626   6.046   0.690   9.006  3.3835  3.3687 -2.1617
   74SLPC  H10Y 6627   6.079   0.844   9.078  1.2248  1.6715 -1.9416
   74SLPC  C311 6628   5.937   0.851   8.922 -0.2604 -0.1993 -0.4439
   74SLPC  H11X 6629   5.908   0.954   8.950 -1.7383 -0.2827 -1.5784
   74SLPC  H11Y 6630   5.842   0.806   8.886 -1.9252  2.7330  0.1434
   74SLPC  C312 6631   6.031   0.865   8.810 -0.2673 -0.2786 -0.1866
   74SLPC  H12X 6632   6.055   0.764   8.772  1.2254  0.7885 -2.2252
   74SLPC  H12Y 6633   6.127   0.906   8.850 -0.4911 -0.3047  0.3796
   74SLPC  C313 6634   5.981   0.941   8.688  0.1714 -0.4875  0.1690
   74SLPC  H13X 6635   6.074   0.970   8.634  1.1191  0.0483  2.0535
   74SLPC  H13Y 6636   5.916   1.027   8.714  2.0662  0.8143  0.7498
   74SLPC  C314 6637   5.908   0.843   8.595  0.0405 -0.3209 -0.2541
   74SLPC  H14X 6638   5.812   0.808   8.639  0.2478 -1.3735 -0.6216
   74SLPC  H14Y 6639   5.954   0.742   8.589 -0.0611 -0.4621  1.0446
   74SLPC  C315 6640   5.889   0.894   8.460 -0.1812 -0.1061  0.2615
   74SLPC  H15X 6641   5.978   0.946   8.420 -1.2495 -0.0014 -2.0580
   74SLPC  H15Y 6642   5.804   0.965   8.462 -1.0966 -1.1399 -1.1337
   74SLPC  C316 6643   5.851   0.788   8.351 -0.2781 -0.0118 -0.2013
   74SLPC  H16X 6644   5.765   0.729   8.391 -1.9516  1.5582 -1.4136
   74SLPC  H16Y 6645   5.926   0.714   8.318  0.8231  0.5693  0.9367
   74SLPC  C317 6646   5.788   0.853   8.221  0.2921 -0.5681 -1.4984
   74SLPC  H17X 6647   5.867   0.892   8.153  0.8471  1.5638  0.2796
   74SLPC  H17Y 6648   5.724   0.936   8.258  1.9353  0.8882 -1.8589
   74SLPC  C318 6649   5.705   0.747   8.139 -0.1823 -1.0215  0.1995
   74SLPC  H18X 6650   5.678   0.788   8.040  0.5090  2.3103  1.3190
   74SLPC  H18Y 6651   5.619   0.720   8.204 -0.1721  0.7324  0.9604
   74SLPC  H18Z 6652   5.749   0.646   8.120  0.1231 -1.0018  0.7784
   75SLPC     N 6653   3.902   3.674   6.027 -0.5042 -0.3940 -0.0678
   75SLPC   C13 6654   3.783   3.607   5.969  0.1194  0.6787  0.2456
   75SLPC  H13A 6655   3.747   3.649   5.876  0.3547 -0.9285 -0.5769
   75SLPC  H13B 6656   3.792   3.501   5.950  0.1460  0.9559 -1.2880
   75SLPC  H13C 6657   3.703   3.612   6.043  0.6194  0.1045  0.8298
   75SLPC   C14 6658   3.995   3.733   5.927  0.5049  0.0715 -1.0182
   75SLPC  H14A 6659   4.060   3.806   5.973 -2.7606  1.5984  1.3737
   75SLPC  H14B 6660   4.049   3.666   5.860 -0.3390  1.1464 -2.8100
   75SLPC  H14C 6661   3.938   3.797   5.862  0.5936  1.9728  0.7410
   75SLPC   C15 6662   3.972   3.571   6.112  0.0532  0.6990 -0.0822
   75SLPC  H15A 6663   4.062   3.614   6.152 -0.2741  0.2718  1.1462
   75SLPC  H15B 6664   3.910   3.532   6.191 -0.4244  1.4737 -0.0597
   75SLPC  H15C 6665   3.997   3.486   6.051 -1.4167  0.2393 -0.0694
   75SLPC   C12 6666   3.855   3.792   6.115 -0.4006  0.1235  0.2767
   75SLPC  H12A 6667   3.779   3.747   6.177 -0.1052 -1.1726 -0.2894
   75SLPC  H12B 6668   3.794   3.858   6.055 -0.9936 -1.3812 -0.7932
   75SLPC   C11 6669   3.955   3.872   6.193  0.1681  0.0726  0.8203
   75SLPC  H11A 6670   3.905   3.961   6.238  1.2099  0.3125  1.5117
   75SLPC  H11B 6671   4.035   3.908   6.126 -0.9705  0.7854 -0.1746
   75SLPC     P 6672   4.057   3.847   6.435 -0.0753 -0.1349  0.1842
   75SLPC   O13 6673   4.064   3.729   6.524  0.0323 -0.1423  0.4335
   75SLPC   O14 6674   4.182   3.919   6.429  0.3366  0.4041 -0.2841
   75SLPC   O12 6675   4.024   3.794   6.288 -0.2538 -0.7421 -0.2312
   75SLPC   O11 6676   3.933   3.940   6.481 -0.7276 -0.9898  0.5444
   75SLPC    C1 6677   3.807   3.868   6.483 -0.3212  0.8507 -0.0946
   75SLPC    HA 6678   3.730   3.901   6.409 -2.0390  2.0815  2.1733
   75SLPC    HB 6679   3.802   3.758   6.473  0.1344  0.5476  2.7300
   75SLPC    C2 6680   3.738   3.895   6.617  0.3726 -0.6130  0.7898
   75SLPC    HS 6681   3.644   3.837   6.631  0.2220 -0.4471  0.4826
   75SLPC   O21 6682   3.721   4.031   6.640 -0.2417 -0.0439 -0.0834
   75SLPC   C21 6683   3.619   4.092   6.585  0.4671  0.1770  0.6823
   75SLPC   O22 6684   3.537   4.039   6.511  0.2360 -0.2914 -0.1599
   75SLPC   C22 6685   3.626   4.240   6.607  0.1919 -0.0119 -0.2391
   75SLPC   H2R 6686   3.724   4.281   6.639  0.1642 -0.0307 -0.1298
   75SLPC   H2S 6687   3.602   4.278   6.506  1.3956 -1.8393 -1.2239
   75SLPC    C3 6688   3.826   3.847   6.732 -0.3938  0.2116 -0.3539
   75SLPC    HX 6689   3.923   3.901   6.731 -0.4017  0.3293  2.5218
   75SLPC    HY 6690   3.839   3.738   6.715  2.0554  0.6476 -1.6101
   75SLPC   O31 6691   3.765   3.873   6.863  0.3725 -0.4887  0.1935
   75SLPC   C31 6692   3.671   3.782   6.907 -0.0170 -0.3256  0.4839
   75SLPC   O32 6693   3.635   3.689   6.840 -0.0377 -0.3637  0.0985
   75SLPC   C32 6694   3.614   3.833   7.041  0.0325  0.3227 -0.1086
   75SLPC   H2X 6695   3.525   3.900   7.034 -0.4717 -0.3735 -0.3850
   75SLPC   H2Y 6696   3.694   3.895   7.087  0.5786 -0.8846  0.5865
   75SLPC   C23 6697   3.519   4.285   6.712 -1.0669 -0.0947  0.0889
   75SLPC   H3R 6698   3.420   4.261   6.668 -0.4356 -0.6827 -1.0178
   75SLPC   H3S 6699   3.517   4.396   6.705 -1.6541 -0.1434 -0.5005
   75SLPC   C24 6700   3.541   4.238   6.854  0.1829 -0.1700 -0.2842
   75SLPC   H4R 6701   3.650   4.230   6.874 -0.1800 -4.5098  0.3561
   75SLPC   H4S 6702   3.508   4.132   6.858  1.0483 -0.4341 -0.1010
   75SLPC   C25 6703   3.467   4.321   6.962 -0.3650  0.1411 -0.6008
   75SLPC   H5R 6704   3.362   4.335   6.929 -0.0244 -1.0343 -2.2468
   75SLPC   H5S 6705   3.512   4.418   6.992 -1.8339  0.8504 -0.6635
   75SLPC   C26 6706   3.467   4.246   7.092 -0.1542 -0.2431 -0.0727
   75SLPC   H6R 6707   3.571   4.222   7.120 -0.5699 -0.5430  1.2529
   75SLPC   H6S 6708   3.403   4.156   7.087 -2.3115  1.2383  0.1224
   75SLPC   C27 6709   3.390   4.323   7.202  0.1331 -0.1605  0.7537
   75SLPC   H7R 6710   3.279   4.321   7.189  0.0185  3.7279  0.7266
   75SLPC   H7S 6711   3.409   4.432   7.198 -0.5459 -0.0919 -2.7659
   75SLPC   C28 6712   3.427   4.279   7.344  0.1375  0.0964  0.1824
   75SLPC   H8R 6713   3.537   4.289   7.357  0.3382  0.2760 -1.5445
   75SLPC   H8S 6714   3.402   4.171   7.355  0.7069  0.0930  1.4174
   75SLPC   C29 6715   3.356   4.360   7.442  0.0715 -0.3151 -0.2779
   75SLPC   H9R 6716   3.264   4.406   7.404 -0.6655  0.2908  2.1644
   75SLPC  C210 6717   3.390   4.382   7.570  0.5772  0.3979  0.1446
   75SLPC  H10R 6718   3.333   4.460   7.624  0.1175 -0.3644  0.7640
   75SLPC  C211 6719   3.506   4.325   7.638  0.2671 -0.1913  0.4649
   75SLPC  H11R 6720   3.598   4.337   7.576  1.5949  0.0369  2.4175
   75SLPC  H11S 6721   3.490   4.215   7.651  0.6727 -0.2828  0.2038
   75SLPC  C212 6722   3.534   4.393   7.769  0.0384  0.3178 -0.2698
   75SLPC  H12R 6723   3.569   4.497   7.764  2.5576 -0.5564 -1.4629
   75SLPC  C213 6724   3.524   4.336   7.889 -0.0229 -0.2841 -0.5302
   75SLPC  H13R 6725   3.540   4.396   7.980 -0.0894 -1.6355  0.3786
   75SLPC  C214 6726   3.493   4.195   7.924 -0.1350  0.5774 -0.2903
   75SLPC  H14R 6727   3.469   4.129   7.838  0.6725  0.0561 -0.1253
   75SLPC  H14S 6728   3.403   4.202   7.988  0.2934  1.4826  0.2262
   75SLPC  C215 6729   3.618   4.135   7.993  0.3942  0.2576  0.1962
   75SLPC  H15R 6730   3.651   4.207   8.071 -0.0278 -1.1500  1.7069
   75SLPC  H15S 6731   3.704   4.121   7.924 -1.0679  1.0990 -1.8404
   75SLPC  C216 6732   3.575   4.001   8.057  0.1615 -0.2576 -0.3384
   75SLPC  H16R 6733   3.586   3.915   7.987  2.4323  0.0263 -0.3712
   75SLPC  H16S 6734   3.466   3.999   8.076  0.4927 -3.7483  1.7597
   75SLPC  C217 6735   3.641   3.974   8.187 -0.7024 -0.0629 -0.1573
   75SLPC  H17R 6736   3.609   4.052   8.260 -4.2182 -1.7355  0.1472
   75SLPC  H17S 6737   3.751   3.976   8.168 -0.5869  1.7513  0.5904
   75SLPC  C218 6738   3.599   3.843   8.261  0.1079  0.5511 -0.4308
   75SLPC  H18R 6739   3.645   3.838   8.362 -0.4486 -2.4279 -0.2695
   75SLPC  H18S 6740   3.624   3.752   8.203 -0.8654  0.7731 -1.2045
   75SLPC  H18T 6741   3.489   3.850   8.280 -0.3974 -0.7105 -2.7092
   75SLPC   C33 6742   3.595   3.708   7.130 -0.2956 -0.2177 -0.1569
   75SLPC   H3X 6743   3.506   3.648   7.101  0.2604 -0.5689 -1.1788
   75SLPC   H3Y 6744   3.689   3.650   7.131 -1.1332 -1.5952  0.0506
   75SLPC   C34 6745   3.576   3.741   7.278  0.2162 -1.0613 -0.2034
   75SLPC   H4X 6746   3.648   3.812   7.322  0.1396 -1.0843 -0.0413
   75SLPC   H4Y 6747   3.583   3.644   7.331  0.0370 -2.2148 -2.2235
   75SLPC   C35 6748   3.437   3.794   7.323 -0.2458 -0.8085 -0.4837
   75SLPC   H5X 6749   3.364   3.710   7.312 -2.4159  0.9278  0.4087
   75SLPC   H5Y 6750   3.407   3.875   7.254  0.1908 -1.5132 -1.5222
   75SLPC   C36 6751   3.420   3.860   7.461  0.0678 -0.2700 -0.4524
   75SLPC   H6X 6752   3.326   3.919   7.453 -0.5142 -1.0164  0.7176
   75SLPC   H6Y 6753   3.501   3.932   7.484  0.5151 -1.1096  0.6716
   75SLPC   C37 6754   3.403   3.767   7.581 -0.2390 -0.1724  0.1966
   75SLPC   H7X 6755   3.326   3.688   7.566  0.2775 -0.1281 -3.1343
   75SLPC   H7Y 6756   3.360   3.830   7.661 -1.5793 -1.0574  0.1967
   75SLPC   C38 6757   3.535   3.708   7.631 -0.3803 -0.3149  0.2474
   75SLPC   H8X 6758   3.602   3.797   7.636 -0.6812 -0.0869  0.3032
   75SLPC   H8Y 6759   3.572   3.630   7.562  0.0179  0.2129 -0.1409
   75SLPC   C39 6760   3.538   3.655   7.776  0.2568 -0.3646 -0.1807
   75SLPC   H9X 6761   3.478   3.710   7.851  0.3165  1.9793 -1.8046
   75SLPC   H9Y 6762   3.644   3.655   7.812 -0.1014 -1.4115  0.9221
   75SLPC  C310 6763   3.487   3.512   7.782  0.3577  0.6387 -1.1106
   75SLPC  H10X 6764   3.547   3.454   7.709  0.3001  0.0347 -0.6818
   75SLPC  H10Y 6765   3.379   3.509   7.760  0.1217 -1.3832  0.1505
   75SLPC  C311 6766   3.499   3.472   7.931  0.4457 -0.3089  0.7712
   75SLPC  H11X 6767   3.404   3.489   7.986  0.9771  1.2995  1.2243
   75SLPC  H11Y 6768   3.577   3.529   7.986 -1.4435  0.9362  2.2513
   75SLPC  C312 6769   3.521   3.319   7.964  0.3762  0.6382  0.4832
   75SLPC  H12X 6770   3.609   3.288   7.904  1.4008  0.5226  2.0406
   75SLPC  H12Y 6771   3.436   3.264   7.918  2.0418 -2.1814  0.6666
   75SLPC  C313 6772   3.542   3.271   8.101  0.3522  0.5930  0.0331
   75SLPC  H13X 6773   3.447   3.249   8.154 -0.6729  0.1140 -1.9498
   75SLPC  H13Y 6774   3.602   3.341   8.164 -1.0534  0.4639  1.5647
   75SLPC  C314 6775   3.611   3.135   8.104 -0.8693  0.6828 -0.1324
   75SLPC  H14X 6776   3.641   3.117   8.210  2.2156  0.2161 -1.0512
   75SLPC  H14Y 6777   3.705   3.140   8.045 -0.4601  0.4789  0.4994
   75SLPC  C315 6778   3.517   3.026   8.062 -0.5307 -0.3249 -0.0382
   75SLPC  H15X 6779   3.507   3.019   7.952 -2.4905  1.4957 -0.0256
   75SLPC  H15Y 6780   3.414   3.037   8.102 -1.1465  0.1055 -1.7001
   75SLPC  C316 6781   3.579   2.896   8.113 -0.5052 -0.2987 -0.2532
   75SLPC  H16X 6782   3.549   2.877   8.218  1.5165  1.5426  0.7059
   75SLPC  H16Y 6783   3.689   2.909   8.121 -0.3753 -0.4533 -1.6188
   75SLPC  C317 6784   3.543   2.780   8.025 -0.5985 -0.1973 -0.6341
   75SLPC  H17X 6785   3.618   2.769   7.944  1.2100  1.3873  0.7776
   75SLPC  H17Y 6786   3.445   2.807   7.980 -0.7673  0.4649  0.1184
   75SLPC  C318 6787   3.549   2.649   8.111 -0.9356  0.0713  0.7945
   75SLPC  H18X 6788   3.465   2.649   8.184 -0.9728  1.0227  0.7582
   75SLPC  H18Y 6789   3.649   2.639   8.159 -0.4621  0.6627 -0.0473
   75SLPC  H18Z 6790   3.532   2.556   8.054 -2.0231  0.2304  0.8603
   76SLPC     N 6791   5.664   1.990   6.344  0.0648  0.3089  0.2712
   76SLPC   C13 6792   5.805   1.983   6.392  0.5208  0.2435 -0.0677
   76SLPC  H13A 6793   5.838   1.881   6.405  2.2335  0.3263 -3.1712
   76SLPC  H13B 6794   5.876   2.026   6.321 -1.4467  0.4554 -1.9512
   76SLPC  H13C 6795   5.813   2.032   6.488  2.6603  0.0697 -0.1267
   76SLPC   C14 6796   5.654   1.906   6.220 -0.3381 -0.1313  0.0925
   76SLPC  H14A 6797   5.559   1.927   6.172  1.0664 -1.4584 -3.3995
   76SLPC  H14B 6798   5.726   1.930   6.143  1.0194  0.9368  1.6670
   76SLPC  H14C 6799   5.660   1.801   6.244  1.7864  0.5829  2.9789
   76SLPC   C15 6800   5.616   2.125   6.312  0.1967  0.2692 -0.2001
   76SLPC  H15A 6801   5.643   2.196   6.389 -2.6417  0.0037  1.0904
   76SLPC  H15B 6802   5.653   2.160   6.216 -3.5614  0.2381 -1.7459
   76SLPC  H15C 6803   5.508   2.131   6.318  0.1065  0.6660 -1.9619
   76SLPC   C12 6804   5.583   1.925   6.456  0.1281 -1.0202  0.2208
   76SLPC  H12A 6805   5.480   1.926   6.426  0.0718 -2.1366  0.3579
   76SLPC  H12B 6806   5.591   2.000   6.533 -0.0109 -0.1942 -0.5694
   76SLPC   C11 6807   5.622   1.786   6.511 -0.3295 -0.1397  0.4144
   76SLPC  H11A 6808   5.543   1.766   6.587  0.1542 -0.4381  0.8355
   76SLPC  H11B 6809   5.711   1.786   6.577 -1.2654 -0.9204  1.7195
   76SLPC     P 6810   5.740   1.584   6.413  0.0822  0.0243 -0.3033
   76SLPC   O13 6811   5.721   1.484   6.314  0.2365 -0.2441 -0.1200
   76SLPC   O14 6812   5.876   1.644   6.396  0.6228  0.2901  1.1060
   76SLPC   O12 6813   5.620   1.685   6.410  0.4866  0.1015 -0.4392
   76SLPC   O11 6814   5.724   1.522   6.554  0.0031 -0.6070  1.0605
   76SLPC    C1 6815   5.594   1.466   6.594 -0.8222 -0.7025 -0.7707
   76SLPC    HA 6816   5.506   1.514   6.546  0.0891  1.7581 -0.0833
   76SLPC    HB 6817   5.603   1.357   6.574  1.9243 -0.4979 -0.9088
   76SLPC    C2 6818   5.569   1.499   6.746  0.1422  0.4130 -0.0893
   76SLPC    HS 6819   5.555   1.608   6.759  0.9535  0.4641  0.4145
   76SLPC   O21 6820   5.672   1.451   6.834  0.0480 -0.2468 -0.2158
   76SLPC   C21 6821   5.764   1.534   6.867  0.5018 -0.2507  0.1794
   76SLPC   O22 6822   5.762   1.651   6.846 -0.2361  0.0753  0.1840
   76SLPC   C22 6823   5.878   1.463   6.947 -0.1480 -0.2537  0.5558
   76SLPC   H2R 6824   5.906   1.376   6.885 -2.7786  0.2278 -1.3856
   76SLPC   H2S 6825   5.965   1.530   6.964 -2.0635  2.5447 -0.3479
   76SLPC    C3 6826   5.436   1.429   6.794 -0.0620 -0.7528  0.2164
   76SLPC    HX 6827   5.467   1.322   6.791 -0.3293 -0.7815 -4.9163
   76SLPC    HY 6828   5.367   1.435   6.708  0.7646  1.6571 -0.3106
   76SLPC   O31 6829   5.382   1.456   6.922 -0.0508 -0.5478  0.2443
   76SLPC   C31 6830   5.323   1.568   6.935 -0.3145  0.0822  0.0390
   76SLPC   O32 6831   5.300   1.650   6.845  0.3370  0.0471 -0.3996
   76SLPC   C32 6832   5.276   1.592   7.083 -0.4783 -0.2259 -0.1940
   76SLPC   H2X 6833   5.166   1.603   7.076 -0.6073 -2.3891 -1.8270
   76SLPC   H2Y 6834   5.315   1.687   7.127 -0.7012 -0.8280  1.3080
   76SLPC   C23 6835   5.831   1.407   7.082 -0.1204  0.0386 -0.4622
   76SLPC   H3R 6836   5.908   1.339   7.123 -1.2912 -1.3296 -0.4840
   76SLPC   H3S 6837   5.735   1.357   7.055 -0.3705  0.2512  0.0325
   76SLPC   C24 6838   5.811   1.523   7.182 -0.6995  0.2220  0.1873
   76SLPC   H4R 6839   5.709   1.567   7.195 -0.0743  2.6302 -2.5424
   76SLPC   H4S 6840   5.870   1.605   7.136  0.7467 -0.6432  0.4801
   76SLPC   C25 6841   5.871   1.493   7.316 -0.4254  0.5689 -0.3422
   76SLPC   H5R 6842   5.982   1.501   7.304 -0.1934  0.1763  1.3139
   76SLPC   H5S 6843   5.852   1.391   7.355  1.5945  0.8193  1.4029
   76SLPC   C26 6844   5.817   1.580   7.434 -0.7166  0.5408 -0.8713
   76SLPC   H6R 6845   5.709   1.558   7.443 -0.0805 -1.5641  2.2909
   76SLPC   H6S 6846   5.828   1.689   7.416 -0.3244  0.6967  0.2869
   76SLPC   C27 6847   5.884   1.537   7.565 -0.3768 -0.6704 -0.4159
   76SLPC   H7R 6848   5.991   1.553   7.542 -1.4993  2.6341 -3.8976
   76SLPC   H7S 6849   5.865   1.428   7.574  0.0656 -0.5991  1.5544
   76SLPC   C28 6850   5.847   1.624   7.690  0.5134  0.1684 -0.2535
   76SLPC   H8R 6851   5.862   1.729   7.658  0.5399 -0.3709 -2.1113
   76SLPC   H8S 6852   5.739   1.608   7.710  0.8785 -0.9085  0.9528
   76SLPC   C29 6853   5.918   1.583   7.815 -0.9092  0.1329 -0.7911
   76SLPC   H9R 6854   5.929   1.474   7.822  1.0475  0.2893 -1.1013
   76SLPC  C210 6855   5.996   1.649   7.901  1.2257  0.4348  0.5673
   76SLPC  H10R 6856   6.040   1.596   7.987  1.6883 -0.4847 -0.2159
   76SLPC  C211 6857   6.022   1.798   7.896 -0.0919  0.4116 -0.5578
   76SLPC  H11R 6858   6.015   1.841   7.794  0.2972 -1.5789 -1.4490
   76SLPC  H11S 6859   6.128   1.803   7.929 -0.5053 -0.2032  0.9175
   76SLPC  C212 6860   5.939   1.877   7.995  0.4303 -0.1404 -0.1337
   76SLPC  H12R 6861   5.837   1.884   7.954  0.2251 -1.6126  0.0911
   76SLPC  C213 6862   5.961   1.920   8.122  0.1692  0.5323  0.5236
   76SLPC  H13R 6863   5.882   1.971   8.178 -1.6594 -0.5112 -1.0641
   76SLPC  C214 6864   6.091   1.905   8.203 -0.4473 -1.2404 -0.2320
   76SLPC  H14R 6865   6.161   1.821   8.185  0.1328 -1.1316  1.4187
   76SLPC  H14S 6866   6.066   1.899   8.312 -0.6282  1.1719 -0.1156
   76SLPC  C215 6867   6.192   2.030   8.191 -0.0799 -0.3647 -0.7743
   76SLPC  H15R 6868   6.282   2.021   8.256  0.2873  2.1428 -0.8808
   76SLPC  H15S 6869   6.143   2.129   8.206  1.2141  0.4674 -1.9156
   76SLPC  C216 6870   6.257   2.025   8.050 -0.9056 -0.2639 -0.5814
   76SLPC  H16R 6871   6.180   2.048   7.974 -0.2549 -0.3044 -1.2572
   76SLPC  H16S 6872   6.294   1.924   8.020 -1.3319  0.0990 -2.3435
   76SLPC  C217 6873   6.368   2.126   8.038  0.4439  0.6424  0.4157
   76SLPC  H17R 6874   6.463   2.078   8.072  1.1416  1.7125  0.0119
   76SLPC  H17S 6875   6.359   2.212   8.108 -0.8204  0.0924  0.9458
   76SLPC  C218 6876   6.382   2.179   7.892  0.4324 -0.0238 -0.7396
   76SLPC  H18R 6877   6.291   2.241   7.876  0.5927  0.3276 -0.2909
   76SLPC  H18S 6878   6.377   2.094   7.821  0.8964 -0.1809 -0.5822
   76SLPC  H18T 6879   6.474   2.239   7.878  1.3075 -1.5475 -1.6488
   76SLPC   C33 6880   5.287   1.467   7.173 -0.3706  0.5118 -0.0846
   76SLPC   H3X 6881   5.393   1.436   7.186 -0.6371 -0.0698  0.7625
   76SLPC   H3Y 6882   5.226   1.387   7.126 -0.3191  0.1026  0.5381
   76SLPC   C34 6883   5.211   1.477   7.309 -0.4970  0.0121  0.3039
   76SLPC   H4X 6884   5.230   1.375   7.348  2.0441  0.4609  0.2887
   76SLPC   H4Y 6885   5.103   1.502   7.298 -0.3436  0.4346 -0.2608
   76SLPC   C35 6886   5.281   1.575   7.409 -0.5613 -0.5768 -0.5467
   76SLPC   H5X 6887   5.276   1.679   7.372  2.6681  0.1701  0.9250
   76SLPC   H5Y 6888   5.386   1.541   7.420 -1.1045 -2.5459 -1.1496
   76SLPC   C36 6889   5.218   1.560   7.549 -0.4340  0.1879  1.0637
   76SLPC   H6X 6890   5.108   1.575   7.537 -0.3283  1.8758  2.0795
   76SLPC   H6Y 6891   5.250   1.647   7.611 -0.5559  0.9259  0.0917
   76SLPC   C37 6892   5.240   1.427   7.609 -0.5958 -0.1683 -0.3695
   76SLPC   H7X 6893   5.346   1.408   7.636 -0.4283  1.6683  0.3495
   76SLPC   H7Y 6894   5.203   1.343   7.546  0.1269 -0.7221 -0.0700
   76SLPC   C38 6895   5.166   1.423   7.739 -0.3141  1.1150  0.6037
   76SLPC   H8X 6896   5.179   1.324   7.788 -0.2235  1.2539  0.8605
   76SLPC   H8Y 6897   5.058   1.437   7.717 -0.3349 -2.4436 -2.0012
   76SLPC   C39 6898   5.203   1.522   7.848  0.3998  0.1047 -0.1002
   76SLPC   H9X 6899   5.142   1.504   7.939 -2.1057  1.3567 -1.4944
   76SLPC   H9Y 6900   5.170   1.625   7.821  0.3236  0.4465  1.2318
   76SLPC  C310 6901   5.355   1.520   7.888 -0.0866 -0.5584  0.0447
   76SLPC  H10X 6902   5.413   1.569   7.806 -1.5350 -0.3127 -0.8396
   76SLPC  H10Y 6903   5.393   1.417   7.904 -2.0023 -0.9743  1.9742
   76SLPC  C311 6904   5.389   1.608   8.005 -0.0264  0.1134 -0.2360
   76SLPC  H11X 6905   5.374   1.566   8.107  0.5282  1.6979  0.5042
   76SLPC  H11Y 6906   5.332   1.703   8.010 -0.0172  0.0031  3.1268
   76SLPC  C312 6907   5.533   1.663   8.007 -0.3567 -0.4564  0.4069
   76SLPC  H12X 6908   5.545   1.733   7.921  0.7924  0.9352  1.6629
   76SLPC  H12Y 6909   5.621   1.597   8.021  0.3525  0.8136  2.1697
   76SLPC  C313 6910   5.552   1.764   8.125 -0.1860 -0.4869  0.1648
   76SLPC  H13X 6911   5.461   1.827   8.135  0.1249 -0.0504  0.2406
   76SLPC  H13Y 6912   5.632   1.836   8.098 -1.8336  0.4768 -2.3061
   76SLPC  C314 6913   5.587   1.712   8.262  0.2104  0.1474 -0.2014
   76SLPC  H14X 6914   5.514   1.636   8.297  1.6724 -0.4745  1.5582
   76SLPC  H14Y 6915   5.598   1.796   8.335 -0.2927 -1.5983  1.9443
   76SLPC  C315 6916   5.724   1.651   8.265  0.6525 -0.1250  0.4804
   76SLPC  H15X 6917   5.802   1.722   8.231  1.5264 -1.8009 -1.1590
   76SLPC  H15Y 6918   5.723   1.569   8.190  0.7783  1.4256 -1.2291
   76SLPC  C316 6919   5.758   1.612   8.409  0.2861 -0.3508 -0.3953
   76SLPC  H16X 6920   5.704   1.519   8.437  1.6715 -0.8187  0.8299
   76SLPC  H16Y 6921   5.715   1.697   8.466  1.0612  1.5254 -2.5136
   76SLPC  C317 6922   5.905   1.596   8.441 -0.0045 -0.0787  0.1738
   76SLPC  H17X 6923   5.954   1.696   8.442 -1.0010  0.4222  1.4365
   76SLPC  H17Y 6924   5.960   1.524   8.378  3.1898  1.9496  0.5076
   76SLPC  C318 6925   5.928   1.554   8.589 -0.4218 -0.0022  0.2756
   76SLPC  H18X 6926   5.897   1.632   8.663  1.3294  0.0121  1.0124
   76SLPC  H18Y 6927   6.035   1.543   8.618 -0.0812  0.8346 -0.6553
   76SLPC  H18Z 6928   5.880   1.458   8.618  1.3950 -1.0231  0.0111
   77SLPC     N 6929   1.840   0.790   6.330 -0.3604 -0.5608 -0.6702
   77SLPC   C13 6930   1.824   0.657   6.257  0.3073  0.2050  0.7088
   77SLPC  H13A 6931   1.740   0.652   6.189  1.3385 -3.1060 -0.4491
   77SLPC  H13B 6932   1.905   0.645   6.186 -0.7853  3.2366 -1.1475
   77SLPC  H13C 6933   1.823   0.574   6.326  0.6411 -0.8418 -0.5173
   77SLPC   C14 6934   1.829   0.906   6.234 -0.2734 -0.1499 -0.0197
   77SLPC  H14A 6935   1.746   0.886   6.168 -0.4776  2.0077 -0.4550
   77SLPC  H14B 6936   1.814   0.999   6.286  1.3783  0.4476 -0.6080
   77SLPC  H14C 6937   1.913   0.916   6.167 -0.4676  0.5144 -0.1658
   77SLPC   C15 6938   1.976   0.792   6.392  0.1112 -0.0212 -0.0106
   77SLPC  H15A 6939   2.037   0.817   6.307 -1.7387  0.3061 -1.2727
   77SLPC  H15B 6940   1.980   0.872   6.465 -2.1789  0.5739 -0.4783
   77SLPC  H15C 6941   2.010   0.699   6.436 -1.5076 -0.2906  0.7052
   77SLPC   C12 6942   1.732   0.805   6.443  0.5570  0.0037 -0.1039
   77SLPC  H12A 6943   1.755   0.718   6.502  0.9659 -0.6736 -1.2639
   77SLPC  H12B 6944   1.635   0.787   6.399 -0.2670 -1.9460  2.3718
   77SLPC   C11 6945   1.724   0.934   6.535  0.1520 -0.2216 -0.8941
   77SLPC  H11A 6946   1.825   0.951   6.579 -0.7069  1.2363  0.5934
   77SLPC  H11B 6947   1.656   0.911   6.620  1.3605 -0.7491 -0.0575
   77SLPC     P 6948   1.537   1.078   6.405 -0.0215  0.0345  0.0656
   77SLPC   O13 6949   1.529   1.193   6.312 -0.4163 -0.4531 -0.0984
   77SLPC   O14 6950   1.489   0.957   6.339 -0.4331 -0.7154 -0.1008
   77SLPC   O12 6951   1.690   1.052   6.461 -0.0247 -0.1777  0.3417
   77SLPC   O11 6952   1.459   1.108   6.543 -0.1799  0.2775  0.5035
   77SLPC    C1 6953   1.424   1.251   6.565 -0.7669 -0.0789  0.1770
   77SLPC    HA 6954   1.514   1.312   6.542 -0.4626 -0.6946 -0.2911
   77SLPC    HB 6955   1.346   1.264   6.487 -1.3645 -0.2242  0.7541
   77SLPC    C2 6956   1.370   1.295   6.710  0.2133 -0.6055  0.2043
   77SLPC    HS 6957   1.432   1.382   6.739 -1.1365  1.0204 -1.6976
   77SLPC   O21 6958   1.379   1.181   6.805 -0.3040  0.0415  0.0867
   77SLPC   C21 6959   1.506   1.151   6.843 -0.4692  0.4210 -0.1004
   77SLPC   O22 6960   1.604   1.220   6.826 -0.0722 -0.1229  0.2749
   77SLPC   C22 6961   1.491   1.019   6.927 -0.2086 -0.2522  0.3131
   77SLPC   H2R 6962   1.382   1.022   6.950 -0.7454  0.4944 -2.1302
   77SLPC   H2S 6963   1.505   0.946   6.844  0.3108  0.7394 -0.4896
   77SLPC    C3 6964   1.226   1.337   6.695 -0.2098 -0.2301 -0.6612
   77SLPC    HX 6965   1.170   1.270   6.625 -1.2947  1.0684 -1.0664
   77SLPC    HY 6966   1.219   1.435   6.644  0.6213  0.5147  0.6414
   77SLPC   O31 6967   1.158   1.330   6.823  0.3980  0.3410 -0.5124
   77SLPC   C31 6968   1.159   1.445   6.878  0.0375  0.5034  0.7453
   77SLPC   O32 6969   1.195   1.550   6.823 -0.5355 -0.0131  0.0147
   77SLPC   C32 6970   1.117   1.437   7.027  0.2563 -0.5434  0.2885
   77SLPC   H2X 6971   1.007   1.439   7.043  0.2328 -0.6243  0.1293
   77SLPC   H2Y 6972   1.164   1.524   7.078 -2.3094  2.4994 -2.3005
   77SLPC   C23 6973   1.584   0.994   7.046  0.0135  0.2415  0.7140
   77SLPC   H3R 6974   1.684   1.033   7.018 -0.9226  1.3045 -1.2623
   77SLPC   H3S 6975   1.590   0.885   7.067  2.2934  0.4659  1.3380
   77SLPC   C24 6976   1.535   1.047   7.187  0.0357 -0.3266 -0.4002
   77SLPC   H4R 6977   1.448   0.983   7.211 -1.4541  1.6842 -0.2980
   77SLPC   H4S 6978   1.521   1.157   7.184 -0.7886 -0.4041  0.3964
   77SLPC   C25 6979   1.644   1.020   7.294  0.1881 -0.4050  0.4313
   77SLPC   H5R 6980   1.725   1.092   7.270  2.8941 -3.1210  1.1685
   77SLPC   H5S 6981   1.683   0.916   7.293  0.5024 -0.2855 -0.6137
   77SLPC   C26 6982   1.592   1.061   7.436 -0.4160 -0.2183 -0.1771
   77SLPC   H6R 6983   1.550   0.969   7.480 -2.3774 -0.2211 -1.9927
   77SLPC   H6S 6984   1.500   1.123   7.423  0.6983  1.3965 -0.6036
   77SLPC   C27 6985   1.697   1.116   7.535  0.4397 -0.3164 -0.5297
   77SLPC   H7R 6986   1.705   1.226   7.526  1.5111 -0.1568  2.0420
   77SLPC   H7S 6987   1.797   1.078   7.503  0.9597  0.1983  0.4758
   77SLPC   C28 6988   1.679   1.077   7.684 -0.7346  0.3357  0.3848
   77SLPC   H8R 6989   1.782   1.081   7.727  0.1746 -0.2749 -1.6630
   77SLPC   H8S 6990   1.638   0.975   7.697 -3.9714  1.5684  0.1370
   77SLPC   C29 6991   1.585   1.160   7.766 -0.2872  0.0785  0.1467
   77SLPC   H9R 6992   1.483   1.165   7.724  0.0696  0.1230 -0.7095
   77SLPC  C210 6993   1.605   1.222   7.892  0.1563 -0.5530 -0.1033
   77SLPC  H10R 6994   1.528   1.274   7.951  0.4430 -1.3421  0.9654
   77SLPC  C211 6995   1.740   1.215   7.964  0.1964 -0.5231 -0.5900
   77SLPC  H11R 6996   1.817   1.168   7.899 -0.9868 -2.8378 -0.3400
   77SLPC  H11S 6997   1.742   1.144   8.049  0.2090 -0.9966 -0.9859
   77SLPC  C212 6998   1.797   1.347   8.014 -0.3926  0.2160 -0.0186
   77SLPC  H12R 6999   1.766   1.435   7.956 -1.0635 -0.7154 -1.0913
   77SLPC  C213 7000   1.875   1.364   8.122 -0.3016 -0.3115 -0.2546
   77SLPC  H13R 7001   1.892   1.471   8.140 -0.3968  0.4816 -4.3990
   77SLPC  C214 7002   1.936   1.261   8.211  0.0863 -0.1899  0.6044
   77SLPC  H14R 7003   1.946   1.160   8.166 -0.7759  0.0158 -0.0669
   77SLPC  H14S 7004   1.897   1.251   8.314 -1.3045  2.0884  0.3319
   77SLPC  C215 7005   2.083   1.304   8.228 -0.4300 -0.4624 -0.1622
   77SLPC  H15R 7006   2.091   1.410   8.260 -1.9932 -0.1573 -0.7608
   77SLPC  H15S 7007   2.121   1.309   8.124  0.0249 -0.1471  0.0169
   77SLPC  C216 7008   2.159   1.203   8.323 -0.0084  0.4878  0.8789
   77SLPC  H16R 7009   2.270   1.212   8.321  0.1843 -1.6826  1.2890
   77SLPC  H16S 7010   2.133   1.103   8.282  0.6860  0.3525  0.7674
   77SLPC  C217 7011   2.135   1.228   8.467  0.2014 -0.6353 -0.0471
   77SLPC  H17R 7012   2.030   1.202   8.494  0.3396 -0.6169  0.5172
   77SLPC  H17S 7013   2.147   1.329   8.512  0.6471 -1.0678  0.8225
   77SLPC  C218 7014   2.210   1.118   8.548 -0.4142  0.0876 -0.2831
   77SLPC  H18R 7015   2.207   1.013   8.511  1.8972 -0.5185  1.1433
   77SLPC  H18S 7016   2.175   1.111   8.653  2.8765 -0.2049  0.8665
   77SLPC  H18T 7017   2.314   1.154   8.558 -0.7418  0.6081  1.3347
   77SLPC   C33 7018   1.173   1.311   7.095 -1.1223 -0.3211 -0.1476
   77SLPC   H3X 7019   1.280   1.305   7.067 -1.0108  1.1397 -0.0669
   77SLPC   H3Y 7020   1.136   1.212   7.061  1.5638 -1.8854  1.3270
   77SLPC   C34 7021   1.161   1.318   7.253  0.2332  0.2617  0.4635
   77SLPC   H4X 7022   1.052   1.321   7.275 -0.6038 -0.8602 -3.1473
   77SLPC   H4Y 7023   1.214   1.409   7.289 -0.0793  0.9107 -0.6778
   77SLPC   C35 7024   1.219   1.183   7.307 -0.5138  0.2219 -0.3335
   77SLPC   H5X 7025   1.322   1.193   7.267 -1.0452  0.7295 -1.6003
   77SLPC   H5Y 7026   1.178   1.091   7.260  2.4158 -1.3850  0.1479
   77SLPC   C36 7027   1.219   1.186   7.455 -0.6426 -0.3857 -0.5841
   77SLPC   H6X 7028   1.271   1.274   7.496 -0.3167 -0.6783 -0.3635
   77SLPC   H6Y 7029   1.283   1.099   7.483 -0.0064  0.4883  0.6721
   77SLPC   C37 7030   1.088   1.170   7.521 -0.1588 -0.2432  0.2493
   77SLPC   H7X 7031   1.031   1.094   7.463 -0.3389 -0.7038  1.0190
   77SLPC   H7Y 7032   1.030   1.265   7.519 -1.5328 -1.0698  0.0328
   77SLPC   C38 7033   1.093   1.110   7.666  0.2376 -0.3569  0.0430
   77SLPC   H8X 7034   1.069   1.194   7.734  0.9353 -0.9020  0.9652
   77SLPC   H8Y 7035   1.188   1.057   7.687  1.2065  0.7648 -1.4301
   77SLPC   C39 7036   0.972   1.021   7.679  0.2095  0.8867  0.0545
   77SLPC   H9X 7037   0.968   0.945   7.597 -0.5409 -0.8810  1.6925
   77SLPC   H9Y 7038   0.880   1.082   7.687 -0.5835 -0.4692  1.6877
   77SLPC  C310 7039   0.989   0.929   7.796 -0.2460  0.1765 -0.2557
   77SLPC  H10X 7040   1.074   0.868   7.761 -1.2225 -1.3990  0.1019
   77SLPC  H10Y 7041   0.905   0.857   7.793 -3.1958  3.4695 -1.4898
   77SLPC  C311 7042   1.010   0.983   7.939  0.0192 -0.2385 -0.1902
   77SLPC  H11X 7043   0.929   1.049   7.977  1.6268  2.2322 -0.9444
   77SLPC  H11Y 7044   1.097   1.053   7.946 -0.1018  0.0479 -1.4211
   77SLPC  C312 7045   1.046   0.876   8.043 -0.2302 -0.2366 -0.3600
   77SLPC  H12X 7046   0.972   0.793   8.048  1.3019 -1.5827  0.8225
   77SLPC  H12Y 7047   1.042   0.915   8.147 -0.3851 -0.2408 -0.3671
   77SLPC  C313 7048   1.164   0.785   8.016  0.5257  0.0432  0.8953
   77SLPC  H13X 7049   1.249   0.846   7.979  1.4498 -0.9626  1.3004
   77SLPC  H13Y 7050   1.149   0.705   7.940 -1.5511  0.9330  0.3535
   77SLPC  C314 7051   1.216   0.700   8.131 -0.1792 -0.0753 -0.6670
   77SLPC  H14X 7052   1.298   0.642   8.084  2.7757  1.6295  2.0946
   77SLPC  H14Y 7053   1.141   0.631   8.174  0.8208 -2.0492 -2.0223
   77SLPC  C315 7054   1.281   0.779   8.245 -0.1279 -0.3920  0.8740
   77SLPC  H15X 7055   1.280   0.729   8.344 -0.6735 -0.5064  0.8158
   77SLPC  H15Y 7056   1.223   0.873   8.258 -0.0278 -0.2343  0.2015
   77SLPC  C316 7057   1.425   0.819   8.217 -0.0017 -0.9896 -0.6578
   77SLPC  H16X 7058   1.436   0.839   8.109 -1.3511 -0.0242 -0.6224
   77SLPC  H16Y 7059   1.491   0.734   8.248  0.5451  0.2629  1.7517
   77SLPC  C317 7060   1.477   0.946   8.284 -0.5568 -0.2165 -0.0434
   77SLPC  H17X 7061   1.464   0.913   8.390 -0.7340 -0.0068  0.0004
   77SLPC  H17Y 7062   1.405   1.028   8.267 -0.1186  0.2352  0.2602
   77SLPC  C318 7063   1.616   0.968   8.239 -0.3725 -0.3155 -0.1583
   77SLPC  H18X 7064   1.621   0.959   8.129  0.6002  0.4928 -0.1877
   77SLPC  H18Y 7065   1.695   0.896   8.270  0.3138  1.0983  1.4614
   77SLPC  H18Z 7066   1.660   1.066   8.268 -0.4646  0.2327 -1.8681
   78SLPC     N 7067   4.293   2.046   6.084  0.2612  0.1511  0.5439
   78SLPC   C13 7068   4.398   2.014   5.982  0.1418 -0.0691  0.1688
   78SLPC  H13A 7069   4.411   2.095   5.912  3.3752  0.8050  1.6873
   78SLPC  H13B 7070   4.498   1.994   6.017 -0.2856 -1.2674  0.7635
   78SLPC  H13C 7071   4.374   1.925   5.925 -0.2642 -1.0412  1.8157
   78SLPC   C14 7072   4.161   2.064   6.010 -0.2634 -0.1138  0.3333
   78SLPC  H14A 7073   4.164   2.150   5.945  0.0544  1.4372  2.3524
   78SLPC  H14B 7074   4.133   1.974   5.959  1.9548  0.2072 -1.4969
   78SLPC  H14C 7075   4.086   2.092   6.084 -0.3147  0.4915  0.0558
   78SLPC   C15 7076   4.329   2.164   6.168  0.5191  0.8638 -0.2034
   78SLPC  H15A 7077   4.319   2.250   6.103 -2.4923 -2.0209 -3.8562
   78SLPC  H15B 7078   4.252   2.186   6.241  1.5445 -0.0143  1.1563
   78SLPC  H15C 7079   4.426   2.149   6.213 -0.4185 -2.8910  0.7302
   78SLPC   C12 7080   4.281   1.926   6.180  0.1287  0.2446  0.1278
   78SLPC  H12A 7081   4.375   1.886   6.216 -0.1629  0.3576  1.0330
   78SLPC  H12B 7082   4.243   1.840   6.126 -1.6456  1.6555 -0.9225
   78SLPC   C11 7083   4.196   1.937   6.312 -0.1400 -0.0537 -0.1002
   78SLPC  H11A 7084   4.249   2.013   6.374  1.1244  0.0482 -1.2913
   78SLPC  H11B 7085   4.196   1.833   6.351 -1.4313 -0.7491 -1.9296
   78SLPC     P 7086   3.988   2.081   6.377 -0.0390  0.3951  0.4384
   78SLPC   O13 7087   4.065   2.203   6.374  0.2907  0.3104 -0.1265
   78SLPC   O14 7088   3.848   2.088   6.343  0.0673 -0.0207  0.9437
   78SLPC   O12 7089   4.057   1.971   6.286 -0.2580 -1.0243  0.0125
   78SLPC   O11 7090   4.017   2.007   6.516  0.1428 -0.0112  0.0538
   78SLPC    C1 7091   3.926   1.906   6.553 -0.5907  0.3407  0.4121
   78SLPC    HA 7092   3.829   1.956   6.576 -0.7316  1.1581 -1.7533
   78SLPC    HB 7093   3.914   1.828   6.475  1.4372  0.4709 -0.0691
   78SLPC    C2 7094   3.966   1.844   6.687 -0.2219  0.0306  0.2943
   78SLPC    HS 7095   3.940   1.923   6.761  0.0581  0.1652  0.2486
   78SLPC   O21 7096   4.112   1.812   6.687 -0.7173 -0.3880 -0.3940
   78SLPC   C21 7097   4.169   1.826   6.804 -0.1506 -0.0334  0.0876
   78SLPC   O22 7098   4.123   1.861   6.909 -0.3901  0.7138  0.0065
   78SLPC   C22 7099   4.305   1.759   6.790  0.2966  0.2767  0.6965
   78SLPC   H2R 7100   4.287   1.651   6.769  1.6370 -0.1528  1.7274
   78SLPC   H2S 7101   4.354   1.808   6.703 -1.6212  0.4987 -0.2838
   78SLPC    C3 7102   3.879   1.719   6.723  0.1675 -0.6489  0.0002
   78SLPC    HX 7103   3.924   1.632   6.673 -1.6769 -0.1868 -2.5304
   78SLPC    HY 7104   3.776   1.728   6.683 -0.2383 -3.1334  0.4129
   78SLPC   O31 7105   3.869   1.695   6.869 -0.0335 -0.5780  0.4053
   78SLPC   C31 7106   3.810   1.787   6.943 -0.0066  0.1499 -0.0747
   78SLPC   O32 7107   3.740   1.879   6.901 -0.1101 -0.5268  0.1223
   78SLPC   C32 7108   3.821   1.757   7.094 -0.7429  0.5335  0.4527
   78SLPC   H2X 7109   3.916   1.700   7.111 -0.9192 -0.5705 -1.9581
   78SLPC   H2Y 7110   3.745   1.680   7.120 -0.2528 -0.1890 -0.1966
   78SLPC   C23 7111   4.400   1.760   6.908  0.1419  0.1273 -0.2419
   78SLPC   H3R 7112   4.463   1.669   6.896 -2.5944 -1.7113 -1.2805
   78SLPC   H3S 7113   4.339   1.736   6.998 -0.9395 -0.7508 -1.1966
   78SLPC   C24 7114   4.479   1.890   6.919 -0.2243  0.3104 -0.0868
   78SLPC   H4R 7115   4.400   1.964   6.944 -0.5771  0.0851 -0.5489
   78SLPC   H4S 7116   4.523   1.928   6.824  0.2478  2.1458  0.8322
   78SLPC   C25 7117   4.593   1.892   7.021 -0.2161  0.1314  0.2028
   78SLPC   H5R 7118   4.676   1.824   6.994  3.1646  3.5833  1.4018
   78SLPC   H5S 7119   4.556   1.848   7.116  0.6436 -1.8796 -0.3670
   78SLPC   C26 7120   4.652   2.030   7.057  0.7755 -0.3922 -0.4479
   78SLPC   H6R 7121   4.692   2.071   6.962  1.0218  0.2023 -0.0903
   78SLPC   H6S 7122   4.730   2.002   7.131 -0.7098 -2.8107  0.2516
   78SLPC   C27 7123   4.552   2.135   7.109 -0.4541  0.3556 -0.7880
   78SLPC   H7R 7124   4.494   2.105   7.198 -0.7423 -2.8283 -1.9925
   78SLPC   H7S 7125   4.476   2.162   7.032 -0.2767 -0.9322 -1.4285
   78SLPC   C28 7126   4.620   2.267   7.158  0.0798 -0.0174 -0.4981
   78SLPC   H8R 7127   4.540   2.314   7.218  0.1075  0.0699 -0.5295
   78SLPC   H8S 7128   4.637   2.327   7.066  0.8702  0.1282 -0.2632
   78SLPC   C29 7129   4.751   2.262   7.235 -0.4360 -0.2298  0.2679
   78SLPC   H9R 7130   4.816   2.183   7.193 -0.5510  1.0487 -2.4593
   78SLPC  C210 7131   4.789   2.348   7.334 -0.1015 -0.5236  0.1684
   78SLPC  H10R 7132   4.892   2.333   7.371 -0.0317 -0.8965 -0.1712
   78SLPC  C211 7133   4.719   2.469   7.391  0.4381 -0.3788 -0.2637
   78SLPC  H11R 7134   4.627   2.430   7.439 -0.9485  1.7905 -1.1071
   78SLPC  H11S 7135   4.679   2.530   7.307 -0.5262 -0.2017  0.3157
   78SLPC  C212 7136   4.799   2.541   7.488 -0.2513 -0.2217  0.3883
   78SLPC  H12R 7137   4.890   2.587   7.446 -0.8267 -1.3301 -2.1235
   78SLPC  C213 7138   4.765   2.576   7.617  0.2624  0.5327  0.3496
   78SLPC  H13R 7139   4.846   2.637   7.659  1.1531 -0.3662 -0.0575
   78SLPC  C214 7140   4.647   2.541   7.699  1.2357  0.4978 -0.0746
   78SLPC  H14R 7141   4.691   2.469   7.771 -0.7828 -0.6660  0.0596
   78SLPC  H14S 7142   4.563   2.504   7.636  0.2142  2.0502  0.3530
   78SLPC  C215 7143   4.608   2.661   7.787 -0.6829  0.4685 -0.1733
   78SLPC  H15R 7144   4.551   2.738   7.731  0.1861 -1.6541 -4.1416
   78SLPC  H15S 7145   4.695   2.722   7.816 -1.1153  0.8912  0.2378
   78SLPC  C216 7146   4.541   2.619   7.922 -0.2722  0.5653  0.4778
   78SLPC  H16R 7147   4.525   2.710   7.985 -1.3817  0.9073 -0.2847
   78SLPC  H16S 7148   4.602   2.546   7.980 -0.4650 -1.2076 -1.4971
   78SLPC  C217 7149   4.407   2.559   7.918 -0.0352 -0.0442 -0.6114
   78SLPC  H17R 7150   4.366   2.529   8.017 -0.3958  2.7187  0.1122
   78SLPC  H17S 7151   4.428   2.467   7.859 -0.6185 -0.8468  0.4255
   78SLPC  C218 7152   4.306   2.651   7.842  0.3225 -0.5189  0.1278
   78SLPC  H18R 7153   4.235   2.586   7.787  2.4887 -3.3263  0.5340
   78SLPC  H18S 7154   4.344   2.715   7.761 -1.4204  1.4842  0.8354
   78SLPC  H18T 7155   4.254   2.726   7.905 -0.5253 -1.8988  1.1237
   78SLPC   C33 7156   3.817   1.882   7.178  0.4566 -0.7111  0.1492
   78SLPC   H3X 7157   3.729   1.947   7.163 -0.7623 -2.0812  1.2346
   78SLPC   H3Y 7158   3.907   1.947   7.167 -0.6807  1.1640  1.7881
   78SLPC   C34 7159   3.832   1.854   7.328 -0.1817 -0.3636  0.2736
   78SLPC   H4X 7160   3.940   1.830   7.338 -0.5183 -2.5976 -0.9263
   78SLPC   H4Y 7161   3.781   1.758   7.352  0.1890 -0.8553 -0.8662
   78SLPC   C35 7162   3.783   1.973   7.413 -0.5065  0.4006 -0.3406
   78SLPC   H5X 7163   3.695   2.025   7.368  0.5420  1.0874 -1.6688
   78SLPC   H5Y 7164   3.862   2.052   7.418  1.4441 -1.4504 -1.0980
   78SLPC   C36 7165   3.744   1.921   7.551  0.2927 -0.0371 -0.7086
   78SLPC   H6X 7166   3.658   1.853   7.535  1.8846 -1.7775 -2.1168
   78SLPC   H6Y 7167   3.736   1.999   7.630 -0.7815 -1.3890  0.5497
   78SLPC   C37 7168   3.867   1.842   7.611  0.1066 -0.3863  0.3876
   78SLPC   H7X 7169   3.961   1.900   7.617  1.2033 -1.7952 -2.3668
   78SLPC   H7Y 7170   3.889   1.750   7.552  0.4899  1.3417 -2.2741
   78SLPC   C38 7171   3.845   1.808   7.760 -0.0919 -0.4841 -0.4244
   78SLPC   H8X 7172   3.822   1.904   7.809 -1.0359  0.5394 -2.7656
   78SLPC   H8Y 7173   3.933   1.756   7.803  0.0980 -0.6386 -0.9877
   78SLPC   C39 7174   3.725   1.718   7.794  0.9873 -0.7985 -0.3612
   78SLPC   H9X 7175   3.762   1.631   7.737 -0.9390 -1.3585 -0.7857
   78SLPC   H9Y 7176   3.639   1.753   7.733  1.2283  0.4135 -0.0234
   78SLPC  C310 7177   3.709   1.691   7.942 -0.2450  0.4620 -0.1377
   78SLPC  H10X 7178   3.606   1.669   7.978  0.2020 -3.1290 -0.8433
   78SLPC  H10Y 7179   3.717   1.795   7.980 -0.0473 -0.4548  2.3609
   78SLPC  C311 7180   3.807   1.587   7.995 -0.5140 -0.3619  0.4876
   78SLPC  H11X 7181   3.912   1.606   7.963  0.0616 -5.7934 -1.4053
   78SLPC  H11Y 7182   3.795   1.493   7.936  1.0232  0.3678 -1.0215
   78SLPC  C312 7183   3.792   1.556   8.141 -0.4763  0.4728  0.0380
   78SLPC  H12X 7184   3.850   1.464   8.163 -2.4450 -0.5457  1.1748
   78SLPC  H12Y 7185   3.686   1.542   8.173  0.0569 -1.3415  1.0573
   78SLPC  C313 7186   3.840   1.670   8.232  0.4682 -0.5979 -0.0518
   78SLPC  H13X 7187   3.774   1.759   8.222  3.9738  2.2880  1.2333
   78SLPC  H13Y 7188   3.943   1.698   8.201  0.6945  0.1946  1.3617
   78SLPC  C314 7189   3.863   1.616   8.380  0.3875 -0.9087 -0.0694
   78SLPC  H14X 7190   3.925   1.693   8.431 -0.7569  1.7336 -2.5160
   78SLPC  H14Y 7191   3.922   1.522   8.378  1.0084 -0.5041 -0.9451
   78SLPC  C315 7192   3.729   1.594   8.446  0.6588 -0.2056 -0.0784
   78SLPC  H15X 7193   3.733   1.516   8.525 -0.0874  0.1674  0.3378
   78SLPC  H15Y 7194   3.654   1.548   8.379 -1.4919 -0.0345  2.1314
   78SLPC  C316 7195   3.678   1.732   8.499 -0.2775 -0.3284 -0.5379
   78SLPC  H16X 7196   3.573   1.704   8.524  1.1527 -3.8447  1.6868
   78SLPC  H16Y 7197   3.665   1.817   8.428  0.3585  1.2047  1.1432
   78SLPC  C317 7198   3.754   1.772   8.624  0.6287  0.2546 -0.6676
   78SLPC  H17X 7199   3.863   1.750   8.613  0.9975  1.7018  0.0332
   78SLPC  H17Y 7200   3.717   1.697   8.697  0.5483 -0.2863 -1.2553
   78SLPC  C318 7201   3.739   1.921   8.675  0.6437  0.7041 -0.0548
   78SLPC  H18X 7202   3.808   1.950   8.757 -0.7540 -0.7195  1.7022
   78SLPC  H18Y 7203   3.634   1.924   8.713  0.1358  0.4777 -1.4034
   78SLPC  H18Z 7204   3.733   1.988   8.587  0.4588  0.6995 -0.0471
   79SLPC     N 7205   0.750   4.549   6.173  0.0583  0.4671 -0.2888
   79SLPC   C13 7206   0.765   4.404   6.137 -0.1566  1.3202 -0.0078
   79SLPC  H13A 7207   0.871   4.386   6.131 -0.0098  1.3306  2.3944
   79SLPC  H13B 7208   0.714   4.343   6.210  0.1589  0.6807 -0.3201
   79SLPC  H13C 7209   0.723   4.379   6.040  0.1384  0.3860  0.1037
   79SLPC   C14 7210   0.616   4.597   6.146  0.4566 -0.8412 -0.5511
   79SLPC  H14A 7211   0.552   4.570   6.229  0.5340  1.2390  0.2139
   79SLPC  H14B 7212   0.610   4.703   6.130  0.6014 -1.0121 -1.7733
   79SLPC  H14C 7213   0.581   4.552   6.054  0.0668 -0.9856 -0.3308
   79SLPC   C15 7214   0.840   4.629   6.085  0.0573 -0.0736 -0.6635
   79SLPC  H15A 7215   0.814   4.729   6.116  1.0133  0.0764 -0.3459
   79SLPC  H15B 7216   0.939   4.599   6.113  0.0621  1.1147  0.6328
   79SLPC  H15C 7217   0.837   4.607   5.980  0.6610  0.7246 -0.8483
   79SLPC   C12 7218   0.791   4.558   6.319  0.2551 -0.1096  0.0047
   79SLPC  H12A 7219   0.712   4.520   6.383  0.7053  0.0620  0.6699
   79SLPC  H12B 7220   0.803   4.663   6.340  1.3385 -0.2853  0.2770
   79SLPC   C11 7221   0.929   4.499   6.355  0.4322  0.1809  0.4367
   79SLPC  H11A 7222   0.915   4.395   6.390 -0.9100 -0.1365 -0.9906
   79SLPC  H11B 7223   0.962   4.548   6.449  2.0108  1.6149 -0.8284
   79SLPC     P 7224   1.165   4.449   6.260  0.0189  0.6530 -0.0181
   79SLPC   O13 7225   1.123   4.325   6.199 -0.0610  0.4434  0.4438
   79SLPC   O14 7226   1.262   4.527   6.178  0.1342  0.0505 -0.1224
   79SLPC   O12 7227   1.035   4.527   6.264  0.4221  0.2695  0.7017
   79SLPC   O11 7228   1.214   4.438   6.409  0.0327  0.6765 -0.3332
   79SLPC    C1 7229   1.244   4.543   6.498 -1.0878  0.4615 -0.2629
   79SLPC    HA 7230   1.350   4.574   6.487 -1.0730  0.3546 -0.4148
   79SLPC    HB 7231   1.182   4.634   6.485  1.6493  2.1703 -1.7076
   79SLPC    C2 7232   1.248   4.503   6.648  0.0732 -0.1498  0.7803
   79SLPC    HS 7233   1.182   4.562   6.715  0.8467  2.6046 -0.8189
   79SLPC   O21 7234   1.386   4.504   6.708 -0.0614 -0.4482  0.7093
   79SLPC   C21 7235   1.422   4.633   6.744 -0.1503  0.3327  0.5003
   79SLPC   O22 7236   1.357   4.734   6.733 -0.2962 -0.6771 -0.4970
   79SLPC   C22 7237   1.559   4.616   6.810 -0.0012  0.1327 -0.3702
   79SLPC   H2R 7238   1.564   4.522   6.869 -0.4314 -0.8797 -1.9096
   79SLPC   H2S 7239   1.632   4.594   6.729  1.0054 -1.4081  0.9334
   79SLPC    C3 7240   1.186   4.362   6.661 -0.2232  0.1341 -0.0071
   79SLPC    HX 7241   1.248   4.292   6.601  1.2221  0.1760  1.3910
   79SLPC    HY 7242   1.093   4.363   6.601  0.7744 -1.2755 -1.6121
   79SLPC   O31 7243   1.169   4.335   6.801  0.2115 -0.1352 -0.4055
   79SLPC   C31 7244   1.098   4.226   6.811  0.6903  0.4025  0.2059
   79SLPC   O32 7245   1.055   4.156   6.721 -0.4714 -0.0980  0.5072
   79SLPC   C32 7246   1.051   4.207   6.955 -0.2149  0.1616  0.3815
   79SLPC   H2X 7247   1.067   4.294   7.023 -0.3812  1.9469 -1.7948
   79SLPC   H2Y 7248   1.124   4.131   6.989 -2.3294 -0.7590  2.9421
   79SLPC   C23 7249   1.610   4.749   6.885  0.1057  0.6231  0.4103
   79SLPC   H3R 7250   1.589   4.833   6.815  1.3123 -0.8146 -1.7570
   79SLPC   H3S 7251   1.720   4.746   6.901  0.0848  0.6426  0.5569
   79SLPC   C24 7252   1.546   4.772   7.020 -0.1589  0.0345  0.6702
   79SLPC   H4R 7253   1.435   4.769   7.014 -0.2463  0.5757  1.8930
   79SLPC   H4S 7254   1.572   4.877   7.045  1.3208 -0.9232  3.3934
   79SLPC   C25 7255   1.586   4.679   7.127 -0.0077 -0.1536 -0.3349
   79SLPC   H5R 7256   1.686   4.639   7.101 -0.4621 -1.2762 -0.3975
   79SLPC   H5S 7257   1.502   4.606   7.119 -0.5259  0.5200 -1.0857
   79SLPC   C26 7258   1.587   4.730   7.275  0.0789 -0.3898  0.4305
   79SLPC   H6R 7259   1.659   4.814   7.281 -0.7483  0.3587 -0.0869
   79SLPC   H6S 7260   1.612   4.653   7.352  0.0432 -1.1777 -0.3466
   79SLPC   C27 7261   1.455   4.797   7.314 -0.4073 -0.7223 -0.1207
   79SLPC   H7R 7262   1.378   4.717   7.314 -1.7127  0.5045  0.0565
   79SLPC   H7S 7263   1.428   4.883   7.248 -1.0659  0.4702  1.6549
   79SLPC   C28 7264   1.450   4.850   7.460  0.0501  0.3008  0.4820
   79SLPC   H8R 7265   1.350   4.895   7.474 -0.9966 -1.7209 -0.2781
   79SLPC   H8S 7266   1.529   4.928   7.466  0.6133 -0.2193 -0.1991
   79SLPC   C29 7267   1.495   4.750   7.565 -0.3360  0.1493 -0.3428
   79SLPC   H9R 7268   1.529   4.648   7.541  2.5867  0.9074  0.3617
   79SLPC  C210 7269   1.488   4.778   7.696 -0.9130 -0.0596 -0.4888
   79SLPC  H10R 7270   1.523   4.704   7.769  1.9420 -0.4342 -2.1661
   79SLPC  C211 7271   1.451   4.915   7.747  0.1468 -0.4898 -0.8465
   79SLPC  H11R 7272   1.439   4.984   7.661 -0.1972 -1.7750 -1.8616
   79SLPC  H11S 7273   1.534   4.955   7.808 -1.2167 -2.9762  2.8685
   79SLPC  C212 7274   1.329   4.908   7.834 -0.4485 -0.0672 -0.7510
   79SLPC  H12R 7275   1.238   4.938   7.780 -1.0084 -1.3572 -0.5279
   79SLPC  C213 7276   1.324   4.883   7.966 -0.6273  0.0293 -0.4807
   79SLPC  H13R 7277   1.220   4.887   8.001 -0.2127 -2.1419  1.0671
   79SLPC  C214 7278   1.442   4.853   8.052  0.2544 -0.4081 -0.0498
   79SLPC  H14R 7279   1.538   4.848   7.997  0.2557  0.4084 -0.1282
   79SLPC  H14S 7280   1.423   4.757   8.105 -1.0482 -0.6558 -0.9449
   79SLPC  C215 7281   1.457   4.966   8.158  0.1792  0.1252  0.0151
   79SLPC  H15R 7282   1.532   4.929   8.231 -0.8281 -2.2762 -0.1199
   79SLPC  H15S 7283   1.366   4.982   8.220  0.6321 -2.3337  1.3855
   79SLPC  C216 7284   1.519   5.098   8.110 -0.8813  0.8253 -0.2362
   79SLPC  H16R 7285   1.463   5.144   8.026  2.7896  2.4577 -1.8988
   79SLPC  H16S 7286   1.619   5.084   8.065 -0.7593  2.5047 -0.5282
   79SLPC  C217 7287   1.524   5.199   8.230  1.0647  0.4834  1.0030
   79SLPC  H17R 7288   1.584   5.153   8.312  2.1976  0.3068  0.0983
   79SLPC  H17S 7289   1.427   5.220   8.280 -0.0319 -0.1196 -0.8187
   79SLPC  C218 7290   1.582   5.335   8.198 -0.7086 -0.9616  0.4191
   79SLPC  H18R 7291   1.531   5.383   8.111  1.0959 -0.7350 -0.5643
   79SLPC  H18S 7292   1.691   5.336   8.174 -0.0824  2.9495  3.0498
   79SLPC  H18T 7293   1.579   5.392   8.293 -0.0334 -1.3239  0.6563
   79SLPC   C33 7294   0.903   4.150   6.972 -0.2653 -0.3122  0.6227
   79SLPC   H3X 7295   0.914   4.042   6.946  1.0684 -0.1533  0.5276
   79SLPC   H3Y 7296   0.830   4.208   6.910  1.3306 -1.2050 -2.1994
   79SLPC   C34 7297   0.857   4.157   7.115  0.0390  0.1456  0.4711
   79SLPC   H4X 7298   0.749   4.130   7.119  0.7385 -2.5639  1.7230
   79SLPC   H4Y 7299   0.864   4.263   7.146 -1.8290  0.6995 -0.8798
   79SLPC   C35 7300   0.928   4.063   7.215  0.6116  0.1630  0.7152
   79SLPC   H5X 7301   1.038   4.070   7.201  0.5715 -2.0118 -1.0479
   79SLPC   H5Y 7302   0.895   3.960   7.189  1.1688  0.2642 -0.4655
   79SLPC   C36 7303   0.898   4.103   7.361 -0.9637  0.4485  0.5224
   79SLPC   H6X 7304   0.787   4.111   7.367 -0.8342  1.4995  1.5612
   79SLPC   H6Y 7305   0.946   4.202   7.375  1.0885 -0.9039  3.5903
   79SLPC   C37 7306   0.961   4.018   7.472 -0.3636  0.5587  0.3709
   79SLPC   H7X 7307   1.072   4.018   7.460 -0.3237 -2.3460  0.3788
   79SLPC   H7Y 7308   0.929   3.913   7.453  2.1133 -0.0444 -0.7957
   79SLPC   C38 7309   0.931   4.071   7.609 -0.1649 -0.1433  0.1509
   79SLPC   H8X 7310   0.824   4.056   7.634 -0.7081 -0.1975 -2.0747
   79SLPC   H8Y 7311   0.950   4.180   7.601 -2.1870  0.2422  0.5116
   79SLPC   C39 7312   1.023   4.028   7.728  0.5317 -0.6564  0.0844
   79SLPC   H9X 7313   1.123   4.075   7.726  0.5345 -0.5830  1.6744
   79SLPC   H9Y 7314   1.044   3.919   7.734 -2.1225 -1.0802  2.8932
   79SLPC  C310 7315   0.950   4.067   7.871 -0.0489 -0.1654 -0.8307
   79SLPC  H10X 7316   0.922   4.174   7.865 -0.8279 -0.4837 -3.9769
   79SLPC  H10Y 7317   1.029   4.044   7.945 -0.0092  0.0101 -0.8202
   79SLPC  C311 7318   0.822   3.999   7.904 -0.1434  0.3635  0.1815
   79SLPC  H11X 7319   0.830   3.889   7.899 -0.3760  0.4111 -1.3823
   79SLPC  H11Y 7320   0.736   4.024   7.838 -1.3807 -1.9935  0.8246
   79SLPC  C312 7321   0.766   4.037   8.047 -0.5401  0.3336 -0.2442
   79SLPC  H12X 7322   0.663   3.998   8.066  0.1467 -1.9786 -1.0756
   79SLPC  H12Y 7323   0.758   4.148   8.051 -3.1536  0.1017  2.2157
   79SLPC  C313 7324   0.852   3.986   8.162 -0.6264  0.1652  0.5243
   79SLPC  H13X 7325   0.953   4.030   8.147 -0.0407 -0.6647  1.9765
   79SLPC  H13Y 7326   0.853   3.875   8.153 -0.0794 -0.0828  3.2389
   79SLPC  C314 7327   0.796   4.029   8.303 -0.2730  0.0131 -0.0324
   79SLPC  H14X 7328   0.796   4.140   8.307  2.1128  0.1145 -1.9864
   79SLPC  H14Y 7329   0.861   3.983   8.381  0.3395  0.2224 -0.4113
   79SLPC  C315 7330   0.647   3.986   8.328 -0.8778 -0.1872 -0.5906
   79SLPC  H15X 7331   0.575   4.047   8.270  1.7980  1.8828 -1.8171
   79SLPC  H15Y 7332   0.615   4.003   8.433 -0.8496 -1.4986 -0.3565
   79SLPC  C316 7333   0.626   3.835   8.297  0.6492 -0.1165 -0.4130
   79SLPC  H16X 7334   0.694   3.789   8.372  2.0046  2.2681 -0.1407
   79SLPC  H16Y 7335   0.654   3.812   8.191  0.6581  0.3144 -0.5041
   79SLPC  C317 7336   0.477   3.791   8.324 -0.1430 -0.4529  0.5573
   79SLPC  H17X 7337   0.458   3.693   8.276 -0.5030 -0.3173  0.4277
   79SLPC  H17Y 7338   0.421   3.875   8.279 -1.2766 -0.7435  1.3991
   79SLPC  C318 7339   0.444   3.784   8.477 -0.6139  0.4355 -0.1284
   79SLPC  H18X 7340   0.488   3.866   8.538  1.1809 -0.7004  0.1348
   79SLPC  H18Y 7341   0.500   3.697   8.518 -0.3240  1.0676  0.8161
   79SLPC  H18Z 7342   0.336   3.764   8.497 -0.5274 -1.4557 -1.4306
   80SLPC     N 7343   2.308   2.291   6.327  0.9940 -0.2011 -0.0976
   80SLPC   C13 7344   2.355   2.173   6.244 -0.0492  0.7474  0.5537
   80SLPC  H13A 7345   2.441   2.210   6.189 -0.2482 -1.1563 -1.0835
   80SLPC  H13B 7346   2.389   2.083   6.293  0.6594  1.0314  0.5949
   80SLPC  H13C 7347   2.283   2.139   6.172  0.2239  0.3863  0.4499
   80SLPC   C14 7348   2.183   2.244   6.400  0.2306  0.1231 -0.5640
   80SLPC  H14A 7349   2.097   2.242   6.334  0.6043 -1.4179 -1.0119
   80SLPC  H14B 7350   2.182   2.149   6.450 -1.6720 -0.3857 -1.5295
   80SLPC  H14C 7351   2.154   2.317   6.474 -1.0221 -1.0967  0.1625
   80SLPC   C15 7352   2.270   2.411   6.241 -0.4570  0.2505 -0.0824
   80SLPC  H15A 7353   2.355   2.449   6.186 -0.0787  0.2673  0.5041
   80SLPC  H15B 7354   2.201   2.382   6.164  0.0027 -0.3738 -0.2601
   80SLPC  H15C 7355   2.219   2.485   6.301 -0.6279  2.5905 -2.9941
   80SLPC   C12 7356   2.412   2.339   6.421  0.1608  0.1574  0.2772
   80SLPC  H12A 7357   2.362   2.411   6.484  0.4107 -0.6279  1.3904
   80SLPC  H12B 7358   2.487   2.399   6.371  0.1086  0.3674  0.4494
   80SLPC   C11 7359   2.489   2.247   6.516  0.4301 -1.1184 -0.0157
   80SLPC  H11A 7360   2.421   2.194   6.586  0.3890 -0.4502  0.4493
   80SLPC  H11B 7361   2.552   2.321   6.569 -0.2038 -2.3346  2.5262
   80SLPC     P 7362   2.714   2.174   6.386 -0.3243  0.3666  0.2405
   80SLPC   O13 7363   2.768   2.052   6.324 -0.1315  0.3319 -0.2123
   80SLPC   O14 7364   2.718   2.296   6.298  0.9002  0.2785 -0.6848
   80SLPC   O12 7365   2.572   2.148   6.450  0.1060 -0.1330  0.0795
   80SLPC   O11 7366   2.806   2.207   6.513 -0.2849 -1.1683 -0.5297
   80SLPC    C1 7367   2.853   2.111   6.607 -0.4225  0.6404  0.6360
   80SLPC    HA 7368   2.869   2.015   6.553 -0.9806  0.3934  0.9055
   80SLPC    HB 7369   2.951   2.141   6.647 -0.9152  2.4746  0.5203
   80SLPC    C2 7370   2.760   2.090   6.732  0.1163  0.7078  0.1656
   80SLPC    HS 7371   2.666   2.058   6.681 -1.3566  2.6635  1.5627
   80SLPC   O21 7372   2.741   2.213   6.796 -0.7553 -0.0871  0.0874
   80SLPC   C21 7373   2.620   2.230   6.845  0.1961 -0.1854 -0.1913
   80SLPC   O22 7374   2.528   2.155   6.829 -0.0994  0.2525 -0.8252
   80SLPC   C22 7375   2.620   2.361   6.925  0.5535 -0.5593  0.0776
   80SLPC   H2R 7376   2.674   2.340   7.020 -0.7932 -0.3494  0.9067
   80SLPC   H2S 7377   2.680   2.428   6.861  0.7636 -0.8049  0.0172
   80SLPC    C3 7378   2.811   1.980   6.820  0.2900  0.0032  0.5164
   80SLPC    HX 7379   2.916   2.008   6.845  0.6894 -1.8760  1.0103
   80SLPC    HY 7380   2.818   1.885   6.764  2.5866  0.8008 -0.5818
   80SLPC   O31 7381   2.745   1.965   6.946 -0.1455  0.2236  0.6694
   80SLPC   C31 7382   2.632   1.893   6.934  0.1119 -0.7527 -0.4943
   80SLPC   O32 7383   2.588   1.840   6.833  0.0267 -0.1591 -0.0506
   80SLPC   C32 7384   2.560   1.898   7.069 -0.4615 -0.5144  0.3380
   80SLPC   H2X 7385   2.461   1.852   7.047  0.4846 -2.3593 -0.1129
   80SLPC   H2Y 7386   2.530   2.002   7.096 -0.7110 -0.8440  1.3851
   80SLPC   C23 7387   2.494   2.433   6.954  0.8655 -0.4011 -0.1428
   80SLPC   H3R 7388   2.437   2.451   6.860  0.3933  1.8091  0.5307
   80SLPC   H3S 7389   2.515   2.529   7.005  0.4735 -0.3691 -0.0378
   80SLPC   C24 7390   2.395   2.356   7.048  0.6461  0.7556 -0.4257
   80SLPC   H4R 7391   2.352   2.269   6.994 -1.6868  0.7507  1.3283
   80SLPC   H4S 7392   2.299   2.407   7.071 -0.6223 -1.5068 -0.5705
   80SLPC   C25 7393   2.456   2.311   7.178 -0.5950  0.6402 -0.0557
   80SLPC   H5R 7394   2.497   2.405   7.220 -1.0957  0.7351  0.2276
   80SLPC   H5S 7395   2.553   2.259   7.166  0.7277  1.8374  4.3040
   80SLPC   C26 7396   2.362   2.235   7.272  0.2612 -0.0884  0.5820
   80SLPC   H6R 7397   2.337   2.145   7.212  1.6415 -0.1451  0.0842
   80SLPC   H6S 7398   2.264   2.288   7.277 -0.2168 -0.8523 -0.4906
   80SLPC   C27 7399   2.420   2.213   7.414 -0.8877  0.2516 -0.5272
   80SLPC   H7R 7400   2.452   2.314   7.449  0.9865 -0.4303 -0.2620
   80SLPC   H7S 7401   2.508   2.146   7.412 -1.6590 -0.7707 -0.7906
   80SLPC   C28 7402   2.321   2.140   7.513 -0.3206  0.3862 -0.0810
   80SLPC   H8R 7403   2.312   2.035   7.475 -0.3532 -0.6926  2.8034
   80SLPC   H8S 7404   2.220   2.186   7.521 -0.0590  1.2963 -1.7741
   80SLPC   C29 7405   2.389   2.111   7.645  0.6191  0.3817  0.2320
   80SLPC   H9R 7406   2.473   2.041   7.635  0.4898  0.4116 -1.2479
   80SLPC  C210 7407   2.362   2.164   7.761 -0.0087  0.8917  0.3228
   80SLPC  H10R 7408   2.420   2.125   7.847 -0.9398  0.0053  0.5467
   80SLPC  C211 7409   2.259   2.263   7.790  0.2644  0.2757 -0.1811
   80SLPC  H11R 7410   2.164   2.254   7.733 -0.2707 -1.8081  0.9466
   80SLPC  H11S 7411   2.302   2.363   7.771  0.2150  0.3639  0.1744
   80SLPC  C212 7412   2.206   2.245   7.936 -0.1147 -0.2970  0.1281
   80SLPC  H12R 7413   2.163   2.146   7.958  0.1550 -0.4136  0.1213
   80SLPC  C213 7414   2.219   2.338   8.031 -0.3383 -0.4968  0.1430
   80SLPC  H13R 7415   2.185   2.328   8.135  0.4311 -1.4248  0.3098
   80SLPC  C214 7416   2.276   2.475   8.015  0.2872 -0.9522 -0.2881
   80SLPC  H14R 7417   2.196   2.552   8.014  2.0289  0.9236  0.4250
   80SLPC  H14S 7418   2.332   2.485   7.919  0.7835  0.0795  0.0965
   80SLPC  C215 7419   2.387   2.508   8.122  0.1566 -0.0129  0.1605
   80SLPC  H15R 7420   2.462   2.578   8.080 -0.6876  1.3533  0.8736
   80SLPC  H15S 7421   2.444   2.415   8.142  2.4652  1.4753  0.6790
   80SLPC  C216 7422   2.323   2.579   8.243  1.0470  0.2719 -0.5065
   80SLPC  H16R 7423   2.230   2.536   8.287  0.1675  0.7171 -1.8927
   80SLPC  H16S 7424   2.287   2.679   8.210 -2.6425 -1.1597 -1.0663
   80SLPC  C217 7425   2.423   2.587   8.353 -0.1081  0.3335 -0.1172
   80SLPC  H17R 7426   2.521   2.626   8.318  1.2624 -1.1002  1.9973
   80SLPC  H17S 7427   2.424   2.484   8.396  0.6005  0.2785 -0.2628
   80SLPC  C218 7428   2.379   2.681   8.460  1.0094 -0.1841  0.5591
   80SLPC  H18R 7429   2.410   2.658   8.565 -2.1132  1.8493  1.9952
   80SLPC  H18S 7430   2.271   2.655   8.465  0.8101  0.1949 -1.3436
   80SLPC  H18T 7431   2.388   2.789   8.434  1.1927  0.2696  2.4185
   80SLPC   C33 7432   2.625   1.817   7.183 -0.4909  0.1967 -0.0079
   80SLPC   H3X 7433   2.698   1.879   7.240 -0.4580  0.6537 -0.5511
   80SLPC   H3Y 7434   2.682   1.728   7.150 -1.0211  0.8067 -2.6909
   80SLPC   C34 7435   2.526   1.775   7.289 -0.3871 -0.3386  0.0527
   80SLPC   H4X 7436   2.474   1.682   7.258  1.8932 -1.3102 -0.9780
   80SLPC   H4Y 7437   2.461   1.864   7.298  0.6652  0.5726 -1.1363
   80SLPC   C35 7438   2.592   1.746   7.422 -0.5940 -0.3680 -0.4176
   80SLPC   H5X 7439   2.667   1.823   7.453 -1.6670 -0.0540  1.5330
   80SLPC   H5Y 7440   2.656   1.657   7.405  0.5921  0.5999 -1.0617
   80SLPC   C36 7441   2.496   1.720   7.541  0.9021  0.1564 -0.5485
   80SLPC   H6X 7442   2.428   1.642   7.498  1.0328 -0.5677  0.5547
   80SLPC   H6Y 7443   2.429   1.805   7.568  0.0338 -0.6797 -0.0401
   80SLPC   C37 7444   2.577   1.677   7.659 -0.2447  0.3227  0.6443
   80SLPC   H7X 7445   2.664   1.623   7.616 -2.9751 -2.3834 -1.6303
   80SLPC   H7Y 7446   2.522   1.594   7.708 -0.7521  1.1152  1.4292
   80SLPC   C38 7447   2.609   1.798   7.749  0.0455 -0.4620 -0.4995
   80SLPC   H8X 7448   2.522   1.867   7.743 -0.2253 -0.4907  2.5444
   80SLPC   H8Y 7449   2.690   1.860   7.707 -0.6816  1.1152  0.3776
   80SLPC   C39 7450   2.641   1.751   7.895 -0.1403  0.3981  0.6555
   80SLPC   H9X 7451   2.721   1.676   7.880  0.5088  1.1319  0.4116
   80SLPC   H9Y 7452   2.555   1.698   7.941  0.0355  1.8586  2.7263
   80SLPC  C310 7453   2.697   1.870   7.981  0.3813  0.1210 -0.0107
   80SLPC  H10X 7454   2.609   1.928   8.015  1.0641  0.3152  1.4496
   80SLPC  H10Y 7455   2.753   1.941   7.917  2.3721  0.7003  2.2954
   80SLPC  C311 7456   2.794   1.825   8.098 -0.7046  0.1671  0.2144
   80SLPC  H11X 7457   2.822   1.915   8.158  0.7448 -1.1435  1.5603
   80SLPC  H11Y 7458   2.883   1.779   8.049 -0.1492  2.1072 -0.6308
   80SLPC  C312 7459   2.736   1.714   8.184  0.1706  0.0129 -0.3878
   80SLPC  H12X 7460   2.816   1.690   8.257  0.5051 -2.0709 -1.3754
   80SLPC  H12Y 7461   2.710   1.628   8.118  0.9238 -0.0390 -0.6290
   80SLPC  C313 7462   2.616   1.746   8.275  0.2048 -0.3118  0.3552
   80SLPC  H13X 7463   2.591   1.654   8.331  2.6800 -0.5410  1.1605
   80SLPC  H13Y 7464   2.535   1.780   8.206 -0.7642  0.6065  1.9089
   80SLPC  C314 7465   2.626   1.868   8.370 -0.5395 -0.8597 -0.6501
   80SLPC  H14X 7466   2.665   1.958   8.316 -0.8587  0.0378  0.6009
   80SLPC  H14Y 7467   2.702   1.843   8.447 -0.4758  0.9786 -0.0825
   80SLPC  C315 7468   2.491   1.894   8.433  0.4281  0.0979  0.0667
   80SLPC  H15X 7469   2.443   1.801   8.469  1.6758 -0.8987 -0.8345
   80SLPC  H15Y 7470   2.428   1.929   8.349  0.1095  1.3522  0.8068
   80SLPC  C316 7471   2.482   2.008   8.539 -1.0109 -0.9629  0.4776
   80SLPC  H16X 7472   2.520   2.104   8.497 -1.7519  0.6333  3.3289
   80SLPC  H16Y 7473   2.564   1.985   8.611  1.0516  3.2393 -0.3980
   80SLPC  C317 7474   2.345   2.029   8.607 -0.0698  0.1564 -0.4277
   80SLPC  H17X 7475   2.282   2.068   8.524  1.8783  4.2232 -0.1243
   80SLPC  H17Y 7476   2.365   2.113   8.676  0.2570  1.6538 -2.2859
   80SLPC  C318 7477   2.294   1.904   8.673  0.6151  0.6855 -0.0768
   80SLPC  H18X 7478   2.353   1.869   8.760 -1.8400 -2.3680  0.4307
   80SLPC  H18Y 7479   2.287   1.815   8.606 -0.1782 -0.1588  1.1051
   80SLPC  H18Z 7480   2.193   1.926   8.712  0.4237  0.0248 -0.1954
   81SAPS     N 7481   3.707   4.314  11.072 -0.5888 -0.0931  0.6378
   81SAPS   HN1 7482   3.632   4.246  11.050  0.4810 -1.7936  2.0596
   81SAPS   HN2 7483   3.685   4.404  11.023 -1.4180 -1.0411 -0.7576
   81SAPS   HN3 7484   3.789   4.271  11.024 -0.9633  0.6614 -0.7071
   81SAPS   C12 7485   3.720   4.323  11.220  1.0908 -0.2694  0.2906
   81SAPS  H12A 7486   3.756   4.225  11.248 -1.1996 -1.1391  0.2990
   81SAPS   C13 7487   3.817   4.438  11.269  0.1214  0.4174  0.1982
   81SAPS  O13A 7488   3.872   4.512  11.185  0.2281 -0.7972 -0.0096
   81SAPS  O13B 7489   3.866   4.433  11.383  0.6153  0.8370 -0.5670
   81SAPS   C11 7490   3.582   4.334  11.288 -0.2569 -0.2913  0.6535
   81SAPS  H11A 7491   3.536   4.424  11.242 -0.8786 -0.7174  0.4230
   81SAPS  H11B 7492   3.598   4.347  11.397 -0.6660  0.4498  0.6256
   81SAPS     P 7493   3.346   4.229  11.247  0.2182  0.1296  0.4371
   81SAPS   O13 7494   3.293   4.096  11.280 -0.3320 -0.5051  0.1643
   81SAPS   O14 7495   3.302   4.339  11.338 -0.3780 -0.0508 -0.0060
   81SAPS   O12 7496   3.498   4.217  11.253 -0.2192  0.0727  0.0980
   81SAPS   O11 7497   3.308   4.271  11.098 -0.0270 -0.5205  0.3877
   81SAPS    C1 7498   3.336   4.394  11.030  0.4187  0.2757 -0.3131
   81SAPS    HA 7499   3.305   4.476  11.098  3.8015 -0.3807  2.1519
   81SAPS    HB 7500   3.443   4.410  11.005  1.1900 -1.0818  1.9610
   81SAPS    C2 7501   3.249   4.400  10.901  0.0437  0.0622  1.0883
   81SAPS    HS 7502   3.147   4.374  10.937 -1.2376  3.9408  0.5060
   81SAPS   O21 7503   3.291   4.294  10.813 -0.4949  0.1900  0.3244
   81SAPS   C21 7504   3.186   4.250  10.738 -0.4861 -0.0969  0.4676
   81SAPS   O22 7505   3.072   4.285  10.748 -0.1053  0.4060 -0.8334
   81SAPS   C22 7506   3.242   4.145  10.641  0.7912  0.1344 -0.6699
   81SAPS   H2R 7507   3.346   4.161  10.605  1.9113 -0.1649  2.3337
   81SAPS   H2S 7508   3.260   4.055  10.703  2.5662  1.4860  0.8124
   81SAPS    C3 7509   3.233   4.544  10.833 -0.0043  0.7801  0.0841
   81SAPS    HX 7510   3.333   4.563  10.788  1.0233 -1.3763  1.3908
   81SAPS    HY 7511   3.225   4.626  10.908  0.7611 -0.3718  1.4485
   81SAPS   O31 7512   3.131   4.560  10.736  0.4244  0.2660 -0.2520
   81SAPS   C31 7513   3.116   4.672  10.684  0.2414  0.3094 -0.2438
   81SAPS   O32 7514   3.191   4.767  10.698  1.1015  0.2950 -0.0508
   81SAPS   C32 7515   3.002   4.672  10.589 -0.1343  0.0427 -0.1411
   81SAPS   H2X 7516   3.017   4.757  10.518 -0.5042 -0.0617 -0.3514
   81SAPS   H2Y 7517   2.910   4.703  10.643 -0.8868 -2.3387 -0.0036
   81SAPS   C23 7518   3.141   4.105  10.532 -0.2816  0.6023  0.0348
   81SAPS   H3R 7519   3.038   4.106  10.572  0.0603  0.0479  0.9531
   81SAPS   H3S 7520   3.164   4.004  10.489  2.1602  1.3789 -0.5602
   81SAPS   C24 7521   3.128   4.199  10.416 -0.4753 -0.5695 -0.2616
   81SAPS   H4R 7522   3.103   4.302  10.450  5.0222  0.8208  0.1452
   81SAPS   H4S 7523   3.042   4.172  10.353 -1.6595  1.6928  0.3172
   81SAPS   C25 7524   3.250   4.207  10.333  0.1499  0.0867  0.3802
   81SAPS   H5R 7525   3.342   4.237  10.386 -0.5649 -0.6665  2.0775
   81SAPS   C26 7526   3.265   4.161  10.203  0.1612  0.8426 -0.4038
   81SAPS   H6R 7527   3.368   4.165  10.164 -0.1697  1.3594 -1.2304
   81SAPS   C27 7528   3.166   4.092  10.107  0.2963 -0.1248 -0.1904
   81SAPS   H7R 7529   3.073   4.071  10.164 -0.2042  1.1228 -0.5159
   81SAPS   H7S 7530   3.215   3.994  10.089  0.5115 -0.0253 -0.1536
   81SAPS   C28 7531   3.134   4.164   9.981 -0.2994 -0.2961 -0.6237
   81SAPS   H8R 7532   3.040   4.221   9.983 -0.2076 -0.1797  0.5694
   81SAPS   C29 7533   3.211   4.157   9.867 -0.3019 -0.0845  0.1988
   81SAPS   H9R 7534   3.185   4.222   9.783  0.6521 -1.1772 -0.9735
   81SAPS  C210 7535   3.350   4.093   9.844  0.6381 -0.0848 -0.1931
   81SAPS  H10R 7536   3.395   4.054   9.938  1.1602  0.6949 -0.1192
   81SAPS  H10S 7537   3.424   4.168   9.811  0.2656  0.0787 -0.6708
   81SAPS  C211 7538   3.358   3.967   9.758 -0.2317  0.2952 -0.0418
   81SAPS  H11R 7539   3.337   3.871   9.807  1.5244 -0.8736 -1.4958
   81SAPS  C212 7540   3.394   3.959   9.627 -0.6368 -0.8097  0.4658
   81SAPS  H12R 7541   3.400   3.854   9.596 -0.1138 -0.5133 -0.4569
   81SAPS  C213 7542   3.437   4.068   9.534  0.1244  0.5122  0.3284
   81SAPS  H13R 7543   3.527   4.033   9.478 -0.0221 -0.2773  0.5803
   81SAPS  H13S 7544   3.467   4.159   9.590  1.4174 -0.6461  1.5631
   81SAPS  C214 7545   3.319   4.081   9.443  0.0909  0.0413 -0.4216
   81SAPS  H14R 7546   3.225   4.060   9.495 -0.4639  0.1262 -1.3899
   81SAPS  C215 7547   3.327   4.102   9.305 -1.0780 -0.9368 -0.7103
   81SAPS  H15R 7548   3.233   4.111   9.248 -0.9689 -0.8482 -0.8746
   81SAPS  C216 7549   3.462   4.137   9.241 -0.6041  0.2574 -0.1188
   81SAPS  H16R 7550   3.553   4.130   9.305 -0.9846  0.7547  0.4871
   81SAPS  H16S 7551   3.454   4.241   9.203  2.7449  0.1160 -1.3725
   81SAPS  C217 7552   3.486   4.045   9.125 -0.1131  0.5712  0.4013
   81SAPS  H17R 7553   3.386   4.039   9.077 -0.3476  1.8528  0.7165
   81SAPS  H17S 7554   3.509   3.943   9.163 -1.9414  0.1876  0.5441
   81SAPS  C218 7555   3.593   4.082   9.019  0.8195 -0.0984 -0.7424
   81SAPS  H18R 7556   3.689   4.096   9.072  0.0932  0.4909  0.4318
   81SAPS  H18S 7557   3.569   4.175   8.962 -0.0379  1.1720  1.6265
   81SAPS  C219 7558   3.589   3.962   8.914  0.3980 -0.0907 -0.2359
   81SAPS  H19R 7559   3.490   3.951   8.865  1.0098  0.7256 -1.6780
   81SAPS  H19S 7560   3.602   3.874   8.981 -0.6357 -0.8282 -0.9971
   81SAPS  C220 7561   3.709   3.967   8.822 -0.2500  0.5832 -0.0653
   81SAPS  H20R 7562   3.728   3.872   8.768 -0.0763  1.6642 -1.9620
   81SAPS  H20S 7563   3.797   4.014   8.870  1.0656 -0.7724 -1.0944
   81SAPS  H20T 7564   3.675   4.033   8.738  0.4791 -0.4371 -1.1751
   81SAPS   C33 7565   2.990   4.539  10.503  0.1637 -0.3065  0.2796
   81SAPS   H3X 7566   2.994   4.444  10.561 -0.3804  0.0986  0.9988
   81SAPS   H3Y 7567   3.081   4.545  10.440 -0.2025  3.5279 -0.0367
   81SAPS   C34 7568   2.868   4.527  10.416 -0.0364  0.0390  0.1078
   81SAPS   H4X 7569   2.780   4.512  10.481  0.1445  1.1755  0.6265
   81SAPS   H4Y 7570   2.883   4.429  10.365 -0.4009 -0.2664  0.5894
   81SAPS   C35 7571   2.854   4.646  10.317 -0.5332  0.3953 -0.4932
   81SAPS   H5X 7572   2.956   4.689  10.300 -0.3876  0.7279  1.0790
   81SAPS   H5Y 7573   2.802   4.719  10.383  1.8461  0.4029  1.4498
   81SAPS   C36 7574   2.775   4.624  10.190 -0.6912 -0.2371 -0.2480
   81SAPS   H6X 7575   2.704   4.708  10.174  0.0436  0.4986  0.2932
   81SAPS   H6Y 7576   2.713   4.533  10.194 -0.8490 -0.1078  0.2089
   81SAPS   C37 7577   2.869   4.610  10.068  0.6852 -0.2230 -0.0212
   81SAPS   H7X 7578   2.940   4.528  10.093 -1.5034 -2.4374 -0.7774
   81SAPS   H7Y 7579   2.910   4.713  10.066 -1.2513  0.5549 -0.4492
   81SAPS   C38 7580   2.804   4.588   9.935 -0.2789  0.5000 -0.6495
   81SAPS   H8X 7581   2.738   4.676   9.922 -0.3172  0.4877 -0.5398
   81SAPS   H8Y 7582   2.747   4.493   9.920 -0.9278  0.6069  1.0231
   81SAPS   C39 7583   2.895   4.583   9.812 -1.1452 -0.3333  0.2014
   81SAPS   H9X 7584   2.964   4.497   9.827 -2.9189 -1.8701 -0.4141
   81SAPS   H9Y 7585   2.943   4.683   9.808 -4.0973  1.1191 -0.1320
   81SAPS  C310 7586   2.812   4.562   9.687  0.3184  0.1647 -0.4579
   81SAPS  H10X 7587   2.739   4.646   9.683 -1.2993 -1.2587 -1.8647
   81SAPS  H10Y 7588   2.742   4.476   9.693  1.7348 -0.9308  0.7483
   81SAPS  C311 7589   2.880   4.549   9.548 -0.2396  0.0096 -0.2070
   81SAPS  H11X 7590   2.969   4.615   9.544  0.6205 -1.0442  1.1053
   81SAPS  H11Y 7591   2.806   4.580   9.471 -2.2148 -1.6557  0.9623
   81SAPS  C312 7592   2.924   4.412   9.505  0.3388 -0.1491  0.3054
   81SAPS  H12X 7593   2.835   4.346   9.518  1.0262 -1.0234  0.6880
   81SAPS  H12Y 7594   3.011   4.394   9.572  0.8210  0.3621 -0.1875
   81SAPS  C313 7595   2.974   4.403   9.357  0.6999  0.4444 -0.5020
   81SAPS  H13X 7596   3.024   4.306   9.337 -1.0725 -0.3757 -1.0648
   81SAPS  H13Y 7597   3.034   4.495   9.344 -0.6314  1.5447  0.9248
   81SAPS  C314 7598   2.857   4.411   9.263  0.1658 -0.0294 -0.2343
   81SAPS  H14X 7599   2.830   4.516   9.240  0.8523  0.1408 -0.2589
   81SAPS  H14Y 7600   2.773   4.355   9.311 -0.7480  1.8732  0.4235
   81SAPS  C315 7601   2.885   4.347   9.125 -0.7146  0.3170  0.5152
   81SAPS  H15X 7602   2.796   4.355   9.059  0.3381 -0.5073 -1.0481
   81SAPS  H15Y 7603   2.934   4.247   9.135  1.8766  1.5070  0.2132
   81SAPS  C316 7604   2.999   4.413   9.046 -0.1655 -0.4656 -0.0525
   81SAPS  H16X 7605   3.098   4.380   9.085  0.3695 -0.5796 -1.4742
   81SAPS  H16Y 7606   2.972   4.521   9.054 -3.2693 -1.1601 -0.7050
   81SAPS  C317 7607   3.006   4.377   8.891 -0.2372 -0.7527  0.0796
   81SAPS  H17X 7608   3.055   4.467   8.850 -0.4884 -0.4342  0.4681
   81SAPS  H17Y 7609   2.898   4.367   8.866 -1.0731  1.1345  2.7569
   81SAPS  C318 7610   3.066   4.245   8.849  0.3691 -0.2828  0.1380
   81SAPS  H18X 7611   3.165   4.230   8.897 -0.1241  1.7743  1.9036
   81SAPS  H18Y 7612   3.086   4.252   8.740  1.8032 -0.3662  0.3866
   81SAPS  H18Z 7613   3.010   4.154   8.880  0.2589 -0.5859 -0.9397
   82SAPS     N 7614   1.791   3.316  10.656  0.3036  0.1539 -0.2129
   82SAPS   HN1 7615   1.770   3.403  10.710 -0.7396  0.7403 -1.5604
   82SAPS   HN2 7616   1.894   3.299  10.651  0.2036 -0.8437  0.7557
   82SAPS   HN3 7617   1.767   3.316  10.555  1.0033  3.2652 -0.4426
   82SAPS   C12 7618   1.715   3.197  10.718  0.1064  0.2711 -0.4532
   82SAPS  H12A 7619   1.717   3.118  10.645  1.8898 -0.1478  0.0308
   82SAPS   C13 7620   1.771   3.119  10.840 -0.9026 -0.0491 -0.2030
   82SAPS  O13A 7621   1.850   3.189  10.904  0.0088 -0.5232  0.4699
   82SAPS  O13B 7622   1.705   3.027  10.887  0.5948 -0.2440  0.6486
   82SAPS   C11 7623   1.572   3.250  10.752  0.2783  0.1996  0.5970
   82SAPS  H11A 7624   1.585   3.336  10.821  0.9432 -1.3502  2.4590
   82SAPS  H11B 7625   1.527   3.166  10.810  0.8051 -0.9939 -0.6845
   82SAPS     P 7626   1.357   3.351  10.644  0.1313 -0.0371  0.3105
   82SAPS   O13 7627   1.316   3.316  10.781  0.1786  0.1316 -0.0708
   82SAPS   O14 7628   1.373   3.494  10.612 -0.5787  0.2811 -0.2887
   82SAPS   O12 7629   1.503   3.281  10.634  0.1943 -0.1249  0.1788
   82SAPS   O11 7630   1.263   3.267  10.546 -0.1346  0.5382  0.0884
   82SAPS    C1 7631   1.310   3.134  10.506  0.0738 -1.0649  0.3745
   82SAPS    HA 7632   1.356   3.085  10.594 -0.3341 -0.4947  0.9048
   82SAPS    HB 7633   1.224   3.074  10.469 -0.5574 -0.1804  0.3867
   82SAPS    C2 7634   1.416   3.140  10.379 -0.0255 -0.2998  0.3173
   82SAPS    HS 7635   1.460   3.242  10.377 -0.7352 -0.0105 -1.1952
   82SAPS   O21 7636   1.343   3.098  10.261 -0.4229 -0.6017 -0.0925
   82SAPS   C21 7637   1.281   3.206  10.209 -0.7286  0.1921  0.0573
   82SAPS   O22 7638   1.303   3.321  10.230 -0.3414  0.5143  0.3778
   82SAPS   C22 7639   1.183   3.150  10.113 -0.0195 -0.6233 -0.0843
   82SAPS   H2R 7640   1.239   3.088  10.040 -0.1064  0.6485 -1.2332
   82SAPS   H2S 7641   1.111   3.086  10.170 -1.2524 -0.0131 -0.9264
   82SAPS    C3 7642   1.532   3.047  10.391  0.6821  0.2662  0.2015
   82SAPS    HX 7643   1.483   2.947  10.394 -0.3593  0.6844 -1.9549
   82SAPS    HY 7644   1.578   3.060  10.491  0.9869 -1.1564  0.2516
   82SAPS   O31 7645   1.624   3.051  10.279  0.3505  0.0912  0.3647
   82SAPS   C31 7646   1.719   3.146  10.296  0.2322 -0.0279  0.2799
   82SAPS   O32 7647   1.721   3.226  10.385  0.5830 -0.6157  0.1489
   82SAPS   C32 7648   1.827   3.131  10.187 -0.2032  1.0239  0.3366
   82SAPS   H2X 7649   1.788   3.140  10.084  1.2155  2.7631 -0.0816
   82SAPS   H2Y 7650   1.865   3.029  10.210 -1.6457  0.1651 -1.0262
   82SAPS   C23 7651   1.093   3.246  10.031 -0.3442 -0.3997 -0.4348
   82SAPS   H3R 7652   1.136   3.347  10.014  0.6641 -0.5520  1.0626
   82SAPS   H3S 7653   0.996   3.270  10.080  0.2908  1.2662  0.0693
   82SAPS   C24 7654   1.078   3.181   9.898 -0.5792  0.0230 -0.4830
   82SAPS   H4R 7655   1.032   3.082   9.918 -0.8613 -0.4878 -3.3949
   82SAPS   H4S 7656   1.180   3.172   9.854  0.0664 -0.0979  1.0184
   82SAPS   C25 7657   0.988   3.256   9.807 -0.6401 -0.4332 -0.3947
   82SAPS   H5R 7658   0.916   3.324   9.855 -0.5436 -1.1323  0.7577
   82SAPS   C26 7659   1.003   3.263   9.674 -0.1062 -0.0721  0.4390
   82SAPS   H6R 7660   0.914   3.306   9.627 -0.2570 -0.7276  0.1133
   82SAPS   C27 7661   1.095   3.191   9.585  0.7685  0.1098 -0.3918
   82SAPS   H7R 7662   1.045   3.110   9.527 -1.2434  0.3216  0.9971
   82SAPS   H7S 7663   1.179   3.143   9.639  1.3124  1.3243 -0.1585
   82SAPS   C28 7664   1.130   3.285   9.472  0.2695 -0.3394  0.2634
   82SAPS   H8R 7665   1.239   3.301   9.480  0.2911 -0.6421  0.5923
   82SAPS   C29 7666   1.048   3.338   9.379  0.6428  0.3163 -0.0077
   82SAPS   H9R 7667   1.095   3.403   9.303 -1.1926  1.0179 -0.5837
   82SAPS  C210 7668   0.898   3.316   9.353  0.8544  0.3731  0.8709
   82SAPS  H10R 7669   0.844   3.397   9.406 -1.6415 -0.5178 -0.2385
   82SAPS  H10S 7670   0.865   3.223   9.404  0.2868  0.8467  1.3692
   82SAPS  C211 7671   0.873   3.311   9.206  0.5676  0.2894  0.0266
   82SAPS  H11R 7672   0.879   3.210   9.162  0.3001 -0.5982  1.9554
   82SAPS  C212 7673   0.840   3.414   9.126 -0.1631  0.2152  0.2463
   82SAPS  H12R 7674   0.825   3.402   9.017 -3.1234  2.2126  0.3597
   82SAPS  C213 7675   0.808   3.559   9.165 -0.7599 -0.2429  0.2112
   82SAPS  H13R 7676   0.703   3.560   9.199 -0.7868  1.6123  0.1150
   82SAPS  H13S 7677   0.814   3.624   9.075 -1.3603  0.4701  0.6868
   82SAPS  C214 7678   0.895   3.640   9.254  0.1241 -0.0391 -0.1475
   82SAPS  H14R 7679   1.000   3.631   9.222 -0.7499 -0.7931 -2.9326
   82SAPS  C215 7680   0.867   3.729   9.350  0.2630 -0.6142 -0.2921
   82SAPS  H15R 7681   0.950   3.769   9.409  0.0035  0.4446 -0.6311
   82SAPS  C216 7682   0.720   3.760   9.392 -0.3447 -0.6174 -0.4795
   82SAPS  H16R 7683   0.657   3.672   9.367 -1.4771  0.5790 -1.9212
   82SAPS  H16S 7684   0.676   3.842   9.331  0.1757  1.6469  2.1120
   82SAPS  C217 7685   0.713   3.783   9.541 -0.9056 -0.3554 -0.1176
   82SAPS  H17R 7686   0.607   3.790   9.573 -0.7243 -0.0123  0.4276
   82SAPS  H17S 7687   0.767   3.875   9.574  1.1265 -1.6437  0.2656
   82SAPS  C218 7688   0.773   3.673   9.631 -0.2081  0.0578 -0.0192
   82SAPS  H18R 7689   0.829   3.601   9.567 -2.3987 -2.0122  0.3244
   82SAPS  H18S 7690   0.687   3.614   9.671  1.0068 -1.0856  0.9725
   82SAPS  C219 7691   0.874   3.719   9.733 -0.8659 -0.2928 -0.1632
   82SAPS  H19R 7692   0.930   3.812   9.710 -1.2488 -0.0007  0.0812
   82SAPS  H19S 7693   0.955   3.647   9.758  0.9202  1.5647 -0.4332
   82SAPS  C220 7694   0.797   3.750   9.869 -0.2858 -0.1706  0.0305
   82SAPS  H20R 7695   0.854   3.812   9.942 -1.6174 -0.2559  1.1657
   82SAPS  H20S 7696   0.786   3.657   9.928 -1.5013  0.4329  0.7665
   82SAPS  H20T 7697   0.697   3.798   9.859  0.1542  0.3361 -2.1984
   82SAPS   C33 7698   1.955   3.211  10.212 -0.1160 -0.1481  0.2947
   82SAPS   H3X 7699   2.045   3.154  10.181 -0.6867 -0.4674 -0.7875
   82SAPS   H3Y 7700   1.973   3.229  10.320 -1.1718  1.3201  0.2442
   82SAPS   C34 7701   1.952   3.351  10.143  0.4566 -0.4175  0.0985
   82SAPS   H4X 7702   2.003   3.432  10.200 -0.0261 -1.7005  2.4163
   82SAPS   H4Y 7703   1.843   3.374  10.140  0.2532 -1.2474  0.8373
   82SAPS   C35 7704   2.015   3.348  10.004  0.8620  0.4478  0.1292
   82SAPS   H5X 7705   1.989   3.247   9.964  1.2054  0.6344 -0.5830
   82SAPS   H5Y 7706   2.126   3.341  10.013  0.5806 -0.0969  4.0455
   82SAPS   C36 7707   1.963   3.458   9.908 -0.1911  0.2358  0.0902
   82SAPS   H6X 7708   1.855   3.474   9.928 -0.0145  0.2806  1.0402
   82SAPS   H6Y 7709   1.988   3.430   9.803 -1.3624 -1.7240  0.3117
   82SAPS   C37 7710   2.035   3.594   9.931  0.3216  0.4155 -0.4634
   82SAPS   H7X 7711   2.138   3.566   9.962  0.3805 -0.6012 -1.5209
   82SAPS   H7Y 7712   1.979   3.640  10.015 -0.8872  1.3363 -1.7572
   82SAPS   C38 7713   2.031   3.682   9.804  0.7747  0.3504  0.2862
   82SAPS   H8X 7714   2.083   3.613   9.734 -0.8596  0.3069 -0.9084
   82SAPS   H8Y 7715   2.092   3.775   9.817  0.6295  0.9434 -2.8706
   82SAPS   C39 7716   1.895   3.718   9.752  1.0302  0.2830  0.0241
   82SAPS   H9X 7717   1.839   3.776   9.828  0.1814  0.7287 -0.9224
   82SAPS   H9Y 7718   1.829   3.628   9.751  2.0648 -0.4890 -0.8580
   82SAPS  C310 7719   1.892   3.796   9.619  0.0874 -0.0214  0.2088
   82SAPS  H10X 7720   1.961   3.882   9.635 -0.1854  0.0316  1.1515
   82SAPS  H10Y 7721   1.793   3.839   9.594 -0.6886 -1.1870  1.2119
   82SAPS  C311 7722   1.926   3.713   9.502 -0.2093  0.7011 -0.0446
   82SAPS  H11X 7723   2.020   3.657   9.516 -1.6638 -1.6536  0.6036
   82SAPS  H11Y 7724   1.954   3.789   9.425  0.6183 -0.5389 -0.9910
   82SAPS  C312 7725   1.814   3.621   9.451  0.1851 -0.0590 -0.8083
   82SAPS  H12X 7726   1.813   3.620   9.340 -1.9440 -5.3794 -0.9163
   82SAPS  H12Y 7727   1.718   3.670   9.475  0.2759  0.2693 -1.1124
   82SAPS  C313 7728   1.821   3.477   9.501  0.1044  1.2233  0.0556
   82SAPS  H13X 7729   1.826   3.479   9.612  1.2291 -1.2565  0.0851
   82SAPS  H13Y 7730   1.914   3.424   9.472 -0.4710 -0.5561  1.2969
   82SAPS  C314 7731   1.703   3.400   9.457  0.2499  0.7234 -0.9293
   82SAPS  H14X 7732   1.709   3.396   9.346  2.2399  4.5114 -1.0378
   82SAPS  H14Y 7733   1.605   3.446   9.482 -1.1866 -3.7852  2.2941
   82SAPS  C315 7734   1.674   3.274   9.552 -0.5863 -0.7138  0.6845
   82SAPS  H15X 7735   1.778   3.238   9.569 -0.0986  1.5241  2.6957
   82SAPS  H15Y 7736   1.616   3.198   9.493  0.2326  1.3898 -2.9780
   82SAPS  C316 7737   1.603   3.309   9.679  0.3624  0.2279 -0.0522
   82SAPS  H16X 7738   1.497   3.320   9.650  0.3221  0.7206  0.2753
   82SAPS  H16Y 7739   1.641   3.408   9.711 -1.4995  0.5469  1.2089
   82SAPS  C317 7740   1.632   3.218   9.796 -0.9237  0.4014  0.8599
   82SAPS  H17X 7741   1.738   3.233   9.829  0.2062  0.6199 -2.7346
   82SAPS  H17Y 7742   1.626   3.112   9.763 -1.1936  1.1080 -1.3893
   82SAPS  C318 7743   1.554   3.247   9.927 -0.7164 -0.0297 -0.0967
   82SAPS  H18X 7744   1.592   3.177  10.005  2.8137  1.9630  0.0823
   82SAPS  H18Y 7745   1.446   3.236   9.905 -1.0119  1.3524  0.6387
   82SAPS  H18Z 7746   1.571   3.354   9.952  0.4866 -0.1827 -0.1962
   83SAPS     N 7747   3.770   4.783  11.208  0.0094 -0.2244  0.1937
   83SAPS   HN1 7748   3.819   4.692  11.223  0.0823 -0.5228 -1.6643
   83SAPS   HN2 7749   3.740   4.798  11.109  0.2317  3.1320  0.5948
   83SAPS   HN3 7750   3.836   4.857  11.238  0.0589 -1.0544  2.2261
   83SAPS   C12 7751   3.654   4.798  11.296  0.0083  0.3833 -0.1468
   83SAPS  H12A 7752   3.598   4.707  11.278 -0.6430  0.7031  0.2564
   83SAPS   C13 7753   3.681   4.800  11.445 -0.0368 -0.4564  0.2542
   83SAPS  O13A 7754   3.806   4.809  11.483  0.5950 -0.0082  0.1332
   83SAPS  O13B 7755   3.586   4.796  11.526 -0.4071 -0.6562 -0.5444
   83SAPS   C11 7756   3.560   4.921  11.254 -1.1057 -0.3303 -0.0117
   83SAPS  H11A 7757   3.617   5.015  11.267  1.8277 -2.2926  1.7504
   83SAPS  H11B 7758   3.470   4.930  11.319  0.1017  3.3840  1.2565
   83SAPS     P 7759   3.396   4.835  11.071 -0.5481 -0.3330  0.1011
   83SAPS   O13 7760   3.375   4.834  10.924 -0.7957 -0.0003  0.3083
   83SAPS   O14 7761   3.398   4.699  11.129  0.2628  0.1197 -0.0497
   83SAPS   O12 7762   3.533   4.915  11.109 -0.3121 -0.2351  0.3420
   83SAPS   O11 7763   3.284   4.917  11.139  0.1166 -0.1698 -0.2311
   83SAPS    C1 7764   3.166   4.877  11.206  0.4260  0.0051  0.5831
   83SAPS    HA 7765   3.183   4.787  11.269 -1.3294 -0.6091  0.1968
   83SAPS    HB 7766   3.153   4.965  11.274 -0.9063  1.1290 -1.0901
   83SAPS    C2 7767   3.048   4.850  11.101 -0.1489 -0.6580 -0.2872
   83SAPS    HS 7768   3.067   4.746  11.066 -0.7136 -0.9357  0.2281
   83SAPS   O21 7769   3.058   4.944  10.993 -0.4963 -0.0705  0.4139
   83SAPS   C21 7770   2.980   4.907  10.884 -0.1510 -0.4682 -0.3365
   83SAPS   O22 7771   2.921   4.806  10.874  0.2054 -0.0589  0.0554
   83SAPS   C22 7772   2.983   5.021  10.782  0.8894 -0.4566 -0.2734
   83SAPS   H2R 7773   2.990   5.120  10.831  1.1624 -1.8989  2.7017
   83SAPS   H2S 7774   3.080   5.006  10.729  0.6805  0.9015 -1.0629
   83SAPS    C3 7775   2.918   4.860  11.185  0.2368 -0.2301 -0.1995
   83SAPS    HX 7776   2.849   4.799  11.123  0.2199  0.7998 -1.2156
   83SAPS    HY 7777   2.890   4.967  11.175  0.6227  0.0658  1.7336
   83SAPS   O31 7778   2.941   4.815  11.320  0.4075 -0.7010 -0.2494
   83SAPS   C31 7779   2.854   4.728  11.365 -0.1213 -0.4121  0.6462
   83SAPS   O32 7780   2.751   4.691  11.312 -0.4004  0.4563  0.4650
   83SAPS   C32 7781   2.900   4.683  11.501 -0.3937 -0.2123  0.3440
   83SAPS   H2X 7782   2.935   4.759  11.573 -0.2694  0.0692 -0.0114
   83SAPS   H2Y 7783   2.992   4.625  11.477 -0.3016  0.0126  0.1536
   83SAPS   C23 7784   2.860   5.015  10.680  0.2485  0.4554 -0.1250
   83SAPS   H3R 7785   2.767   5.028  10.739  0.6218 -0.2825  0.6305
   83SAPS   H3S 7786   2.862   4.920  10.624 -0.8247 -0.1043  0.7681
   83SAPS   C24 7787   2.865   5.136  10.580 -0.2299 -0.5715  0.4734
   83SAPS   H4R 7788   2.842   5.228  10.638 -1.2197  1.4254 -2.9446
   83SAPS   H4S 7789   2.782   5.135  10.507  0.5159  2.4730 -0.4810
   83SAPS   C25 7790   2.995   5.162  10.514 -0.4124  0.8102 -0.0433
   83SAPS   H5R 7791   3.069   5.203  10.584 -1.2749  1.5411  0.4565
   83SAPS   C26 7792   3.013   5.163  10.382 -0.1179  0.0166  0.1101
   83SAPS   H6R 7793   3.117   5.191  10.357  0.1856 -1.2916 -0.1679
   83SAPS   C27 7794   2.913   5.148  10.271  0.5273  0.1699 -0.0378
   83SAPS   H7R 7795   2.808   5.151  10.307  0.2519 -4.2171 -0.2730
   83SAPS   H7S 7796   2.917   5.040  10.246 -4.1715  0.2432 -1.5469
   83SAPS   C28 7797   2.937   5.217  10.138  0.4413 -0.1462 -0.2348
   83SAPS   H8R 7798   3.007   5.301  10.152 -1.3935  1.3977 -0.0051
   83SAPS   C29 7799   2.875   5.180  10.022 -0.5383  0.0359 -0.3399
   83SAPS   H9R 7800   2.889   5.235   9.927  1.3537  2.9119  1.5239
   83SAPS  C210 7801   2.781   5.062  10.006 -0.0104  0.5282  0.0723
   83SAPS  H10R 7802   2.746   5.014  10.100  1.4907  0.5715  0.6599
   83SAPS  H10S 7803   2.831   4.980   9.951  1.0581  0.3033  1.3424
   83SAPS  C211 7804   2.662   5.100   9.925 -0.4923  1.0604  0.2450
   83SAPS  H11R 7805   2.621   5.192   9.971  0.6781  1.2641  0.9000
   83SAPS  C212 7806   2.622   5.053   9.806 -0.9561  0.7706  0.4125
   83SAPS  H12R 7807   2.539   5.102   9.753  0.7559 -0.0334 -3.1028
   83SAPS  C213 7808   2.691   4.944   9.733  0.1950 -0.8244  0.2777
   83SAPS  H13R 7809   2.675   4.850   9.790 -0.7343 -1.5352 -1.1208
   83SAPS  H13S 7810   2.800   4.967   9.736 -0.0169  0.1107  1.1693
   83SAPS  C214 7811   2.641   4.936   9.594  0.4891  0.0627  0.0338
   83SAPS  H14R 7812   2.538   4.898   9.591  0.7238 -0.7583  1.5410
   83SAPS  C215 7813   2.697   4.985   9.481  0.4169  0.9122 -0.0431
   83SAPS  H15R 7814   2.654   4.964   9.382  0.5785 -1.8727  0.4353
   83SAPS  C216 7815   2.830   5.055   9.483 -0.4075 -0.1176 -0.0969
   83SAPS  H16R 7816   2.843   5.112   9.578 -0.4587  0.8206 -0.6479
   83SAPS  H16S 7817   2.823   5.119   9.392  0.5370  0.9296  0.5487
   83SAPS  C217 7818   2.945   4.961   9.442  0.3057 -0.1898  0.1413
   83SAPS  H17R 7819   2.930   4.865   9.496  2.4641  0.3417  1.7386
   83SAPS  H17S 7820   3.031   5.021   9.481  0.9850 -0.6416 -0.6484
   83SAPS  C218 7821   2.967   4.939   9.295  0.3307 -0.1722 -0.5945
   83SAPS  H18R 7822   3.069   4.895   9.285 -0.3563 -1.8665 -0.2266
   83SAPS  H18S 7823   2.970   5.039   9.248  2.5361  0.7578  1.3911
   83SAPS  C219 7824   2.874   4.846   9.224  0.6908 -0.5831  0.1602
   83SAPS  H19R 7825   2.772   4.889   9.223  0.9097 -0.0683 -0.0930
   83SAPS  H19S 7826   2.862   4.752   9.282 -2.7563 -0.3744 -0.1154
   83SAPS  C220 7827   2.909   4.805   9.081  0.1713  0.2474 -0.1877
   83SAPS  H20R 7828   2.922   4.899   9.023 -2.0953  1.2324  0.8288
   83SAPS  H20S 7829   2.836   4.736   9.034  0.4241 -0.7731  0.9204
   83SAPS  H20T 7830   3.005   4.749   9.088  0.4920  0.7326 -0.6103
   83SAPS   C33 7831   2.793   4.587  11.565 -0.7563 -0.1744 -0.2860
   83SAPS   H3X 7832   2.781   4.509  11.487 -0.6304 -0.3685 -0.1105
   83SAPS   H3Y 7833   2.691   4.631  11.571 -0.1437  0.9997  2.2429
   83SAPS   C34 7834   2.845   4.538  11.698  0.6805 -0.2318  0.5162
   83SAPS   H4X 7835   2.849   4.622  11.771 -1.8642 -0.4601  0.9805
   83SAPS   H4Y 7836   2.950   4.504  11.692  0.6180 -0.2564 -0.4977
   83SAPS   C35 7837   2.764   4.418  11.739 -0.2974 -1.3111  0.5573
   83SAPS   H5X 7838   2.774   4.333  11.668 -2.0729 -0.4095 -0.8316
   83SAPS   H5Y 7839   2.655   4.438  11.727  0.1486  0.1045 -1.4295
   83SAPS   C36 7840   2.812   4.373  11.875  0.0481 -0.7913  0.2384
   83SAPS   H6X 7841   2.922   4.367  11.864 -0.0049  2.0760 -2.5630
   83SAPS   H6Y 7842   2.777   4.270  11.895 -0.8026 -0.3732  0.9886
   83SAPS   C37 7843   2.766   4.469  11.987 -0.8698 -0.5650  0.0948
   83SAPS   H7X 7844   2.780   4.578  11.968 -1.0258 -0.1388  2.2485
   83SAPS   H7Y 7845   2.824   4.433  12.075  0.8272  0.7539 -0.4562
   83SAPS   C38 7846   2.621   4.458  12.023  0.8684 -0.2022  0.4499
   83SAPS   H8X 7847   2.598   4.352  11.998 -0.3288  0.4839 -1.4820
   83SAPS   H8Y 7848   2.550   4.504  11.951  1.1271 -0.8707 -0.2502
   83SAPS   C39 7849   2.588   4.484  12.177  0.1745  0.2253 -0.1235
   83SAPS   H9X 7850   2.639   4.402  12.231  2.3504  1.9581  0.5363
   83SAPS   H9Y 7851   2.478   4.481  12.196 -0.0223  1.7430 -0.9145
   83SAPS  C310 7852   2.660   4.603  12.244 -0.4212 -0.7544 -0.0413
   83SAPS  H10X 7853   2.770   4.594  12.241 -0.5742 -3.1491  0.7556
   83SAPS  H10Y 7854   2.641   4.584  12.352 -0.1521  0.7153  0.2707
   83SAPS  C311 7855   2.605   4.743  12.199  0.0863  0.1356  0.2541
   83SAPS  H11X 7856   2.494   4.734  12.200  0.1836 -1.8271 -2.2369
   83SAPS  H11Y 7857   2.639   4.770  12.097  0.2733 -0.5932  0.1177
   83SAPS  C312 7858   2.649   4.860  12.288  0.2421  0.1711  0.2163
   83SAPS  H12X 7859   2.760   4.863  12.293  0.4752 -0.2373 -3.2169
   83SAPS  H12Y 7860   2.599   4.838  12.385 -0.7001  0.5182 -0.1868
   83SAPS  C313 7861   2.599   4.991  12.244  0.7786  0.6738 -0.2173
   83SAPS  H13X 7862   2.490   4.969  12.243  1.1018 -0.9672 -1.2434
   83SAPS  H13Y 7863   2.630   5.020  12.142 -1.0638  2.6821 -0.2525
   83SAPS  C314 7864   2.641   5.097  12.348  0.0413  0.1046  0.3221
   83SAPS  H14X 7865   2.747   5.127  12.338 -0.6839  2.5253 -0.3430
   83SAPS  H14Y 7866   2.631   5.055  12.450 -1.8337 -0.8775 -0.2259
   83SAPS  C315 7867   2.553   5.223  12.345  0.1974  0.8865  0.1293
   83SAPS  H15X 7868   2.562   5.299  12.426 -3.0873  2.7147 -1.1111
   83SAPS  H15Y 7869   2.450   5.184  12.357  0.8704 -0.5364  1.4870
   83SAPS  C316 7870   2.545   5.283  12.214 -0.7594  0.3264  0.5474
   83SAPS  H16X 7871   2.509   5.212  12.137 -0.4213  1.1491 -0.3736
   83SAPS  H16Y 7872   2.643   5.327  12.185 -1.4443  1.8783  0.4874
   83SAPS  C317 7873   2.445   5.406  12.195 -0.2973 -0.5469  0.0348
   83SAPS  H17X 7874   2.448   5.451  12.094 -2.6979 -2.6983 -1.0712
   83SAPS  H17Y 7875   2.469   5.479  12.276 -1.3389  2.7427 -2.4982
   83SAPS  C318 7876   2.297   5.369  12.217  0.6435 -0.1559 -0.1766
   83SAPS  H18X 7877   2.267   5.282  12.156  0.2867  1.0323 -1.7218
   83SAPS  H18Y 7878   2.232   5.451  12.180  0.1313 -0.3425  0.2960
   83SAPS  H18Z 7879   2.279   5.365  12.327 -0.9306  0.3115 -0.4089
   84SAPS     N 7880   4.869   4.441  11.176 -0.2657  0.3712  0.3680
   84SAPS   HN1 7881   4.937   4.519  11.188  3.6988 -2.8726  0.0912
   84SAPS   HN2 7882   4.805   4.451  11.258  0.5260  1.5461  0.8552
   84SAPS   HN3 7883   4.904   4.343  11.179 -0.1158  0.3343 -2.1618
   84SAPS   C12 7884   4.794   4.455  11.049 -0.7146 -0.7743 -0.4216
   84SAPS  H12A 7885   4.864   4.471  10.969  0.3548  0.4629  0.7222
   84SAPS   C13 7886   4.709   4.327  11.012 -0.5140 -0.2020  0.3113
   84SAPS  O13A 7887   4.708   4.228  11.087 -0.3463  0.3135  0.5076
   84SAPS  O13B 7888   4.678   4.322  10.895 -0.6626  0.6167 -0.1080
   84SAPS   C11 7889   4.706   4.585  11.051  0.8127  0.4449 -0.4773
   84SAPS  H11A 7890   4.641   4.586  11.141  1.8322  0.2690  0.2673
   84SAPS  H11B 7891   4.649   4.566  10.957  1.7799  0.0561 -0.9868
   84SAPS     P 7892   4.769   4.836  10.993  0.3297 -0.2535 -0.0343
   84SAPS   O13 7893   4.636   4.886  11.051  0.3877 -0.0541 -0.0818
   84SAPS   O14 7894   4.886   4.926  11.019 -0.1509 -0.1239  0.4890
   84SAPS   O12 7895   4.797   4.691  11.050  0.0654 -0.1062  0.7030
   84SAPS   O11 7896   4.756   4.821  10.835 -0.1549  0.0546 -0.0425
   84SAPS    C1 7897   4.827   4.730  10.753 -0.0712 -0.3923  0.0547
   84SAPS    HA 7898   4.805   4.623  10.773 -0.6869 -0.4735 -1.0186
   84SAPS    HB 7899   4.795   4.749  10.648 -1.8045 -0.4821  0.5570
   84SAPS    C2 7900   4.975   4.766  10.745 -0.8991  0.3131 -0.1085
   84SAPS    HS 7901   5.023   4.783  10.844 -2.6446 -0.4165  0.8796
   84SAPS   O21 7902   4.990   4.891  10.673  0.2640  0.2038 -0.5793
   84SAPS   C21 7903   5.108   4.949  10.672 -0.1715 -0.4640  0.5125
   84SAPS   O22 7904   5.205   4.922  10.737  0.1977  0.4380 -0.0827
   84SAPS   C22 7905   5.085   5.075  10.587  0.3380 -0.0663  0.2267
   84SAPS   H2R 7906   4.978   5.103  10.578  0.7251  1.3357 -0.1365
   84SAPS   H2S 7907   5.129   5.160  10.643 -0.0868  1.1090 -1.1973
   84SAPS    C3 7908   5.061   4.658  10.665 -0.2837  0.0934 -0.8016
   84SAPS    HX 7909   5.042   4.565  10.721  0.6765 -1.3838 -2.8743
   84SAPS    HY 7910   5.168   4.688  10.660 -0.2059 -0.3524 -2.0353
   84SAPS   O31 7911   5.028   4.646  10.522 -0.2887  0.2340 -0.2547
   84SAPS   C31 7912   4.932   4.557  10.492 -0.0565  0.5807 -0.4856
   84SAPS   O32 7913   4.895   4.468  10.566 -0.4483  0.0890  1.0201
   84SAPS   C32 7914   4.876   4.578  10.357 -0.2016 -0.0394 -0.7502
   84SAPS   H2X 7915   4.938   4.648  10.296 -1.2455 -1.6547 -3.7607
   84SAPS   H2Y 7916   4.786   4.642  10.368  0.4204  0.6081  0.7103
   84SAPS   C23 7917   5.133   5.051  10.443  1.0372  0.6088 -0.4578
   84SAPS   H3R 7918   5.234   5.005  10.449  0.4633 -1.0095 -2.4364
   84SAPS   H3S 7919   5.143   5.147  10.388  0.8026  0.0881 -1.4269
   84SAPS   C24 7920   5.034   4.977  10.351  0.5561  1.0991  0.1306
   84SAPS   H4R 7921   4.939   5.034  10.338 -1.3283 -2.2334 -1.6019
   84SAPS   H4S 7922   5.000   4.880  10.393  2.9692  0.6750  1.1235
   84SAPS   C25 7923   5.098   4.955  10.211  0.8189  0.6417 -0.2970
   84SAPS   H5R 7924   5.174   4.875  10.212  0.7899  0.6126  1.7839
   84SAPS   C26 7925   5.080   5.021  10.092  1.3498  0.1845 -0.8084
   84SAPS   H6R 7926   5.139   4.982  10.008 -0.1353 -0.9118 -1.3782
   84SAPS   C27 7927   4.987   5.135  10.071 -0.4021  0.0548  0.1753
   84SAPS   H7R 7928   5.041   5.212  10.012  1.1153 -1.4120 -0.3755
   84SAPS   H7S 7929   4.971   5.182  10.171 -1.5898  0.0037  0.0265
   84SAPS   C28 7930   4.865   5.092  10.001  0.7146 -0.6882  0.4554
   84SAPS   H8R 7931   4.801   5.043  10.076  0.7760 -0.7584  0.4615
   84SAPS   C29 7932   4.803   5.121   9.884  0.0427 -0.2332  0.3038
   84SAPS   H9R 7933   4.707   5.078   9.850 -1.9268  4.3650 -0.3030
   84SAPS  C210 7934   4.860   5.221   9.786 -0.1747 -0.6764 -0.1214
   84SAPS  H10R 7935   4.920   5.295   9.842  0.9986 -1.2802 -0.5689
   84SAPS  H10S 7936   4.776   5.289   9.764 -1.8335 -2.9008 -0.9010
   84SAPS  C211 7937   4.923   5.170   9.664 -0.0707  0.2123  0.2689
   84SAPS  H11R 7938   5.031   5.186   9.650 -0.3619  1.0812 -1.0982
   84SAPS  C212 7939   4.853   5.148   9.552 -0.0391 -0.2114 -0.1732
   84SAPS  H12R 7940   4.908   5.105   9.466  2.3304 -1.6178  1.9623
   84SAPS  C213 7941   4.704   5.170   9.534 -0.0960 -0.4207 -0.4651
   84SAPS  H13R 7942   4.696   5.254   9.462 -0.1201 -0.2380 -0.2527
   84SAPS  H13S 7943   4.647   5.192   9.627 -1.1665 -1.8257 -0.7819
   84SAPS  C214 7944   4.649   5.039   9.478  0.6443  0.2902  0.5212
   84SAPS  H14R 7945   4.699   4.948   9.516  0.9007  0.8861  1.6066
   84SAPS  C215 7946   4.556   5.035   9.376  0.2332 -0.1528  0.0655
   84SAPS  H15R 7947   4.529   4.938   9.333  1.9038 -0.0071 -1.3470
   84SAPS  C216 7948   4.488   5.153   9.314  0.1503  0.2689  0.5070
   84SAPS  H16R 7949   4.465   5.225   9.396 -0.5165 -0.2262  0.7620
   84SAPS  H16S 7950   4.391   5.116   9.274  0.6292 -1.8688  1.2798
   84SAPS  C217 7951   4.550   5.227   9.196 -0.2084  0.3983 -0.3409
   84SAPS  H17R 7952   4.577   5.148   9.122  0.6077  1.3075 -1.0132
   84SAPS  H17S 7953   4.627   5.300   9.229 -0.0011 -0.2424  0.6085
   84SAPS  C218 7954   4.446   5.317   9.118 -0.3056  0.3172  0.1352
   84SAPS  H18R 7955   4.499   5.370   9.036 -0.1418  0.1514  0.1350
   84SAPS  H18S 7956   4.403   5.383   9.196  0.5059  2.5949 -1.2679
   84SAPS  C219 7957   4.323   5.252   9.044  0.3618  0.6614 -0.4989
   84SAPS  H19R 7958   4.264   5.330   8.991  0.1912  1.8757  1.4096
   84SAPS  H19S 7959   4.242   5.209   9.108  0.5216  0.0148 -0.7285
   84SAPS  C220 7960   4.366   5.142   8.945  0.0671 -0.2485  0.0916
   84SAPS  H20R 7961   4.279   5.122   8.879 -0.9700  1.5035  0.8920
   84SAPS  H20S 7962   4.386   5.044   8.994 -2.9531 -1.2637 -0.5449
   84SAPS  H20T 7963   4.448   5.171   8.876  0.2794 -2.0690 -0.4372
   84SAPS   C33 7964   4.836   4.454  10.286  0.3040 -0.5136 -0.1051
   84SAPS   H3X 7965   4.758   4.398  10.342  0.3623 -1.6693 -1.1675
   84SAPS   H3Y 7966   4.911   4.373  10.278  1.0139  0.2719 -1.5904
   84SAPS   C34 7967   4.775   4.492  10.146  0.3921 -0.5445  0.1564
   84SAPS   H4X 7968   4.858   4.539  10.090  1.7203 -1.6021  1.2195
   84SAPS   H4Y 7969   4.692   4.564  10.163  0.5801 -0.1356 -0.6450
   84SAPS   C35 7970   4.712   4.370  10.072 -0.0216 -0.1050  0.4810
   84SAPS   H5X 7971   4.623   4.334  10.129 -0.0958  0.1363  0.5190
   84SAPS   H5Y 7972   4.792   4.297  10.050  0.2557  0.1464  0.6586
   84SAPS   C36 7973   4.658   4.416   9.932 -0.0923  0.2762 -0.0676
   84SAPS   H6X 7974   4.743   4.463   9.878 -1.2911  2.3361 -0.2099
   84SAPS   H6Y 7975   4.577   4.492   9.943 -0.5256  0.1089 -2.0128
   84SAPS   C37 7976   4.612   4.289   9.862 -0.2271 -0.4075 -0.5903
   84SAPS   H7X 7977   4.524   4.242   9.909 -0.9536 -0.9149 -2.4003
   84SAPS   H7Y 7978   4.699   4.219   9.865 -0.9856 -1.2973  0.7214
   84SAPS   C38 7979   4.558   4.308   9.713  0.0375  0.6468 -0.1195
   84SAPS   H8X 7980   4.504   4.406   9.710 -0.5493  0.3077 -0.7158
   84SAPS   H8Y 7981   4.485   4.227   9.695  1.9913 -1.5720  1.6633
   84SAPS   C39 7982   4.657   4.274   9.591  0.6101 -0.1983 -0.3312
   84SAPS   H9X 7983   4.693   4.169   9.595 -0.3832 -0.5959 -1.3214
   84SAPS   H9Y 7984   4.730   4.356   9.603 -0.4979  0.5441  1.4674
   84SAPS  C310 7985   4.585   4.289   9.451 -0.5756 -0.6499 -0.0972
   84SAPS  H10X 7986   4.562   4.398   9.446  0.0046 -0.3171  3.2762
   84SAPS  H10Y 7987   4.492   4.229   9.461  0.5538 -2.4727 -0.3332
   84SAPS  C311 7988   4.676   4.252   9.332  0.3578 -0.4445 -0.2069
   84SAPS  H11X 7989   4.611   4.270   9.244  1.2909 -0.0089 -0.8198
   84SAPS  H11Y 7990   4.692   4.143   9.347 -2.0639 -0.9434 -1.0064
   84SAPS  C312 7991   4.805   4.326   9.329 -0.1962 -0.2212 -0.7975
   84SAPS  H12X 7992   4.859   4.323   9.426 -1.6137 -0.9615 -0.0110
   84SAPS  H12Y 7993   4.783   4.435   9.322  1.5397  0.2243  0.3293
   84SAPS  C313 7994   4.893   4.270   9.218 -0.1334 -0.1396  0.0392
   84SAPS  H13X 7995   4.833   4.241   9.129 -2.0559 -2.7178  2.0935
   84SAPS  H13Y 7996   4.926   4.171   9.256  3.8114  1.5298  1.2618
   84SAPS  C314 7997   5.016   4.348   9.181 -0.3988 -0.2566 -0.1704
   84SAPS  H14X 7998   5.068   4.377   9.275 -2.6957  0.7897  0.8226
   84SAPS  H14Y 7999   4.986   4.446   9.138 -0.3285 -0.0007  0.3549
   84SAPS  C315 8000   5.116   4.276   9.082  0.3509 -0.0089 -0.2548
   84SAPS  H15X 8001   5.156   4.178   9.115  2.0783  0.7901  0.1206
   84SAPS  H15Y 8002   5.208   4.338   9.092 -0.7099  1.5250  0.2725
   84SAPS  C316 8003   5.062   4.265   8.939 -0.1596  0.4370  0.3494
   84SAPS  H16X 8004   5.036   4.366   8.899  1.8865  1.3435  1.2005
   84SAPS  H16Y 8005   4.965   4.211   8.936  1.1460 -1.8460 -1.3502
   84SAPS  C317 8006   5.168   4.197   8.855 -0.0436 -0.3018  0.4435
   84SAPS  H17X 8007   5.107   4.179   8.764 -1.2470  2.5174  0.6430
   84SAPS  H17Y 8008   5.214   4.107   8.902  0.3595 -0.7910 -0.8484
   84SAPS  C318 8009   5.284   4.297   8.807 -0.5248 -0.3503  0.1665
   84SAPS  H18X 8010   5.357   4.313   8.890  1.9904  1.0230 -2.2152
   84SAPS  H18Y 8011   5.249   4.395   8.768  1.1435 -0.2373 -1.1088
   84SAPS  H18Z 8012   5.347   4.259   8.724 -1.6940 -3.6782  0.7253
   85SAPS     N 8013   2.272   5.851  11.001 -0.0687 -0.2812  1.0073
   85SAPS   HN1 8014   2.226   5.874  10.911 -1.3214 -1.4039  1.3361
   85SAPS   HN2 8015   2.371   5.884  11.004 -0.8716  2.4252 -0.6374
   85SAPS   HN3 8016   2.264   5.747  11.006 -1.1675 -0.3263 -1.1220
   85SAPS   C12 8017   2.194   5.903  11.117  0.5101 -0.8246 -0.8016
   85SAPS  H12A 8018   2.126   5.829  11.157 -0.1149  0.7001  1.0555
   85SAPS   C13 8019   2.285   5.937  11.241 -0.4039 -0.3480 -0.0055
   85SAPS  O13A 8020   2.403   5.900  11.246  0.3500  0.6173  0.2296
   85SAPS  O13B 8021   2.220   5.972  11.345 -0.3758 -0.0520  0.4023
   85SAPS   C11 8022   2.125   6.044  11.094  0.0908 -0.0474  0.0221
   85SAPS  H11A 8023   2.208   6.113  11.067 -0.2226  1.4038  2.5444
   85SAPS  H11B 8024   2.086   6.086  11.190  1.5689  2.0667 -0.2720
   85SAPS     P 8025   1.880   5.980  11.036 -0.0945  0.3358 -0.0476
   85SAPS   O13 8026   1.895   5.858  11.124 -0.3985 -0.7174  0.2904
   85SAPS   O14 8027   1.798   6.091  11.090  0.3758  0.1202 -0.1423
   85SAPS   O12 8028   2.020   6.038  10.999 -0.0629  0.4229  0.3745
   85SAPS   O11 8029   1.818   5.941  10.896  0.1379  0.9101  0.0407
   85SAPS    C1 8030   1.886   5.996  10.778  0.7080 -0.4443  0.0316
   85SAPS    HA 8031   1.893   6.106  10.789 -0.7461 -0.4785  1.3913
   85SAPS    HB 8032   1.992   5.968  10.761  0.8747 -0.8249  1.5987
   85SAPS    C2 8033   1.810   5.950  10.652 -0.1766  0.1684 -0.5776
   85SAPS    HS 8034   1.873   5.968  10.562 -1.5524 -0.5622 -1.6990
   85SAPS   O21 8035   1.679   6.009  10.640  0.0646 -0.3933 -0.5968
   85SAPS   C21 8036   1.675   6.107  10.546 -0.7532 -0.7791 -0.0551
   85SAPS   O22 8037   1.775   6.156  10.491 -0.4079 -0.5514 -0.3535
   85SAPS   C22 8038   1.530   6.137  10.513 -0.6861 -0.3920  0.3301
   85SAPS   H2R 8039   1.476   6.046  10.545 -0.7508 -1.0428 -1.5618
   85SAPS   H2S 8040   1.499   6.234  10.558  1.7433  0.5794 -0.0054
   85SAPS    C3 8041   1.805   5.792  10.647 -0.6547  0.0281 -0.0037
   85SAPS    HX 8042   1.743   5.744  10.726 -0.4546 -1.2606 -0.6157
   85SAPS    HY 8043   1.910   5.760  10.655 -1.4470 -2.2135  1.7636
   85SAPS   O31 8044   1.771   5.738  10.517  0.4850 -0.2535  0.3273
   85SAPS   C31 8045   1.648   5.733  10.479 -0.0643 -0.0797 -0.0577
   85SAPS   O32 8046   1.553   5.787  10.534  0.3389 -0.0209  0.1158
   85SAPS   C32 8047   1.635   5.654  10.344  0.2579  0.0195 -0.4026
   85SAPS   H2X 8048   1.534   5.610  10.353 -0.1964  1.3549  1.2045
   85SAPS   H2Y 8049   1.719   5.582  10.329 -0.9498 -1.1647 -1.6719
   85SAPS   C23 8050   1.520   6.136  10.355 -0.6883  0.3180  0.5033
   85SAPS   H3R 8051   1.573   6.046  10.317  0.3167  1.0875  0.0761
   85SAPS   H3S 8052   1.558   6.231  10.312 -0.1907  0.0299  0.3035
   85SAPS   C24 8053   1.379   6.114  10.292 -0.7769 -0.3866  0.0269
   85SAPS   H4R 8054   1.336   6.016  10.319  1.5995 -1.6586 -0.6885
   85SAPS   H4S 8055   1.390   6.111  10.181  1.7846  1.0020  0.1880
   85SAPS   C25 8056   1.287   6.226  10.334 -0.5126 -0.0019  0.6818
   85SAPS   H5R 8057   1.283   6.251  10.441  0.9467  0.9681  0.5147
   85SAPS   C26 8058   1.221   6.309  10.258 -0.4546 -0.0044 -0.1828
   85SAPS   H6R 8059   1.160   6.385  10.310  0.9627  0.9010  0.1640
   85SAPS   C27 8060   1.238   6.323  10.109  0.3518  1.0578  0.0153
   85SAPS   H7R 8061   1.143   6.366  10.070 -0.5722  1.0985  2.2025
   85SAPS   H7S 8062   1.230   6.219  10.071 -0.7663  1.1131  0.0685
   85SAPS   C28 8063   1.357   6.397  10.051 -0.1602  0.2172  0.2585
   85SAPS   H8R 8064   1.401   6.478  10.111 -0.5406 -0.4519  1.4413
   85SAPS   C29 8065   1.416   6.362   9.932  0.8139 -0.3505 -0.0982
   85SAPS   H9R 8066   1.510   6.411   9.903  1.4670  0.2274  2.8341
   85SAPS  C210 8067   1.370   6.248   9.845  0.1894  0.4139  1.4086
   85SAPS  H10R 8068   1.322   6.166   9.902 -1.1096 -0.7200 -1.2385
   85SAPS  H10S 8069   1.468   6.205   9.813 -1.1482 -1.4925 -0.2362
   85SAPS  C211 8070   1.271   6.273   9.739 -0.0656 -0.2642 -0.1008
   85SAPS  H11R 8071   1.166   6.276   9.773 -0.5238  2.7648 -1.6641
   85SAPS  C212 8072   1.298   6.300   9.611  0.0081  0.1721  0.7791
   85SAPS  H12R 8073   1.204   6.321   9.557  0.2779  1.4131  0.7901
   85SAPS  C213 8074   1.429   6.314   9.536 -0.3808  0.2729 -0.2298
   85SAPS  H13R 8075   1.480   6.218   9.512 -0.3916  0.1582  0.2006
   85SAPS  H13S 8076   1.508   6.363   9.596 -0.2217 -0.3580  0.0770
   85SAPS  C214 8077   1.417   6.388   9.406 -0.1678 -0.1305 -0.0701
   85SAPS  H14R 8078   1.458   6.489   9.396  0.3436 -0.3198  0.1247
   85SAPS  C215 8079   1.353   6.343   9.295  0.4147  0.8635  0.1061
   85SAPS  H15R 8080   1.350   6.409   9.207 -1.0963  1.6946  0.7701
   85SAPS  C216 8081   1.272   6.208   9.277  0.9706 -0.2266  0.1104
   85SAPS  H16R 8082   1.277   6.152   9.372 -0.0477 -1.5381 -0.5972
   85SAPS  H16S 8083   1.320   6.147   9.197  1.8504  1.5772 -0.7879
   85SAPS  C217 8084   1.121   6.226   9.249 -0.9180  0.7254 -0.6536
   85SAPS  H17R 8085   1.075   6.266   9.342  0.8394 -1.2992  1.1467
   85SAPS  H17S 8086   1.063   6.134   9.225  0.8260  0.2655 -3.2566
   85SAPS  C218 8087   1.091   6.327   9.136  0.8235  0.5495 -0.0920
   85SAPS  H18R 8088   1.134   6.425   9.166  1.5847  0.4457 -0.8361
   85SAPS  H18S 8089   0.985   6.355   9.117  0.9405  2.4488  1.8704
   85SAPS  C219 8090   1.170   6.298   9.002  0.5524 -0.2788  0.1789
   85SAPS  H19R 8091   1.139   6.202   8.955 -0.0891  0.5992 -1.2181
   85SAPS  H19S 8092   1.276   6.292   9.034 -0.0369 -0.0834  2.2218
   85SAPS  C220 8093   1.149   6.412   8.897 -0.3151  0.4767 -0.4714
   85SAPS  H20R 8094   1.205   6.500   8.936  0.6738  1.4579 -3.9396
   85SAPS  H20S 8095   1.043   6.445   8.890 -0.4085  0.7243  1.8023
   85SAPS  H20T 8096   1.181   6.386   8.794 -1.9560  1.4669 -1.2610
   85SAPS   C33 8097   1.627   5.757  10.229  0.3410  0.0267  0.1614
   85SAPS   H3X 8098   1.716   5.824  10.226 -0.5893  1.2929  0.5402
   85SAPS   H3Y 8099   1.530   5.811  10.230  0.1965 -0.1690 -1.5722
   85SAPS   C34 8100   1.614   5.686  10.084  0.2950  0.9495  0.0543
   85SAPS   H4X 8101   1.514   5.638  10.081  0.7036  0.1689 -3.3099
   85SAPS   H4Y 8102   1.703   5.626  10.056  0.7033  2.0753 -1.1145
   85SAPS   C35 8103   1.604   5.802   9.979 -0.1280 -0.1142  0.3817
   85SAPS   H5X 8104   1.704   5.849   9.979 -0.4982  0.8144 -3.3582
   85SAPS   H5Y 8105   1.521   5.862  10.023 -1.2650 -0.4314 -1.2860
   85SAPS   C36 8106   1.574   5.752   9.828  0.1440 -0.1312  0.4838
   85SAPS   H6X 8107   1.495   5.678   9.851  1.9869 -2.5546 -0.6850
   85SAPS   H6Y 8108   1.661   5.695   9.789 -0.4725 -1.6585  1.2937
   85SAPS   C37 8109   1.521   5.854   9.734  0.4061 -0.1563  0.2227
   85SAPS   H7X 8110   1.594   5.934   9.709  1.8550 -1.1421  1.2673
   85SAPS   H7Y 8111   1.430   5.902   9.776  1.9304  1.9838  1.1761
   85SAPS   C38 8112   1.492   5.795   9.599 -0.0057  0.4246 -0.2129
   85SAPS   H8X 8113   1.413   5.718   9.591  2.4651 -2.0250 -1.9653
   85SAPS   H8Y 8114   1.584   5.754   9.553  0.1573 -0.0608  0.5317
   85SAPS   C39 8115   1.447   5.912   9.507 -0.5050 -0.4089 -0.3780
   85SAPS   H9X 8116   1.515   5.999   9.518 -0.9730  0.1587 -1.8426
   85SAPS   H9Y 8117   1.345   5.947   9.535  0.0350  0.2783  0.7710
   85SAPS  C310 8118   1.433   5.884   9.355 -0.2134 -0.1563 -0.6718
   85SAPS  H10X 8119   1.535   5.897   9.312 -0.6130  0.4279 -1.4442
   85SAPS  H10Y 8120   1.372   5.961   9.303 -0.5792  1.2356  1.7332
   85SAPS  C311 8121   1.381   5.748   9.321 -1.0344 -0.2649 -0.8274
   85SAPS  H11X 8122   1.278   5.739   9.362 -0.5828 -0.6718  0.2362
   85SAPS  H11Y 8123   1.441   5.676   9.381 -1.4434 -0.5636 -0.7751
   85SAPS  C312 8124   1.369   5.718   9.173 -0.1665  0.6244  0.1293
   85SAPS  H12X 8125   1.469   5.704   9.128 -0.1721  0.3842  0.1912
   85SAPS  H12Y 8126   1.324   5.810   9.131 -3.2261 -0.7479  0.2568
   85SAPS  C313 8127   1.288   5.598   9.137  0.5173 -0.0770 -0.3315
   85SAPS  H13X 8128   1.194   5.596   9.194  1.0433 -1.9979  0.5170
   85SAPS  H13Y 8129   1.342   5.507   9.172  0.0208 -0.0959  0.3919
   85SAPS  C314 8130   1.286   5.578   8.993 -0.0194 -0.0991 -0.1239
   85SAPS  H14X 8131   1.389   5.586   8.954  1.0075  1.9205  2.7997
   85SAPS  H14Y 8132   1.222   5.658   8.951 -1.2750  0.0508  1.9966
   85SAPS  C315 8133   1.230   5.440   8.946 -0.2488 -0.2339  0.1908
   85SAPS  H15X 8134   1.120   5.447   8.959 -0.2514  1.1366 -0.4723
   85SAPS  H15Y 8135   1.270   5.355   9.005  1.0566 -0.0210 -0.3748
   85SAPS  C316 8136   1.270   5.394   8.802 -0.1487  0.6188  0.2707
   85SAPS  H16X 8137   1.235   5.290   8.784  1.8521  0.3570 -2.5542
   85SAPS  H16Y 8138   1.380   5.384   8.797  0.3309  2.9020  4.5573
   85SAPS  C317 8139   1.215   5.481   8.691 -0.1542 -0.3467  0.6721
   85SAPS  H17X 8140   1.244   5.586   8.715  1.4844 -0.1596 -1.9229
   85SAPS  H17Y 8141   1.105   5.464   8.686  0.0385 -1.0401 -1.9432
   85SAPS  C318 8142   1.267   5.454   8.548 -0.1113  0.4114  0.4997
   85SAPS  H18X 8143   1.247   5.354   8.503 -1.6145  1.6388 -1.6463
   85SAPS  H18Y 8144   1.378   5.460   8.555  0.0424 -0.7990 -0.5923
   85SAPS  H18Z 8145   1.244   5.534   8.475 -1.7865 -0.0854  0.4589
   86SAPS     N 8146   3.696   6.304  10.900  0.1790  0.6755  0.0583
   86SAPS   HN1 8147   3.784   6.282  10.849  0.2494 -0.0663  0.5045
   86SAPS   HN2 8148   3.705   6.393  10.953 -2.0642  1.0825 -0.2006
   86SAPS   HN3 8149   3.677   6.227  10.967  1.2527  0.2134 -0.1611
   86SAPS   C12 8150   3.588   6.315  10.804 -0.8903 -0.9250  0.1394
   86SAPS  H12A 8151   3.494   6.321  10.858 -1.4434 -2.5097 -0.6269
   86SAPS   C13 8152   3.590   6.431  10.707 -0.2766  0.2817 -0.4171
   86SAPS  O13A 8153   3.691   6.510  10.707 -0.3631 -0.5164  0.1425
   86SAPS  O13B 8154   3.491   6.449  10.633 -0.1570 -0.1921 -0.7183
   86SAPS   C11 8155   3.579   6.189  10.724  0.0958 -1.2977 -0.2415
   86SAPS  H11A 8156   3.655   6.198  10.643  0.7569 -1.5016  0.3541
   86SAPS  H11B 8157   3.477   6.179  10.681  0.1678 -0.2779 -0.6424
   86SAPS     P 8158   3.523   5.940  10.782 -0.5268 -0.0487  0.2062
   86SAPS   O13 8159   3.604   5.836  10.853  0.0358  0.5317  0.0710
   86SAPS   O14 8160   3.382   5.969  10.831 -0.4449 -0.2195  0.0628
   86SAPS   O12 8161   3.609   6.076  10.797 -0.3291  0.4286  0.3775
   86SAPS   O11 8162   3.520   5.905  10.631 -0.0824  0.3524 -0.0931
   86SAPS    C1 8163   3.411   5.840  10.557 -0.0084  0.2850 -0.0931
   86SAPS    HA 8164   3.418   5.732  10.579  0.7369  0.6183  1.4325
   86SAPS    HB 8165   3.310   5.868  10.593  0.7702  0.8077  1.7493
   86SAPS    C2 8166   3.443   5.855  10.402  0.0271 -0.1972  0.2307
   86SAPS    HS 8167   3.546   5.823  10.378 -1.3823 -2.1197 -3.6704
   86SAPS   O21 8168   3.418   5.988  10.347  0.0317  0.2564  0.1998
   86SAPS   C21 8169   3.518   6.075  10.358  0.1611  0.0594 -0.0950
   86SAPS   O22 8170   3.637   6.042  10.369 -0.0367 -0.4297 -0.0247
   86SAPS   C22 8171   3.457   6.215  10.358 -0.3280 -0.4774 -1.0212
   86SAPS   H2R 8172   3.348   6.217  10.381 -0.3758  0.4587 -1.3031
   86SAPS   H2S 8173   3.522   6.268  10.431  0.9167  0.0818 -2.4961
   86SAPS    C3 8174   3.364   5.752  10.319 -0.0399 -0.0067 -0.1229
   86SAPS    HX 8175   3.258   5.757  10.352 -0.9974  0.3522 -3.1250
   86SAPS    HY 8176   3.406   5.653  10.346  0.3226  0.4159  0.8621
   86SAPS   O31 8177   3.372   5.776  10.175 -0.9619 -0.5256 -0.3996
   86SAPS   C31 8178   3.485   5.746  10.107 -0.2766  0.1828 -0.5237
   86SAPS   O32 8179   3.580   5.687  10.160 -0.5457 -0.1497  0.7774
   86SAPS   C32 8180   3.467   5.778   9.959 -0.1675 -0.2727  0.3898
   86SAPS   H2X 8181   3.506   5.879   9.935 -1.5792 -0.2200 -1.8493
   86SAPS   H2Y 8182   3.359   5.781   9.935  0.8600  1.6464 -4.4435
   86SAPS   C23 8183   3.467   6.291  10.221  0.2406 -0.1911 -0.1365
   86SAPS   H3R 8184   3.574   6.298  10.193  0.2527  1.1860  0.2332
   86SAPS   H3S 8185   3.441   6.398  10.238 -2.0440 -0.9101  1.0992
   86SAPS   C24 8186   3.360   6.250  10.114  0.4029  0.7277 -0.0142
   86SAPS   H4R 8187   3.258   6.275  10.150  0.6838  2.7319 -0.5325
   86SAPS   H4S 8188   3.379   6.141  10.108 -0.5637  0.6132 -1.2862
   86SAPS   C25 8189   3.394   6.320   9.983  1.0137  0.2266  0.1038
   86SAPS   H5R 8190   3.411   6.428   9.995 -0.2438  0.1880  2.6763
   86SAPS   C26 8191   3.384   6.269   9.859 -0.1845  0.8730 -0.0577
   86SAPS   H6R 8192   3.415   6.325   9.769 -0.2422 -0.8271 -1.1809
   86SAPS   C27 8193   3.357   6.123   9.827  0.5199 -0.4106  0.2760
   86SAPS   H7R 8194   3.362   6.053   9.913 -2.9965 -0.9200  0.1340
   86SAPS   H7S 8195   3.433   6.081   9.758  1.5993  1.2288  0.4402
   86SAPS   C28 8196   3.218   6.104   9.776  0.7600 -0.1051  0.6748
   86SAPS   H8R 8197   3.134   6.108   9.847 -0.2767  0.6279 -0.5616
   86SAPS   C29 8198   3.186   6.105   9.644  0.3505  0.0627 -0.9022
   86SAPS   H9R 8199   3.080   6.096   9.617  0.6589 -0.6202 -1.8798
   86SAPS  C210 8200   3.266   6.118   9.517 -0.0041 -1.4017  0.4942
   86SAPS  H10R 8201   3.298   6.016   9.489  3.8841 -0.1822  0.2941
   86SAPS  H10S 8202   3.362   6.173   9.518 -0.4132 -0.6181  3.1396
   86SAPS  C211 8203   3.190   6.154   9.387  0.0910 -0.3549  0.1192
   86SAPS  H11R 8204   3.085   6.183   9.406 -0.7312 -2.3966 -1.1351
   86SAPS  C212 8205   3.237   6.171   9.266 -0.4166 -0.3628  0.8342
   86SAPS  H12R 8206   3.163   6.196   9.188 -1.5371 -0.4379  1.8651
   86SAPS  C213 8207   3.373   6.157   9.205  0.3274 -0.1206  0.0401
   86SAPS  H13R 8208   3.442   6.235   9.244 -2.3157  1.2562  2.1510
   86SAPS  H13S 8209   3.360   6.194   9.101 -2.2833 -1.7392 -0.2590
   86SAPS  C214 8210   3.441   6.020   9.199 -0.6320 -0.1942  0.0939
   86SAPS  H14R 8211   3.395   5.930   9.244 -0.5879 -1.0075 -1.4412
   86SAPS  C215 8212   3.558   6.001   9.131 -0.1353  0.1367 -0.2838
   86SAPS  H15R 8213   3.598   5.899   9.125 -0.7246 -0.3168  2.7560
   86SAPS  C216 8214   3.635   6.111   9.062 -0.4261 -0.7861  0.9822
   86SAPS  H16R 8215   3.744   6.104   9.083  0.2213  0.3770 -1.8141
   86SAPS  H16S 8216   3.625   6.209   9.114 -0.0530 -0.0125 -0.3889
   86SAPS  C217 8217   3.602   6.138   8.915 -0.5379  0.1475  0.1328
   86SAPS  H17R 8218   3.647   6.228   8.868 -1.2405  1.1017  1.2656
   86SAPS  H17S 8219   3.493   6.151   8.901 -0.6193  0.0668  0.6953
   86SAPS  C218 8220   3.642   6.018   8.823 -0.2190 -0.4678 -0.3458
   86SAPS  H18R 8221   3.577   5.934   8.857 -1.8976  0.7066 -0.5623
   86SAPS  H18S 8222   3.747   5.995   8.850  0.2229  1.8788  0.0201
   86SAPS  C219 8223   3.599   6.041   8.679 -0.4248 -0.0062 -0.0277
   86SAPS  H19R 8224   3.497   6.082   8.693 -1.0849 -1.0381 -1.6606
   86SAPS  H19S 8225   3.600   5.947   8.619 -0.0742  0.5409 -0.8968
   86SAPS  C220 8226   3.674   6.145   8.595 -0.2527  0.0532  0.3110
   86SAPS  H20R 8227   3.768   6.092   8.567  0.1705 -0.8926  3.2993
   86SAPS  H20S 8228   3.692   6.224   8.671 -0.5129  1.0078 -0.6204
   86SAPS  H20T 8229   3.622   6.186   8.506  2.5462  2.3539 -0.3214
   86SAPS   C33 8230   3.536   5.678   9.864 -0.1957  0.2570 -0.5229
   86SAPS   H3X 8231   3.502   5.575   9.891  3.8975 -1.5523 -1.7996
   86SAPS   H3Y 8232   3.646   5.668   9.880 -0.3802  0.7522  1.0763
   86SAPS   C34 8233   3.511   5.703   9.717  0.0278 -0.1392  0.1399
   86SAPS   H4X 8234   3.538   5.610   9.662  1.0844 -1.3831  2.6828
   86SAPS   H4Y 8235   3.577   5.782   9.673  0.4635 -0.4051  0.3082
   86SAPS   C35 8236   3.363   5.743   9.676  0.0035 -0.0360 -0.7251
   86SAPS   H5X 8237   3.341   5.849   9.701  1.2670  0.3480 -1.2422
   86SAPS   H5Y 8238   3.295   5.677   9.735 -0.9095  0.6543 -0.9841
   86SAPS   C36 8239   3.344   5.724   9.521 -0.1646  0.4685  0.0817
   86SAPS   H6X 8240   3.355   5.617   9.493 -1.6729  0.0624  0.9395
   86SAPS   H6Y 8241   3.416   5.789   9.468 -1.5536  1.5779 -0.4720
   86SAPS   C37 8242   3.197   5.757   9.478 -0.1336 -0.2355  0.3084
   86SAPS   H7X 8243   3.164   5.859   9.508 -0.7163 -0.5736  0.8280
   86SAPS   H7Y 8244   3.129   5.687   9.530  0.6941 -0.7200  0.7542
   86SAPS   C38 8245   3.171   5.750   9.326  0.2369 -0.7124  0.2038
   86SAPS   H8X 8246   3.186   5.645   9.294 -0.1393 -0.3427 -1.2484
   86SAPS   H8Y 8247   3.228   5.824   9.266 -1.1897  0.1628 -0.0934
   86SAPS   C39 8248   3.018   5.783   9.295  0.4100  0.1886  0.7412
   86SAPS   H9X 8249   2.996   5.796   9.187  3.6005 -1.4654 -0.1782
   86SAPS   H9Y 8250   2.997   5.874   9.356 -0.6211 -1.4795  2.9437
   86SAPS  C310 8251   2.920   5.676   9.331  0.0463 -0.0492 -0.1551
   86SAPS  H10X 8252   2.936   5.640   9.435 -2.0567 -1.4308 -0.2705
   86SAPS  H10Y 8253   2.946   5.581   9.279 -2.4580  0.4364 -2.3763
   86SAPS  C311 8254   2.769   5.708   9.303 -0.1969 -0.3279 -0.3700
   86SAPS  H11X 8255   2.748   5.794   9.369  0.8426 -0.0088 -0.4483
   86SAPS  H11Y 8256   2.704   5.623   9.333  0.6242 -0.2492  1.7453
   86SAPS  C312 8257   2.721   5.734   9.156  0.3133 -0.1014  0.3044
   86SAPS  H12X 8258   2.767   5.655   9.094 -0.5299  2.0198 -3.1974
   86SAPS  H12Y 8259   2.767   5.829   9.120 -0.7156  1.1287  2.1398
   86SAPS  C313 8260   2.568   5.738   9.137 -0.0567 -0.5116  0.7432
   86SAPS  H13X 8261   2.542   5.835   9.186  1.0109  0.6159 -0.8454
   86SAPS  H13Y 8262   2.524   5.651   9.189 -0.9333 -0.8601 -0.5728
   86SAPS  C314 8263   2.537   5.733   8.995 -0.6425  0.3764 -0.0465
   86SAPS  H14X 8264   2.432   5.701   8.978 -0.3781  0.4971 -2.0723
   86SAPS  H14Y 8265   2.589   5.655   8.934 -0.5227  1.4932 -1.3919
   86SAPS  C315 8266   2.566   5.870   8.934 -0.2145  0.5042  0.4652
   86SAPS  H15X 8267   2.674   5.869   8.911 -0.6339  0.1928 -1.5885
   86SAPS  H15Y 8268   2.530   5.937   9.015  0.0411 -0.0575  1.0415
   86SAPS  C316 8269   2.501   5.883   8.795  0.4762  0.2297 -0.2063
   86SAPS  H16X 8270   2.391   5.879   8.810  0.7812  0.4825  2.2824
   86SAPS  H16Y 8271   2.531   5.790   8.743  0.9621  0.2245  0.0818
   86SAPS  C317 8272   2.546   6.009   8.713 -0.6198  0.5100  0.2630
   86SAPS  H17X 8273   2.518   6.006   8.605  2.3459 -1.8734 -0.5155
   86SAPS  H17Y 8274   2.657   6.002   8.718 -0.4926 -0.0121 -2.4957
   86SAPS  C318 8275   2.509   6.137   8.786 -0.0914  0.4746  0.3449
   86SAPS  H18X 8276   2.530   6.230   8.728 -1.2826  0.1215 -0.6731
   86SAPS  H18Y 8277   2.577   6.138   8.874  1.9803 -2.8577 -1.1088
   86SAPS  H18Z 8278   2.401   6.154   8.804 -0.1172 -0.0237  0.6638
   87SAPS     N 8279   3.873   6.678  10.783  0.1830 -0.1007 -0.7780
   87SAPS   HN1 8280   3.800   6.606  10.765  0.7526 -0.5932 -1.1319
   87SAPS   HN2 8281   3.861   6.748  10.706 -0.3796  1.2291  0.4983
   87SAPS   HN3 8282   3.968   6.639  10.775  0.6467  1.2945 -2.7552
   87SAPS   C12 8283   3.866   6.751  10.910  0.6508  0.6467 -0.0434
   87SAPS  H12A 8284   3.787   6.824  10.905  2.1511  2.2303 -1.6662
   87SAPS   C13 8285   3.827   6.656  11.029  0.0477  0.7730  0.4160
   87SAPS  O13A 8286   3.787   6.531  11.009  0.3823  0.1561  0.2353
   87SAPS  O13B 8287   3.838   6.699  11.145 -0.1186 -0.3559  0.1318
   87SAPS   C11 8288   4.009   6.799  10.934 -0.2932 -0.6183  0.3326
   87SAPS  H11A 8289   4.082   6.715  10.939  0.5031  0.1033  0.9042
   87SAPS  H11B 8290   4.005   6.842  11.036  0.0915 -0.7613  0.4094
   87SAPS     P 8291   4.166   6.997  10.870  0.3667  0.1357 -0.2469
   87SAPS   O13 8292   4.130   7.080  10.982 -0.1464 -0.0794  0.8001
   87SAPS   O14 8293   4.286   6.915  10.877 -0.8476  0.1388  0.2979
   87SAPS   O12 8294   4.049   6.896  10.838 -0.3773  0.8701  0.6857
   87SAPS   O11 8295   4.189   7.084  10.738  0.6012  0.6908 -0.0419
   87SAPS    C1 8296   4.090   7.173  10.690  0.6285 -0.2506  0.8542
   87SAPS    HA 8297   4.039   7.228  10.772 -1.5607 -2.5811  1.1122
   87SAPS    HB 8298   4.138   7.240  10.615  0.9495 -2.3243 -0.8307
   87SAPS    C2 8299   3.968   7.102  10.618  0.5938  0.2582 -0.3139
   87SAPS    HS 8300   3.920   7.042  10.697 -0.4102  0.5711 -0.6797
   87SAPS   O21 8301   4.012   7.036  10.503  0.0028 -0.4107  0.5526
   87SAPS   C21 8302   3.952   6.925  10.482 -0.2414 -0.2987 -0.5878
   87SAPS   O22 8303   3.874   6.882  10.570 -0.0685 -0.3935 -0.3821
   87SAPS   C22 8304   3.986   6.871  10.346  0.0286  0.3242  0.3898
   87SAPS   H2R 8305   3.969   6.961  10.283 -0.1275  0.1593  0.1950
   87SAPS   H2S 8306   4.094   6.852  10.326 -0.6488 -1.9059 -1.3521
   87SAPS    C3 8307   3.868   7.215  10.582  0.9242  0.0564 -0.1150
   87SAPS    HX 8308   3.825   7.268  10.670 -1.0718 -1.7150  0.0297
   87SAPS    HY 8309   3.777   7.173  10.534 -0.8411  0.6967  2.4855
   87SAPS   O31 8310   3.925   7.313  10.489  0.2382 -0.1619 -0.0075
   87SAPS   C31 8311   3.837   7.407  10.454  0.1887 -0.5109  0.1488
   87SAPS   O32 8312   3.721   7.401  10.492  0.0133  0.4731  0.5051
   87SAPS   C32 8313   3.903   7.496  10.340  0.0218 -0.4711  0.0235
   87SAPS   H2X 8314   4.005   7.524  10.374  0.0462  1.7249 -1.7359
   87SAPS   H2Y 8315   3.841   7.587  10.330  0.9932  0.0445 -1.4403
   87SAPS   C23 8316   3.916   6.738  10.312  0.6733 -0.2856 -0.2482
   87SAPS   H3R 8317   3.807   6.739  10.337  0.7838 -0.3528  0.2481
   87SAPS   H3S 8318   3.952   6.641  10.353  0.8022 -1.8345 -3.9238
   87SAPS   C24 8319   3.907   6.727  10.155  0.0137  0.2296  0.2133
   87SAPS   H4R 8320   4.011   6.734  10.117  0.3227  3.1196  1.4951
   87SAPS   H4S 8321   3.847   6.810  10.112  2.4148  0.8280 -2.1191
   87SAPS   C25 8322   3.853   6.596  10.102 -0.4815 -0.4882  0.8577
   87SAPS   H5R 8323   3.834   6.519  10.179  1.3383 -2.2987 -0.4642
   87SAPS   C26 8324   3.802   6.569   9.983  0.2845  0.3551 -0.0195
   87SAPS   H6R 8325   3.749   6.477   9.955  0.4186  0.6279 -1.1943
   87SAPS   C27 8326   3.791   6.663   9.865  0.1652  0.2832 -0.2883
   87SAPS   H7R 8327   3.836   6.763   9.881 -0.6783  0.8141 -1.1397
   87SAPS   H7S 8328   3.681   6.668   9.848  0.2069 -0.9427 -0.9798
   87SAPS   C28 8329   3.860   6.587   9.746 -0.5240 -0.2568 -0.8113
   87SAPS   H8R 8330   3.944   6.520   9.769 -0.1856  0.6090  0.5317
   87SAPS   C29 8331   3.833   6.612   9.615  1.2689 -0.6586  0.5116
   87SAPS   H9R 8332   3.868   6.542   9.538  2.1833 -0.6805  0.9388
   87SAPS  C210 8333   3.734   6.720   9.559 -0.6490 -0.0268 -0.4989
   87SAPS  H10R 8334   3.720   6.806   9.628 -0.4021  0.6854 -1.3160
   87SAPS  H10S 8335   3.632   6.677   9.554  0.1104 -2.0763  1.1283
   87SAPS  C211 8336   3.769   6.773   9.423 -0.4499 -0.3638  0.1009
   87SAPS  H11R 8337   3.859   6.834   9.432 -1.4097  1.1175 -0.2885
   87SAPS  C212 8338   3.723   6.732   9.305 -0.4598 -0.3598 -0.4862
   87SAPS  H12R 8339   3.758   6.795   9.222 -0.0710 -0.5152 -0.4428
   87SAPS  C213 8340   3.623   6.624   9.282  0.4379 -0.0091 -0.8492
   87SAPS  H13R 8341   3.532   6.680   9.253 -0.0472 -0.5704 -0.4232
   87SAPS  H13S 8342   3.593   6.567   9.372 -1.8411  0.8981 -0.9967
   87SAPS  C214 8343   3.662   6.517   9.185 -0.3421 -0.3488  0.1552
   87SAPS  H14R 8344   3.740   6.450   9.223 -0.9027 -1.9401 -1.4671
   87SAPS  C215 8345   3.604   6.493   9.067  0.2532 -0.0708  0.9835
   87SAPS  H15R 8346   3.654   6.412   9.013 -1.6816 -0.5634 -0.0901
   87SAPS  C216 8347   3.488   6.568   8.999  0.3260 -0.6292  0.3644
   87SAPS  H16R 8348   3.530   6.612   8.906  3.6098  1.3549  2.6824
   87SAPS  H16S 8349   3.441   6.649   9.059 -0.3798 -0.3582 -0.5506
   87SAPS  C217 8350   3.376   6.473   8.972  0.2528 -0.5225  0.4307
   87SAPS  H17R 8351   3.342   6.412   9.058  1.3029 -0.1686  1.0982
   87SAPS  H17S 8352   3.410   6.400   8.896  0.6028  0.3420 -0.2540
   87SAPS  C218 8353   3.253   6.559   8.927 -0.3367 -0.5051  0.3048
   87SAPS  H18R 8354   3.277   6.598   8.826  0.9574 -1.5833  0.1722
   87SAPS  H18S 8355   3.240   6.652   8.986 -0.2785 -0.2681 -0.0572
   87SAPS  C219 8356   3.121   6.484   8.937  0.7174 -0.1543 -0.1744
   87SAPS  H19R 8357   3.041   6.553   8.902  2.0767  1.1185 -0.8456
   87SAPS  H19S 8358   3.095   6.457   9.042 -0.6014  0.3020 -0.3717
   87SAPS  C220 8359   3.114   6.354   8.861 -0.3368 -0.1988  0.0268
   87SAPS  H20R 8360   3.141   6.368   8.754  1.6210  0.5186  0.5886
   87SAPS  H20S 8361   3.013   6.309   8.867 -0.2396 -0.3530  0.5493
   87SAPS  H20T 8362   3.189   6.290   8.913  2.9685  2.8906 -0.7470
   87SAPS   C33 8363   3.918   7.417  10.204  0.1646 -0.2883  0.2735
   87SAPS   H3X 8364   3.950   7.314  10.230 -3.2087 -0.8751  2.4882
   87SAPS   H3Y 8365   3.997   7.462  10.141  0.2547 -0.9163 -0.0578
   87SAPS   C34 8366   3.786   7.408  10.121  0.4145  0.0261 -1.2818
   87SAPS   H4X 8367   3.729   7.503  10.130 -0.1706 -0.6217  3.1641
   87SAPS   H4Y 8368   3.719   7.330  10.164  2.5464 -1.4870 -0.6196
   87SAPS   C35 8369   3.811   7.385   9.973  0.5110  0.4102  0.8801
   87SAPS   H5X 8370   3.851   7.284   9.950 -1.1201 -0.3907  1.5257
   87SAPS   H5Y 8371   3.889   7.459   9.942 -1.3492  2.1226  0.2126
   87SAPS   C36 8372   3.695   7.417   9.887 -0.1262  0.5284  0.4741
   87SAPS   H6X 8373   3.660   7.521   9.907 -0.8526  0.4872 -0.5512
   87SAPS   H6Y 8374   3.617   7.339   9.901  0.5546 -0.2053  0.2082
   87SAPS   C37 8375   3.740   7.427   9.735 -0.5788  0.6085  0.7993
   87SAPS   H7X 8376   3.787   7.330   9.707  2.1946  1.4884  2.1945
   87SAPS   H7Y 8377   3.825   7.498   9.732 -0.4004  0.3569 -0.6039
   87SAPS   C38 8378   3.626   7.468   9.644 -0.3112 -0.1741 -0.3369
   87SAPS   H8X 8379   3.566   7.552   9.685  1.3909  1.5615 -1.3327
   87SAPS   H8Y 8380   3.560   7.380   9.629 -1.0975  0.3341  0.1099
   87SAPS   C39 8381   3.672   7.495   9.506 -0.1370 -0.2403 -0.1747
   87SAPS   H9X 8382   3.754   7.421   9.498 -0.3185 -0.5902  1.0612
   87SAPS   H9Y 8383   3.720   7.594   9.496 -0.3688 -0.2306 -1.3095
   87SAPS  C310 8384   3.567   7.471   9.394 -0.2290 -0.0439 -0.8165
   87SAPS  H10X 8385   3.472   7.525   9.411  1.6987  2.9349  1.1071
   87SAPS  H10Y 8386   3.545   7.363   9.403 -0.4617  0.0971  0.3335
   87SAPS  C311 8387   3.631   7.499   9.260  0.3115 -0.0581  0.4279
   87SAPS  H11X 8388   3.727   7.444   9.256  0.5882  0.5082 -1.0025
   87SAPS  H11Y 8389   3.659   7.606   9.262 -1.2199  0.3772 -0.5976
   87SAPS  C312 8390   3.539   7.470   9.134  0.2144 -0.0726 -0.2325
   87SAPS  H12X 8391   3.457   7.546   9.136 -0.6933 -0.9771 -1.5121
   87SAPS  H12Y 8392   3.494   7.369   9.143  0.7368 -0.3127 -0.2984
   87SAPS  C313 8393   3.623   7.479   9.008  0.3224  0.7249  0.5230
   87SAPS  H13X 8394   3.695   7.396   9.022 -1.0627 -0.8702 -1.5926
   87SAPS  H13Y 8395   3.687   7.570   9.001 -0.8506  1.4423 -1.1999
   87SAPS  C314 8396   3.539   7.470   8.877  0.1025 -0.6208  0.2827
   87SAPS  H14X 8397   3.486   7.564   8.851  0.9821 -0.5683 -1.4280
   87SAPS  H14Y 8398   3.463   7.390   8.888  0.6142 -1.1796 -0.1795
   87SAPS  C315 8399   3.623   7.462   8.752 -0.1168  0.2134 -1.0764
   87SAPS  H15X 8400   3.659   7.357   8.745 -1.0117 -0.1090 -0.8615
   87SAPS  H15Y 8401   3.718   7.520   8.758  0.9381 -1.5842  0.1398
   87SAPS  C316 8402   3.544   7.509   8.631 -0.1093  0.4413  0.4744
   87SAPS  H16X 8403   3.541   7.620   8.637  0.6626  0.5283 -0.6606
   87SAPS  H16Y 8404   3.446   7.459   8.645  0.1068 -0.5664 -1.4532
   87SAPS  C317 8405   3.615   7.479   8.501 -0.0336 -0.5097 -0.3811
   87SAPS  H17X 8406   3.540   7.477   8.419 -1.0417 -1.3218  0.5599
   87SAPS  H17Y 8407   3.656   7.376   8.510  0.3966 -0.4144 -1.1951
   87SAPS  C318 8408   3.735   7.574   8.486  0.3119  0.7161 -0.0720
   87SAPS  H18X 8409   3.803   7.554   8.572 -1.1837  2.1742  1.5032
   87SAPS  H18Y 8410   3.698   7.679   8.491 -0.2253  0.4555  1.9992
   87SAPS  H18Z 8411   3.779   7.557   8.386  1.6546 -0.7262  0.7415
   88SAPS     N 8412   0.372   5.412  10.822  0.2437 -0.1769  0.2196
   88SAPS   HN1 8413   0.405   5.502  10.863 -0.5207 -0.2621  1.0358
   88SAPS   HN2 8414   0.449   5.355  10.783 -0.9230 -1.3208 -0.4366
   88SAPS   HN3 8415   0.312   5.431  10.739  0.1730 -1.9953 -0.1534
   88SAPS   C12 8416   0.298   5.338  10.923 -0.2956 -0.0650 -0.3682
   88SAPS  H12A 8417   0.375   5.307  10.992 -0.7974 -0.6973 -0.0910
   88SAPS   C13 8418   0.202   5.433  11.004  0.6392 -0.0575  0.3871
   88SAPS  O13A 8419   0.199   5.558  10.977  0.8911  0.0707  0.5044
   88SAPS  O13B 8420   0.147   5.385  11.107 -0.1643 -0.6784 -0.2275
   88SAPS   C11 8421   0.221   5.222  10.858 -0.0798 -1.3089  0.1651
   88SAPS  H11A 8422   0.141   5.265  10.794 -1.8646 -4.2385  0.3302
   88SAPS  H11B 8423   0.178   5.176  10.950  1.0869 -1.5988  0.5812
   88SAPS     P 8424   0.312   4.988  10.785 -0.2845  0.3504  0.0068
   88SAPS   O13 8425   0.378   4.939  10.663  0.1018  0.0158  0.0554
   88SAPS   O14 8426   0.367   4.945  10.915  0.5134  0.0350 -0.3650
   88SAPS   O12 8427   0.312   5.148  10.774  0.3594  0.5174 -0.2196
   88SAPS   O11 8428   0.162   4.950  10.774  0.1246  0.5196 -0.5806
   88SAPS    C1 8429   0.099   4.926  10.653 -0.1778  0.0740  0.3740
   88SAPS    HA 8430   0.160   4.863  10.584 -0.0679 -1.0100  1.4432
   88SAPS    HB 8431   0.006   4.870  10.672  0.1422 -0.6735 -0.2096
   88SAPS    C2 8432   0.052   5.060  10.581 -0.1203  0.3989  0.6364
   88SAPS    HS 8433   0.134   5.131  10.604 -0.1231  0.7622 -0.4662
   88SAPS   O21 8434  -0.074   5.106  10.639  1.5485  0.1241  0.1442
   88SAPS   C21 8435  -0.091   5.235  10.626 -0.1195 -0.3417 -0.2195
   88SAPS   O22 8436  -0.005   5.312  10.587  0.0123  0.2110  0.5054
   88SAPS   C22 8437  -0.240   5.273  10.648 -0.4266  0.3324  0.9640
   88SAPS   H2R 8438  -0.304   5.198  10.597  2.2688 -1.5092  0.2327
   88SAPS   H2S 8439  -0.259   5.264  10.757 -0.8268  0.0655  0.8721
   88SAPS    C3 8440   0.036   5.038  10.431 -0.7719  0.7790 -0.6610
   88SAPS    HX 8441  -0.032   5.114  10.386 -2.3197 -0.0870  0.1669
   88SAPS    HY 8442  -0.018   4.942  10.419  0.8751 -0.0543 -1.3950
   88SAPS   O31 8443   0.156   5.014  10.359 -0.0841 -0.0072 -0.0664
   88SAPS   C31 8444   0.152   5.008  10.228  0.6481 -0.3276 -0.2776
   88SAPS   O32 8445   0.053   5.027  10.161 -0.0641  0.7674  0.2303
   88SAPS   C32 8446   0.289   4.954  10.160  0.0058  0.2447  0.4895
   88SAPS   H2X 8447   0.302   4.844  10.172 -1.0217  0.0172 -0.4085
   88SAPS   H2Y 8448   0.371   5.011  10.208 -1.9476  1.9378  1.9597
   88SAPS   C23 8449  -0.279   5.424  10.607 -0.5463  0.0114 -0.8206
   88SAPS   H3R 8450  -0.210   5.492  10.662 -0.4522 -0.7282 -0.0066
   88SAPS   H3S 8451  -0.379   5.444  10.650 -0.1412 -2.0591  1.2042
   88SAPS   C24 8452  -0.283   5.445  10.451 -0.1762  0.4561 -0.1408
   88SAPS   H4R 8453  -0.175   5.451  10.425  0.4935  0.8106  2.5786
   88SAPS   H4S 8454  -0.328   5.545  10.436 -0.6617  0.3230  0.4166
   88SAPS   C25 8455  -0.362   5.354  10.363 -0.0461  0.6814 -0.0638
   88SAPS   H5R 8456  -0.408   5.269  10.415  0.8577  0.7043  0.7981
   88SAPS   C26 8457  -0.371   5.364  10.232 -0.1931 -0.7436  0.4199
   88SAPS   H6R 8458  -0.426   5.291  10.172  0.3698  0.4277 -1.5899
   88SAPS   C27 8459  -0.303   5.464  10.138  0.1963  0.4706  0.2303
   88SAPS   H7R 8460  -0.244   5.419  10.055  0.7010 -0.2721  0.9922
   88SAPS   H7S 8461  -0.221   5.519  10.188  1.5563  0.1429 -1.5815
   88SAPS   C28 8462  -0.405   5.570  10.097  0.4903  0.1656  0.2119
   88SAPS   H8R 8463  -0.460   5.624  10.176 -2.2676 -1.8650 -0.2439
   88SAPS   C29 8464  -0.420   5.610   9.966 -0.3909  0.0480 -1.0276
   88SAPS   H9R 8465  -0.495   5.686   9.942 -1.8587 -0.5594  1.4909
   88SAPS  C210 8466  -0.353   5.563   9.843 -0.4679  0.0028  0.0017
   88SAPS  H10R 8467  -0.255   5.514   9.861 -1.0268 -1.8092 -1.7619
   88SAPS  H10S 8468  -0.340   5.646   9.771  3.0015  0.5218  1.1405
   88SAPS  C211 8469  -0.416   5.442   9.775  0.0647  0.5134 -0.4185
   88SAPS  H11R 8470  -0.430   5.353   9.838  2.2337 -0.9161 -1.8674
   88SAPS  C212 8471  -0.455   5.443   9.646  0.0830  0.2642 -0.3265
   88SAPS  H12R 8472  -0.482   5.346   9.602  1.3631 -0.0139 -0.5164
   88SAPS  C213 8473  -0.461   5.555   9.549  0.1294  0.1174  0.0482
   88SAPS  H13R 8474  -0.399   5.533   9.459 -0.4230 -1.9597  0.1613
   88SAPS  H13S 8475  -0.409   5.645   9.591  0.7055  0.3637 -1.1568
   88SAPS  C214 8476  -0.598   5.584   9.499 -0.0170  0.0346 -0.3117
   88SAPS  H14R 8477  -0.672   5.587   9.580 -0.0849 -0.5402 -0.3543
   88SAPS  C215 8478  -0.636   5.611   9.375 -0.5533  0.1610  0.2649
   88SAPS  H15R 8479  -0.744   5.623   9.360 -0.8097 -2.7434 -0.6771
   88SAPS  C216 8480  -0.547   5.627   9.254 -0.9084  0.2132  0.7438
   88SAPS  H16R 8481  -0.439   5.634   9.279 -0.2599  0.6163 -2.0420
   88SAPS  H16S 8482  -0.558   5.721   9.197 -0.0088  1.4552  2.5786
   88SAPS  C217 8483  -0.583   5.510   9.164 -0.3800 -0.2519 -0.4108
   88SAPS  H17R 8484  -0.691   5.516   9.139 -0.4348  2.4918  0.2468
   88SAPS  H17S 8485  -0.556   5.413   9.211 -0.0171  0.0142 -0.0648
   88SAPS  C218 8486  -0.507   5.515   9.031  0.2343  0.3344  0.3825
   88SAPS  H18R 8487  -0.401   5.495   9.057 -0.1593 -1.6847  0.4948
   88SAPS  H18S 8488  -0.500   5.619   8.992  2.5499  0.9072  2.2233
   88SAPS  C219 8489  -0.556   5.407   8.944  0.5638  0.0364  0.5102
   88SAPS  H19R 8490  -0.666   5.422   8.931  0.7214  1.0280  0.2806
   88SAPS  H19S 8491  -0.535   5.304   8.979  1.0288 -0.3845 -0.9672
   88SAPS  C220 8492  -0.483   5.399   8.807  0.4550  0.3437  0.7931
   88SAPS  H20R 8493  -0.503   5.482   8.734 -1.3079 -1.8765 -1.3224
   88SAPS  H20S 8494  -0.511   5.302   8.761 -1.5749  1.2024  0.1858
   88SAPS  H20T 8495  -0.373   5.394   8.826  0.2939  0.5167  1.7632
   88SAPS   C33 8496   0.279   4.982  10.009  0.2759  0.2939  0.1559
   88SAPS   H3X 8497   0.384   4.993   9.974  1.0901 -0.2903  2.3353
   88SAPS   H3Y 8498   0.234   5.080   9.982 -0.5006  0.6360  2.6137
   88SAPS   C34 8499   0.194   4.880   9.921 -0.4569  0.1195  0.2228
   88SAPS   H4X 8500   0.093   4.867   9.966 -0.4575  0.6093  0.3678
   88SAPS   H4Y 8501   0.238   4.779   9.922 -0.4873  0.0886 -0.7897
   88SAPS   C35 8502   0.183   4.912   9.772 -0.8034 -0.7455 -1.1171
   88SAPS   H5X 8503   0.285   4.941   9.737 -0.3562 -0.4516  0.4145
   88SAPS   H5Y 8504   0.118   4.999   9.752 -0.9092 -0.8656 -1.2954
   88SAPS   C36 8505   0.139   4.791   9.681  0.9170  0.1499 -0.2873
   88SAPS   H6X 8506   0.036   4.763   9.712 -0.1301  0.0001 -3.6559
   88SAPS   H6Y 8507   0.202   4.700   9.692 -0.6683 -0.7946  1.1345
   88SAPS   C37 8508   0.126   4.837   9.537 -0.0475  0.1901  0.7871
   88SAPS   H7X 8509   0.219   4.883   9.497  0.5701 -0.4459  1.4754
   88SAPS   H7Y 8510   0.054   4.922   9.539 -0.3792 -0.0835  0.5908
   88SAPS   C38 8511   0.086   4.725   9.446 -0.2201 -0.3784 -0.3810
   88SAPS   H8X 8512  -0.019   4.690   9.458 -0.0238 -1.4359 -1.5860
   88SAPS   H8Y 8513   0.154   4.638   9.459 -0.4153 -0.1908  1.9704
   88SAPS   C39 8514   0.106   4.773   9.303 -0.5392  0.3761 -0.2294
   88SAPS   H9X 8515   0.216   4.771   9.298 -0.4888  3.1449 -1.2380
   88SAPS   H9Y 8516   0.075   4.879   9.286  0.4851  0.8058  0.5384
   88SAPS  C310 8517   0.045   4.666   9.203 -0.1157 -0.0069  0.1527
   88SAPS  H10X 8518  -0.066   4.673   9.214 -0.3500  3.0851 -3.4972
   88SAPS  H10Y 8519   0.085   4.569   9.240  0.8377  0.5423  0.5846
   88SAPS  C311 8520   0.078   4.703   9.061  0.7238 -0.0666  0.3107
   88SAPS  H11X 8521   0.187   4.714   9.046  0.3177  1.4601 -1.7263
   88SAPS  H11Y 8522   0.047   4.807   9.037 -0.7278 -0.8419 -1.3091
   88SAPS  C312 8523   0.006   4.602   8.970  0.1484 -0.4512  0.2941
   88SAPS  H12X 8524   0.021   4.498   9.008  0.1558  0.1378  1.9229
   88SAPS  H12Y 8525   0.050   4.598   8.868  1.4888 -1.0277  0.8899
   88SAPS  C313 8526  -0.139   4.644   8.945  0.6671  0.0188  0.6899
   88SAPS  H13X 8527  -0.141   4.735   8.882  0.9248 -0.6439 -0.2940
   88SAPS  H13Y 8528  -0.195   4.654   9.041 -0.5521 -1.3689  0.1416
   88SAPS  C314 8529  -0.213   4.533   8.868  0.5181 -0.4033  0.0462
   88SAPS  H14X 8530  -0.214   4.449   8.940 -0.8043 -0.1349  0.3524
   88SAPS  H14Y 8531  -0.149   4.527   8.778  3.1696  0.8323  1.7438
   88SAPS  C315 8532  -0.353   4.562   8.812 -0.4123 -0.2869 -0.1776
   88SAPS  H15X 8533  -0.337   4.634   8.729  2.8878 -0.7931 -0.0758
   88SAPS  H15Y 8534  -0.419   4.611   8.887 -1.2682  0.2240 -1.2552
   88SAPS  C316 8535  -0.418   4.434   8.769 -0.0651  0.9618 -0.4967
   88SAPS  H16X 8536  -0.345   4.375   8.710 -1.0539 -0.4580 -0.3307
   88SAPS  H16Y 8537  -0.511   4.452   8.711  0.4970  0.4510 -1.5687
   88SAPS  C317 8538  -0.467   4.353   8.889 -0.2721 -0.4853 -0.3466
   88SAPS  H17X 8539  -0.547   4.406   8.944  0.4669  0.3285 -0.0295
   88SAPS  H17Y 8540  -0.381   4.339   8.959 -0.3240  0.8429  0.0035
   88SAPS  C318 8541  -0.512   4.212   8.842 -0.1167  1.1924 -0.2779
   88SAPS  H18X 8542  -0.523   4.145   8.930 -1.1135  1.8850  0.1237
   88SAPS  H18Y 8543  -0.422   4.176   8.787 -0.4992 -0.3775  0.0852
   88SAPS  H18Z 8544  -0.602   4.206   8.777  0.6027 -0.3485 -1.1803
   89SAPS     N 8545   5.929   1.384  11.144  0.1632 -0.5007 -0.4241
   89SAPS   HN1 8546   5.871   1.330  11.077 -1.5562  0.3830  0.3230
   89SAPS   HN2 8547   5.965   1.327  11.222 -2.4684 -0.7913  0.6322
   89SAPS   HN3 8548   5.879   1.466  11.184  2.6467  0.9557 -0.1926
   89SAPS   C12 8549   6.050   1.434  11.067 -0.1957 -0.6951 -0.4600
   89SAPS  H12A 8550   6.015   1.501  10.989  1.5186  0.5146 -0.2162
   89SAPS   C13 8551   6.148   1.520  11.139 -0.4300  0.5234 -0.2250
   89SAPS  O13A 8552   6.140   1.537  11.262  0.3108  0.2954 -0.2258
   89SAPS  O13B 8553   6.236   1.578  11.083  0.1598 -0.6710  0.6712
   89SAPS   C11 8554   6.122   1.314  11.002 -0.3061 -0.0516 -0.2017
   89SAPS  H11A 8555   6.157   1.245  11.083  1.6290  1.7321  0.5243
   89SAPS  H11B 8556   6.212   1.351  10.949  0.7659  0.1899  1.7416
   89SAPS     P 8557   6.057   1.165  10.781  0.0841 -0.3348 -0.4181
   89SAPS   O13 8558   6.142   1.049  10.822  0.1638  0.1885 -0.3667
   89SAPS   O14 8559   5.930   1.117  10.722  0.6003 -0.0126  0.0102
   89SAPS   O12 8560   6.030   1.245  10.917  0.0589 -1.1342 -0.0045
   89SAPS   O11 8561   6.122   1.271  10.682 -0.0952  0.3997 -0.3793
   89SAPS    C1 8562   6.047   1.393  10.655 -0.1048  0.1125  0.2518
   89SAPS    HA 8563   5.943   1.364  10.630 -0.6421  1.1218  1.2776
   89SAPS    HB 8564   6.050   1.458  10.745 -1.0594  0.6872 -0.1298
   89SAPS    C2 8565   6.121   1.467  10.536  0.0296  0.2279  0.0227
   89SAPS    HS 8566   6.072   1.562  10.506  1.9007  0.7249 -1.5936
   89SAPS   O21 8567   6.136   1.383  10.420 -1.1066 -0.1831  0.0332
   89SAPS   C21 8568   6.025   1.340  10.360  0.3104 -0.6525 -0.9472
   89SAPS   O22 8569   5.910   1.376  10.385 -0.0873 -0.6846 -0.2314
   89SAPS   C22 8570   6.069   1.231  10.268  0.0546  0.1417  0.3383
   89SAPS   H2R 8571   6.170   1.256  10.229 -0.4454  3.0812  0.7771
   89SAPS   H2S 8572   6.080   1.141  10.332  2.7427  1.5587  1.9835
   89SAPS    C3 8573   6.258   1.519  10.582  0.4087  0.8972 -0.1526
   89SAPS    HX 8574   6.325   1.442  10.627 -0.0142  0.8295  0.3586
   89SAPS    HY 8575   6.237   1.585  10.668  0.9250 -2.8042  2.9469
   89SAPS   O31 8576   6.324   1.581  10.472  0.0965  0.1073 -0.0994
   89SAPS   C31 8577   6.394   1.499  10.399  0.3596  0.0954 -0.0015
   89SAPS   O32 8578   6.428   1.385  10.432 -0.3231 -0.8963 -0.0868
   89SAPS   C32 8579   6.433   1.569  10.268 -0.4041  0.3039 -0.1886
   89SAPS   H2X 8580   6.488   1.661  10.295 -0.0316 -0.1901  0.7443
   89SAPS   H2Y 8581   6.334   1.603  10.231 -1.6420 -0.7889  2.0236
   89SAPS   C23 8582   5.983   1.198  10.148 -0.0936  0.4918 -0.3391
   89SAPS   H3R 8583   5.963   1.289  10.086  1.7149 -0.5314 -2.5103
   89SAPS   H3S 8584   5.884   1.165  10.188  0.3203 -1.6431 -1.0294
   89SAPS   C24 8585   6.039   1.101  10.044 -0.1363  0.7854 -0.0463
   89SAPS   H4R 8586   5.960   1.080   9.969  0.7660 -1.0677 -0.5122
   89SAPS   H4S 8587   6.041   1.004  10.096 -1.9015  1.1723  0.7771
   89SAPS   C25 8588   6.167   1.160   9.980  0.0458  0.3013  0.1800
   89SAPS   H5R 8589   6.259   1.144  10.039  0.4007  0.0186 -0.4445
   89SAPS   C26 8590   6.186   1.209   9.858 -1.0006 -0.5788  0.5309
   89SAPS   H6R 8591   6.290   1.220   9.825 -0.5917 -2.3371  1.1662
   89SAPS   C27 8592   6.076   1.219   9.743 -0.0342  0.1733 -0.2857
   89SAPS   H7R 8593   6.071   1.327   9.716 -0.3112 -0.0534 -1.1198
   89SAPS   H7S 8594   5.976   1.190   9.782  0.0262  0.7670  0.3180
   89SAPS   C28 8595   6.107   1.131   9.625 -0.2159 -0.3836  0.1289
   89SAPS   H8R 8596   6.202   1.076   9.630  1.5316  2.4957 -0.2252
   89SAPS   C29 8597   6.034   1.122   9.511 -0.5942  0.4719 -0.0211
   89SAPS   H9R 8598   6.065   1.042   9.443 -3.2563 -0.8976  0.3277
   89SAPS  C210 8599   5.912   1.197   9.468  0.4936 -0.1452  0.4334
   89SAPS  H10R 8600   5.937   1.302   9.445  2.0265 -0.2012  1.7669
   89SAPS  H10S 8601   5.845   1.211   9.555  0.6252 -1.2536  0.7278
   89SAPS  C211 8602   5.830   1.137   9.349 -1.0000  0.1618 -0.1273
   89SAPS  H11R 8603   5.766   1.048   9.357 -1.7322  0.7358  0.3904
   89SAPS  C212 8604   5.831   1.179   9.223 -0.7790 -0.0770 -0.5144
   89SAPS  H12R 8605   5.780   1.128   9.140  0.5948 -1.2964 -0.6334
   89SAPS  C213 8606   5.914   1.299   9.180  0.1449 -0.7180 -0.4234
   89SAPS  H13R 8607   5.953   1.360   9.264  0.1505 -0.2744 -0.7458
   89SAPS  H13S 8608   5.856   1.363   9.111 -1.7797 -0.6803  1.1819
   89SAPS  C214 8609   6.040   1.251   9.108  0.5998  0.3453 -0.1624
   89SAPS  H14R 8610   6.037   1.157   9.051  1.2966 -0.3519  0.9210
   89SAPS  C215 8611   6.170   1.292   9.111  0.4871 -0.4474 -0.2530
   89SAPS  H15R 8612   6.252   1.230   9.071  0.9135 -1.0338  1.4943
   89SAPS  C216 8613   6.225   1.416   9.180  0.0834 -0.1467 -0.1461
   89SAPS  H16R 8614   6.280   1.390   9.273 -0.7119 -0.0019  0.3612
   89SAPS  H16S 8615   6.155   1.497   9.208  0.9891  0.3620  0.6954
   89SAPS  C217 8616   6.330   1.478   9.076  0.1668 -0.6617 -0.1971
   89SAPS  H17R 8617   6.413   1.413   9.040  0.7413 -1.4439  2.4357
   89SAPS  H17S 8618   6.387   1.559   9.125  0.5080  0.4352 -2.3497
   89SAPS  C218 8619   6.260   1.546   8.957  0.2192  0.5579  0.0434
   89SAPS  H18R 8620   6.193   1.479   8.900  0.4512  1.2628 -1.0732
   89SAPS  H18S 8621   6.331   1.584   8.880 -0.3318  2.9185  0.6561
   89SAPS  C219 8622   6.187   1.678   9.011  0.1791  0.6928  0.8778
   89SAPS  H19R 8623   6.269   1.736   9.057 -0.8575  2.5499  0.4138
   89SAPS  H19S 8624   6.114   1.664   9.094 -0.3809  2.1189  0.6311
   89SAPS  C220 8625   6.107   1.747   8.897 -0.2081 -0.1251 -0.3925
   89SAPS  H20R 8626   6.039   1.827   8.934 -0.2411 -0.6982  0.8144
   89SAPS  H20S 8627   6.039   1.675   8.847  0.0406  1.1417 -2.5937
   89SAPS  H20T 8628   6.177   1.786   8.820 -0.1259 -0.2975 -0.4043
   89SAPS   C33 8629   6.509   1.484  10.167  0.8401 -0.4375 -0.5602
   89SAPS   H3X 8630   6.460   1.386  10.148 -0.3057 -0.8500  3.8057
   89SAPS   H3Y 8631   6.615   1.466  10.198  1.6563  0.8079 -2.5893
   89SAPS   C34 8632   6.508   1.567  10.042 -0.2269  0.4217 -0.1661
   89SAPS   H4X 8633   6.592   1.541   9.974  1.9813  1.9433  1.9059
   89SAPS   H4Y 8634   6.523   1.677  10.042 -1.5725  0.6323  1.5461
   89SAPS   C35 8635   6.381   1.535   9.951  0.2392 -0.6189 -0.0811
   89SAPS   H5X 8636   6.295   1.591   9.993  0.6690  0.0022 -0.0164
   89SAPS   H5Y 8637   6.359   1.426   9.948 -0.8364 -0.3750 -2.3804
   89SAPS   C36 8638   6.396   1.601   9.806 -0.1331 -0.1652 -0.4683
   89SAPS   H6X 8639   6.482   1.560   9.748  1.0810  0.5005  0.8192
   89SAPS   H6Y 8640   6.419   1.707   9.828  1.1826 -0.4421 -0.4269
   89SAPS   C37 8641   6.271   1.586   9.718  0.3278  0.0446  0.4150
   89SAPS   H7X 8642   6.183   1.616   9.779  0.1029 -0.3808  0.3073
   89SAPS   H7Y 8643   6.259   1.481   9.681 -1.8071 -0.2470  1.8381
   89SAPS   C38 8644   6.287   1.670   9.596 -0.0856  0.2510 -0.1381
   89SAPS   H8X 8645   6.374   1.636   9.537 -0.2306 -1.0524  0.3845
   89SAPS   H8Y 8646   6.296   1.774   9.633 -0.4139 -0.1004  0.9470
   89SAPS   C39 8647   6.157   1.672   9.513  0.5228 -0.0013 -0.1602
   89SAPS   H9X 8648   6.071   1.706   9.575  1.1781 -1.7417  1.7585
   89SAPS   H9Y 8649   6.132   1.571   9.473 -3.2631  0.9372 -0.3884
   89SAPS  C310 8650   6.170   1.771   9.402 -0.6523  0.1786  0.0340
   89SAPS  H10X 8651   6.073   1.788   9.351 -0.7513  1.4737  0.6166
   89SAPS  H10Y 8652   6.247   1.726   9.336 -0.0374  3.0874 -1.3139
   89SAPS  C311 8653   6.212   1.918   9.448  0.2492  0.1660  0.3272
   89SAPS  H11X 8654   6.315   1.930   9.486  0.2314  0.6107  0.2471
   89SAPS  H11Y 8655   6.137   1.938   9.527 -1.0576 -0.3534 -0.7561
   89SAPS  C312 8656   6.180   2.026   9.335 -0.1698  0.2039 -0.5116
   89SAPS  H12X 8657   6.196   2.130   9.371  0.2441  0.0860 -0.3500
   89SAPS  H12Y 8658   6.072   2.014   9.314  0.0198 -2.2510 -0.3356
   89SAPS  C313 8659   6.245   2.009   9.196 -0.0906 -0.5683  0.1407
   89SAPS  H13X 8660   6.249   1.901   9.170 -1.3496 -0.4610 -0.5482
   89SAPS  H13Y 8661   6.348   2.048   9.205 -0.8195  1.1920  1.3443
   89SAPS  C314 8662   6.165   2.087   9.081 -0.7385  0.0495 -0.9579
   89SAPS  H14X 8663   6.130   2.187   9.113  0.3042 -0.6182  2.4259
   89SAPS  H14Y 8664   6.072   2.034   9.049 -0.7125  0.1304 -1.1696
   89SAPS  C315 8665   6.258   2.097   8.963  0.7287 -0.6999  0.2095
   89SAPS  H15X 8666   6.283   1.995   8.927 -3.1680 -1.5158 -0.3468
   89SAPS  H15Y 8667   6.346   2.158   8.993  1.1720 -0.8907 -0.6792
   89SAPS  C316 8668   6.193   2.175   8.846 -0.3212  0.8449 -0.4103
   89SAPS  H16X 8669   6.268   2.211   8.773  2.5566 -0.9479  1.5745
   89SAPS  H16Y 8670   6.143   2.263   8.892  1.4687  1.1456  1.0335
   89SAPS  C317 8671   6.089   2.089   8.773  0.3156 -0.2169  0.1469
   89SAPS  H17X 8672   6.006   2.056   8.839 -1.2989 -0.2224 -1.8472
   89SAPS  H17Y 8673   6.135   2.002   8.722  1.6759  1.1873 -1.0916
   89SAPS  C318 8674   6.026   2.162   8.656 -0.3806 -0.4748  0.3423
   89SAPS  H18X 8675   5.961   2.082   8.615 -2.2926  0.1406  2.0869
   89SAPS  H18Y 8676   6.103   2.201   8.586  1.3383 -1.8300  1.4517
   89SAPS  H18Z 8677   5.958   2.247   8.679 -2.7537 -2.1698 -0.2354
   90SAPS     N 8678   1.458   1.245  10.959 -0.0274 -0.6357 -0.1405
   90SAPS   HN1 8679   1.449   1.209  11.056  1.2118  0.4086  0.3715
   90SAPS   HN2 8680   1.418   1.341  10.952  1.8193  0.3883  2.6635
   90SAPS   HN3 8681   1.400   1.179  10.902  0.3269  0.2657 -1.5505
   90SAPS   C12 8682   1.599   1.252  10.919 -0.0129  0.5747  0.6465
   90SAPS  H12A 8683   1.601   1.325  10.839  0.6658 -0.3655 -0.2100
   90SAPS   C13 8684   1.698   1.305  11.028 -0.2099 -0.8424 -0.1591
   90SAPS  O13A 8685   1.642   1.371  11.122 -0.2672 -0.0709 -0.6200
   90SAPS  O13B 8686   1.822   1.314  11.004  0.2011  0.4074  0.2253
   90SAPS   C11 8687   1.652   1.108  10.893  0.6249 -0.0111  0.6291
   90SAPS  H11A 8688   1.615   1.040  10.973  0.8779 -0.9902 -0.0692
   90SAPS  H11B 8689   1.763   1.102  10.884  0.3667 -1.7317 -2.0480
   90SAPS     P 8690   1.633   0.929  10.683 -0.1845 -0.1743 -0.0182
   90SAPS   O13 8691   1.782   0.904  10.687  0.2489  0.0301 -0.4830
   90SAPS   O14 8692   1.553   0.819  10.739  0.1361  0.1017  0.2022
   90SAPS   O12 8693   1.595   1.064  10.766 -0.4681  0.8168  0.6014
   90SAPS   O11 8694   1.588   0.943  10.532  0.3083  0.6282 -0.2951
   90SAPS    C1 8695   1.456   0.994  10.494 -0.2841 -0.5547 -0.7250
   90SAPS    HA 8696   1.426   1.077  10.560 -3.6346  0.5385 -3.4389
   90SAPS    HB 8697   1.469   1.024  10.388  1.4969 -0.7279 -0.5673
   90SAPS    C2 8698   1.355   0.880  10.488 -0.5975  0.3132  0.4129
   90SAPS    HS 8699   1.340   0.845  10.592 -2.3071  1.9231  0.7478
   90SAPS   O21 8700   1.409   0.776  10.403 -0.3216 -0.1957 -0.0542
   90SAPS   C21 8701   1.393   0.653  10.442  0.5632  0.5759  0.4983
   90SAPS   O22 8702   1.340   0.611  10.543  0.6522  0.2143  0.3086
   90SAPS   C22 8703   1.425   0.549  10.335 -0.0053  0.3600 -0.0353
   90SAPS   H2R 8704   1.355   0.578  10.254  0.4050 -0.3974 -0.6664
   90SAPS   H2S 8705   1.533   0.563  10.316  0.1528  1.6479  1.7004
   90SAPS    C3 8706   1.224   0.933  10.432  0.4745 -0.1583 -0.4841
   90SAPS    HX 8707   1.170   0.995  10.507  0.4670  0.7296 -1.2085
   90SAPS    HY 8708   1.155   0.846  10.430 -0.4839  0.5510  1.3620
   90SAPS   O31 8709   1.242   0.989  10.301  0.2190 -0.1167 -0.0509
   90SAPS   C31 8710   1.224   0.899  10.200 -0.6851 -0.2306 -0.5428
   90SAPS   O32 8711   1.188   0.786  10.214  0.6965 -0.3877 -0.1735
   90SAPS   C32 8712   1.246   0.965  10.061  0.3422  0.7044  0.3426
   90SAPS   H2X 8713   1.353   0.994  10.056 -0.2208  2.7933 -0.1187
   90SAPS   H2Y 8714   1.186   1.058  10.051  2.3286  1.9344 -0.2953
   90SAPS   C23 8715   1.393   0.397  10.372  0.4198 -0.3189 -0.0461
   90SAPS   H3R 8716   1.288   0.396  10.405  0.4164  0.0019 -0.0495
   90SAPS   H3S 8717   1.460   0.371  10.457 -0.9764 -1.7105  0.6404
   90SAPS   C24 8718   1.419   0.299  10.255  0.4628 -0.2415  0.4611
   90SAPS   H4R 8719   1.335   0.313  10.183 -1.0830 -0.4141  2.1972
   90SAPS   H4S 8720   1.424   0.192  10.286  2.4287  0.0480  1.2074
   90SAPS   C25 8721   1.558   0.320  10.209  0.6873  0.3219 -0.8256
   90SAPS   H5R 8722   1.636   0.326  10.286  0.1256 -1.2765 -0.1097
   90SAPS   C26 8723   1.594   0.345  10.084 -0.0221 -0.2383  1.2623
   90SAPS   H6R 8724   1.698   0.354  10.048 -0.6111 -2.1409 -1.0882
   90SAPS   C27 8725   1.502   0.355   9.971 -0.1866 -0.2499  0.3186
   90SAPS   H7R 8726   1.408   0.301   9.997 -0.9735  0.2007 -1.5035
   90SAPS   H7S 8727   1.553   0.317   9.880 -2.1191  1.5951 -1.5702
   90SAPS   C28 8728   1.452   0.498   9.935 -0.3079 -1.1709  0.2167
   90SAPS   H8R 8729   1.433   0.562  10.022  0.1308 -1.6868  0.6941
   90SAPS   C29 8730   1.426   0.551   9.809  0.0062 -0.3212  0.2675
   90SAPS   H9R 8731   1.382   0.651   9.798  0.9430  0.2209  1.3636
   90SAPS  C210 8732   1.427   0.480   9.679  0.7009  1.0057  0.4793
   90SAPS  H10R 8733   1.532   0.489   9.645  0.5142  3.1038  0.4039
   90SAPS  H10S 8734   1.367   0.542   9.610 -0.6872 -2.4602 -1.5912
   90SAPS  C211 8735   1.377   0.333   9.666 -0.1031 -0.0337  0.1369
   90SAPS  H11R 8736   1.336   0.280   9.754 -3.5992 -0.0479 -1.4067
   90SAPS  C212 8737   1.372   0.267   9.546  0.1544  0.6372  0.4733
   90SAPS  H12R 8738   1.330   0.166   9.548 -1.0288  1.0906 -0.3241
   90SAPS  C213 8739   1.432   0.323   9.418 -0.1917 -0.0147  0.7472
   90SAPS  H13R 8740   1.493   0.247   9.365 -0.3417  0.0719  0.4476
   90SAPS  H13S 8741   1.507   0.403   9.436 -0.8953  0.3570  2.0724
   90SAPS  C214 8742   1.325   0.379   9.326  0.2875 -0.5786  0.3869
   90SAPS  H14R 8743   1.278   0.472   9.364  0.0908 -1.3152  1.9841
   90SAPS  C215 8744   1.291   0.334   9.207  0.7352  0.6403 -0.2013
   90SAPS  H15R 8745   1.223   0.393   9.144  0.5237  1.3637  0.6865
   90SAPS  C216 8746   1.353   0.211   9.148  0.1077  0.2471 -0.8300
   90SAPS  H16R 8747   1.344   0.130   9.223  1.8070  1.6577  0.9337
   90SAPS  H16S 8748   1.461   0.225   9.127  0.3146  2.2622  1.3895
   90SAPS  C217 8749   1.287   0.155   9.016  0.7011 -0.8183  0.4398
   90SAPS  H17R 8750   1.182   0.123   9.031  0.6768 -0.5473  0.8442
   90SAPS  H17S 8751   1.344   0.062   8.991 -1.3312 -2.2196  0.8883
   90SAPS  C218 8752   1.288   0.255   8.893  0.7840 -0.3989  0.7654
   90SAPS  H18R 8753   1.268   0.357   8.933 -1.0076 -0.9842  1.4132
   90SAPS  H18S 8754   1.210   0.241   8.816  3.0095 -2.4000 -1.2005
   90SAPS  C219 8755   1.427   0.268   8.839  0.8306 -0.4207 -0.1965
   90SAPS  H19R 8756   1.460   0.165   8.811 -0.1953 -0.8297  0.0782
   90SAPS  H19S 8757   1.502   0.302   8.913 -0.0656  1.9060 -0.3272
   90SAPS  C220 8758   1.438   0.357   8.711 -0.8833  0.1079 -0.8210
   90SAPS  H20R 8759   1.542   0.360   8.671 -0.6565  0.8679 -0.1749
   90SAPS  H20S 8760   1.394   0.457   8.731 -2.6376 -0.6141 -0.9377
   90SAPS  H20T 8761   1.378   0.299   8.637 -0.1640  0.0625 -1.3805
   90SAPS   C33 8762   1.211   0.883   9.931 -0.3031  0.2093 -0.5554
   90SAPS   H3X 8763   1.100   0.881   9.939 -0.3008  1.3094 -0.1256
   90SAPS   H3Y 8764   1.257   0.784   9.949  1.6532  1.0377 -0.8552
   90SAPS   C34 8765   1.262   0.950   9.803  0.1373  0.1189 -0.2546
   90SAPS   H4X 8766   1.373   0.954   9.805  0.2033 -1.1686  3.1028
   90SAPS   H4Y 8767   1.226   1.055   9.806 -1.8310 -0.5459  0.2448
   90SAPS   C35 8768   1.209   0.884   9.678  0.1719 -0.6703 -0.4198
   90SAPS   H5X 8769   1.098   0.888   9.679  0.2162  1.1628  0.1156
   90SAPS   H5Y 8770   1.256   0.784   9.676 -1.9248 -1.6850 -0.0090
   90SAPS   C36 8771   1.265   0.948   9.552 -0.3771  0.9627 -0.6828
   90SAPS   H6X 8772   1.374   0.968   9.562  0.1300 -0.5811 -2.7620
   90SAPS   H6Y 8773   1.222   1.049   9.538  1.6866  1.6790 -2.0495
   90SAPS   C37 8774   1.229   0.862   9.433 -0.7603  0.3526 -0.1093
   90SAPS   H7X 8775   1.122   0.833   9.439 -0.6578  0.1611  0.9063
   90SAPS   H7Y 8776   1.290   0.772   9.455 -0.1284  0.6549 -0.5971
   90SAPS   C38 8777   1.260   0.930   9.309 -0.4413  0.7409  0.5952
   90SAPS   H8X 8778   1.371   0.939   9.310 -0.2496 -1.3962  0.7411
   90SAPS   H8Y 8779   1.211   1.030   9.308  0.6636  1.3219  1.8443
   90SAPS   C39 8780   1.208   0.844   9.191 -0.5594  0.4252  0.4282
   90SAPS   H9X 8781   1.235   0.907   9.104  0.0739 -0.6386 -0.1490
   90SAPS   H9Y 8782   1.098   0.828   9.187 -0.5812  0.9297 -1.5151
   90SAPS  C310 8783   1.275   0.703   9.175  0.3401  0.2556 -0.0532
   90SAPS  H10X 8784   1.201   0.628   9.211  1.1548  0.2040  1.5496
   90SAPS  H10Y 8785   1.361   0.694   9.244  1.5256  1.8843 -1.2927
   90SAPS  C311 8786   1.315   0.668   9.032 -0.5959  0.2078 -0.4411
   90SAPS  H11X 8787   1.255   0.711   8.949 -0.7518  1.5487  0.3565
   90SAPS  H11Y 8788   1.310   0.557   9.031 -3.5807  0.3050 -0.5118
   90SAPS  C312 8789   1.459   0.720   9.004 -0.0367  0.0127 -0.3720
   90SAPS  H12X 8790   1.525   0.651   9.061 -0.2104  0.4506  0.3638
   90SAPS  H12Y 8791   1.480   0.822   9.044  2.5626  0.1230 -1.8370
   90SAPS  C313 8792   1.503   0.729   8.858  0.0472 -0.1351  0.7444
   90SAPS  H13X 8793   1.508   0.626   8.817 -0.6825 -0.4539  1.4311
   90SAPS  H13Y 8794   1.610   0.759   8.849 -0.0542  0.0344  0.0780
   90SAPS  C314 8795   1.414   0.806   8.755 -0.1240  0.1381 -0.1992
   90SAPS  H14X 8796   1.323   0.745   8.738 -1.4172  1.3150  2.3144
   90SAPS  H14Y 8797   1.475   0.812   8.662  1.7708  0.5665  1.0527
   90SAPS  C315 8798   1.378   0.947   8.808  0.3214  0.0767 -0.1875
   90SAPS  H15X 8799   1.467   1.006   8.839  1.6209 -1.0060 -1.8132
   90SAPS  H15Y 8800   1.325   0.931   8.905  0.3225  0.4779 -0.1198
   90SAPS  C316 8801   1.296   1.031   8.717 -0.4171 -0.4944  0.7819
   90SAPS  H16X 8802   1.368   1.039   8.633  0.5626  1.0115  1.7282
   90SAPS  H16Y 8803   1.280   1.129   8.768 -2.1618 -0.6619  0.5790
   90SAPS  C317 8804   1.161   0.968   8.685  0.6429  0.3818 -0.1532
   90SAPS  H17X 8805   1.108   0.948   8.780 -2.6452  1.3176 -1.7077
   90SAPS  H17Y 8806   1.177   0.869   8.637 -0.9236  0.2210 -0.3858
   90SAPS  C318 8807   1.075   1.059   8.596 -0.1782 -0.4144  0.1140
   90SAPS  H18X 8808   1.117   1.053   8.493  0.8384  2.2304  0.3346
   90SAPS  H18Y 8809   1.061   1.164   8.630 -0.7541 -0.6408  0.5949
   90SAPS  H18Z 8810   0.976   1.010   8.578  0.2658  0.0348 -4.1939
   91SAPS     N 8811   6.193   5.521   6.169 -0.0630 -0.5723 -0.0903
   91SAPS   HN1 8812   6.096   5.498   6.198 -0.0819 -1.2160 -0.6606
   91SAPS   HN2 8813   6.255   5.468   6.234  0.1924  0.3883  0.4718
   91SAPS   HN3 8814   6.206   5.624   6.178 -0.5482 -0.1984 -3.2688
   91SAPS   C12 8815   6.201   5.483   6.021 -0.1240 -0.2986  0.2496
   91SAPS  H12A 8816   6.114   5.529   5.977 -0.4139  1.0439  2.1282
   91SAPS   C13 8817   6.334   5.524   5.953  0.2151 -0.6953 -0.5473
   91SAPS  O13A 8818   6.425   5.578   6.024 -0.0847  0.1180 -0.1250
   91SAPS  O13B 8819   6.368   5.481   5.840 -0.0519  0.1267 -0.1480
   91SAPS   C11 8820   6.181   5.329   6.012 -0.7890  0.4705  0.5691
   91SAPS  H11A 8821   6.273   5.293   6.063 -0.7755  0.1474  0.3108
   91SAPS  H11B 8822   6.170   5.309   5.904 -1.2246  0.7402  0.5614
   91SAPS     P 8823   6.027   5.132   6.081 -0.4080 -0.0005  0.3990
   91SAPS   O13 8824   5.886   5.092   6.110  0.4389 -0.0341 -0.0113
   91SAPS   O14 8825   6.093   5.059   5.969 -0.1429 -0.0869  0.0436
   91SAPS   O12 8826   6.051   5.289   6.075 -0.4098 -0.0278  0.4610
   91SAPS   O11 8827   6.120   5.096   6.206  0.3171 -0.2067 -0.0208
   91SAPS    C1 8828   6.098   5.122   6.343  0.2043 -0.4460  0.2012
   91SAPS    HA 8829   5.990   5.124   6.365  0.1385  2.0736 -0.2210
   91SAPS    HB 8830   6.122   5.031   6.403 -0.4305 -0.2074  0.8179
   91SAPS    C2 8831   6.181   5.249   6.400  0.3899  0.3942 -0.0531
   91SAPS    HS 8832   6.177   5.333   6.328  0.2850  0.8091  0.4357
   91SAPS   O21 8833   6.316   5.210   6.422 -0.1045  0.4226  0.5500
   91SAPS   C21 8834   6.408   5.293   6.382  0.1936 -0.0985 -0.3273
   91SAPS   O22 8835   6.388   5.402   6.326  0.2662  0.8679  0.1537
   91SAPS   C22 8836   6.542   5.247   6.433  0.5152  0.6782 -0.4467
   91SAPS   H2R 8837   6.574   5.169   6.362 -0.9923 -0.9040  0.5807
   91SAPS   H2S 8838   6.611   5.330   6.405 -0.4153  1.4858 -0.3994
   91SAPS    C3 8839   6.118   5.306   6.533 -0.0397  0.4451  0.7679
   91SAPS    HX 8840   6.107   5.213   6.593  2.4914 -0.9436 -0.8316
   91SAPS    HY 8841   6.019   5.354   6.516 -0.3469  0.9381  3.7097
   91SAPS   O31 8842   6.205   5.391   6.603 -0.0352 -0.1882  0.5646
   91SAPS   C31 8843   6.197   5.525   6.579  0.6480 -0.5548 -0.1123
   91SAPS   O32 8844   6.110   5.577   6.508 -0.4261  0.2995 -0.2524
   91SAPS   C32 8845   6.292   5.592   6.666 -0.2763 -0.3768  0.4441
   91SAPS   H2X 8846   6.376   5.621   6.599 -0.8501 -1.1298 -0.6142
   91SAPS   H2Y 8847   6.337   5.525   6.744  3.3207 -0.9999 -2.0342
   91SAPS   C23 8848   6.547   5.195   6.584 -0.0358 -0.0313 -0.1381
   91SAPS   H3R 8849   6.482   5.105   6.591 -2.2875  1.7041  1.8545
   91SAPS   H3S 8850   6.499   5.279   6.637  0.5500  0.9591 -1.1439
   91SAPS   C24 8851   6.688   5.181   6.625 -0.0534  0.3589  0.7355
   91SAPS   H4R 8852   6.736   5.281   6.635 -0.5547  0.8489 -1.3807
   91SAPS   H4S 8853   6.755   5.124   6.556  0.2938 -1.4471  2.5342
   91SAPS   C25 8854   6.710   5.108   6.764  0.2316  0.3063  0.7720
   91SAPS   H5R 8855   6.732   5.000   6.762  0.0077  0.2724 -2.1036
   91SAPS   C26 8856   6.687   5.165   6.883  0.0840 -0.4021 -0.3470
   91SAPS   H6R 8857   6.721   5.120   6.978  0.9138 -0.8358 -0.8382
   91SAPS   C27 8858   6.638   5.311   6.908 -0.1852  0.6604 -0.2378
   91SAPS   H7R 8859   6.624   5.369   6.814  0.2137  1.3328  0.1113
   91SAPS   H7S 8860   6.729   5.363   6.944  0.2736  0.3915 -1.0020
   91SAPS   C28 8861   6.519   5.319   6.999 -0.2868  0.5801  0.1212
   91SAPS   H8R 8862   6.424   5.286   6.955 -0.7206 -0.8872  2.1078
   91SAPS   C29 8863   6.520   5.337   7.135  0.3800  0.3572  1.0883
   91SAPS   H9R 8864   6.424   5.337   7.188 -0.2181 -2.0111  0.0894
   91SAPS  C210 8865   6.644   5.379   7.215  0.6055 -0.5035 -0.2888
   91SAPS  H10R 8866   6.637   5.488   7.236 -1.6736 -0.2433 -2.2018
   91SAPS  H10S 8867   6.741   5.372   7.160 -0.9206  2.6415 -3.5585
   91SAPS  C211 8868   6.657   5.306   7.345 -0.1136 -0.4248  0.6926
   91SAPS  H11R 8869   6.720   5.216   7.343  0.8742  0.2712 -1.1517
   91SAPS  C212 8870   6.615   5.360   7.461 -0.8525 -0.5992  0.8907
   91SAPS  H12R 8871   6.632   5.303   7.553 -0.3403 -0.6361  0.7754
   91SAPS  C213 8872   6.542   5.487   7.493  0.6452 -0.3041 -0.7237
   91SAPS  H13R 8873   6.474   5.452   7.574  3.5284  0.5939  2.2370
   91SAPS  H13S 8874   6.478   5.519   7.409 -0.7584 -1.0456  0.0340
   91SAPS  C214 8875   6.620   5.607   7.543 -0.7448  0.3811 -0.7834
   91SAPS  H14R 8876   6.652   5.681   7.468  1.8747  1.4754  1.3195
   91SAPS  C215 8877   6.642   5.637   7.669 -0.1938  0.0292 -0.3475
   91SAPS  H15R 8878   6.713   5.718   7.695  0.1854  0.3804 -2.3564
   91SAPS  C216 8879   6.592   5.557   7.780  0.0927  0.7448  0.7225
   91SAPS  H16R 8880   6.584   5.450   7.752  2.0928  0.4159  1.2891
   91SAPS  H16S 8881   6.492   5.591   7.815  0.0991  0.1910  1.2948
   91SAPS  C217 8882   6.694   5.548   7.898  0.0083 -0.1379  0.0954
   91SAPS  H17R 8883   6.726   5.646   7.940  0.1072 -0.2689  0.3254
   91SAPS  H17S 8884   6.785   5.498   7.857  0.0305 -2.4125  2.8146
   91SAPS  C218 8885   6.646   5.459   8.012  0.3262 -0.2655 -0.5567
   91SAPS  H18R 8886   6.637   5.353   7.979  0.3792 -0.2006 -0.7768
   91SAPS  H18S 8887   6.544   5.492   8.042  0.8425  0.3883  0.4851
   91SAPS  C219 8888   6.753   5.443   8.126  0.3627 -0.1451  0.8301
   91SAPS  H19R 8889   6.708   5.395   8.216  0.8968 -0.4630  0.9253
   91SAPS  H19S 8890   6.762   5.543   8.174 -1.9353 -0.8468  2.8603
   91SAPS  C220 8891   6.890   5.377   8.084 -0.3640 -0.4386  0.2356
   91SAPS  H20R 8892   6.946   5.442   8.013 -1.9773 -0.5472 -1.1659
   91SAPS  H20S 8893   6.872   5.285   8.024 -1.3135 -1.4526  2.0360
   91SAPS  H20T 8894   6.955   5.353   8.171  0.6810 -3.1683 -1.2470
   91SAPS   C33 8895   6.238   5.723   6.727 -0.2170 -0.1799 -0.2569
   91SAPS   H3X 8896   6.147   5.695   6.784  0.0229  2.0838  1.3309
   91SAPS   H3Y 8897   6.209   5.796   6.649  1.1542  1.0323  0.3363
   91SAPS   C34 8898   6.330   5.802   6.819 -0.4943  0.4189 -0.1506
   91SAPS   H4X 8899   6.418   5.846   6.767 -1.0667  1.4534 -0.2438
   91SAPS   H4Y 8900   6.380   5.726   6.883  1.0774  1.6690  0.1178
   91SAPS   C35 8901   6.261   5.895   6.908  0.5152  0.5890 -0.4461
   91SAPS   H5X 8902   6.183   5.946   6.848 -2.6815 -0.3670  2.7600
   91SAPS   H5Y 8903   6.332   5.973   6.946  0.3187  1.0039 -0.9312
   91SAPS   C36 8904   6.194   5.842   7.034  0.0316 -0.1946  0.0815
   91SAPS   H6X 8905   6.141   5.745   7.020  0.6886 -1.0064  2.9389
   91SAPS   H6Y 8906   6.113   5.916   7.053 -0.6187 -1.0421  0.6747
   91SAPS   C37 8907   6.287   5.829   7.156  0.3247 -0.5005 -0.2263
   91SAPS   H7X 8908   6.375   5.896   7.153  1.0253 -1.3060  1.6467
   91SAPS   H7Y 8909   6.340   5.731   7.157  3.2321  1.0025 -1.3093
   91SAPS   C38 8910   6.212   5.866   7.287  0.3591 -0.3842  0.2250
   91SAPS   H8X 8911   6.131   5.791   7.294  0.8929 -1.2378 -2.0077
   91SAPS   H8Y 8912   6.166   5.967   7.289  1.4952  0.2782 -2.9667
   91SAPS   C39 8913   6.299   5.848   7.414  0.5175  0.5634  0.2155
   91SAPS   H9X 8914   6.402   5.889   7.405  1.8294 -2.1590  2.1210
   91SAPS   H9Y 8915   6.320   5.744   7.445  1.1049  0.6707  0.1745
   91SAPS  C310 8916   6.242   5.904   7.544  0.2342 -0.4359 -0.4629
   91SAPS  H10X 8917   6.148   5.852   7.570  1.1431 -0.7156  2.5795
   91SAPS  H10Y 8918   6.210   6.011   7.543  0.2004 -0.3804  2.2557
   91SAPS  C311 8919   6.335   5.876   7.656 -0.1726  0.2103 -0.0756
   91SAPS  H11X 8920   6.432   5.929   7.648  1.1491 -1.9701  0.9742
   91SAPS  H11Y 8921   6.371   5.771   7.666  1.6292  0.9852  1.9988
   91SAPS  C312 8922   6.276   5.924   7.792  0.0207 -0.0908  0.1434
   91SAPS  H12X 8923   6.327   5.860   7.867  0.5879 -0.4098 -0.4984
   91SAPS  H12Y 8924   6.167   5.904   7.793 -0.0373  0.2328  0.3848
   91SAPS  C313 8925   6.312   6.072   7.811 -0.1916 -1.0462 -0.1510
   91SAPS  H13X 8926   6.250   6.139   7.748  0.1002  2.9204  3.5524
   91SAPS  H13Y 8927   6.421   6.089   7.805 -0.5663  1.0970 -1.1951
   91SAPS  C314 8928   6.282   6.113   7.956  0.5673 -0.4566  0.0951
   91SAPS  H14X 8929   6.326   6.036   8.023 -0.2574 -1.1829 -0.1757
   91SAPS  H14Y 8930   6.172   6.099   7.971  0.6202 -0.7056  0.2610
   91SAPS  C315 8931   6.327   6.257   7.999 -0.3946 -0.1548  0.4795
   91SAPS  H15X 8932   6.270   6.325   7.931  0.9777 -0.1114 -0.6584
   91SAPS  H15Y 8933   6.432   6.270   7.964  0.0109 -0.3932  1.5870
   91SAPS  C316 8934   6.313   6.287   8.150 -0.0949 -0.7760 -0.1419
   91SAPS  H16X 8935   6.357   6.200   8.204 -0.6476 -0.6879  0.4500
   91SAPS  H16Y 8936   6.214   6.311   8.194 -0.3400 -3.7558  1.0819
   91SAPS  C317 8937   6.398   6.409   8.182  0.1928  0.3119 -0.1898
   91SAPS  H17X 8938   6.375   6.490   8.109  0.9747  0.1035 -0.6759
   91SAPS  H17Y 8939   6.503   6.381   8.160 -0.3130 -0.7010 -1.3540
   91SAPS  C318 8940   6.396   6.459   8.327  0.6339 -0.9488 -0.1776
   91SAPS  H18X 8941   6.450   6.555   8.343 -2.4675  1.2755 -2.4218
   91SAPS  H18Y 8942   6.431   6.376   8.392  0.2853  1.4925  3.2762
   91SAPS  H18Z 8943   6.291   6.470   8.363  1.4929  0.3706  2.0382
   92SAPS     N 8944   4.555   3.270   6.219  0.8731  0.5729 -0.2917
   92SAPS   HN1 8945   4.503   3.251   6.131  1.5670  0.1847 -0.6143
   92SAPS   HN2 8946   4.488   3.297   6.295  0.8035 -0.7724  0.1338
   92SAPS   HN3 8947   4.623   3.347   6.205  1.0717 -0.1646 -3.6809
   92SAPS   C12 8948   4.613   3.141   6.266  0.1062 -0.1003 -0.1942
   92SAPS  H12A 8949   4.531   3.091   6.314  0.4807  0.4673  1.0748
   92SAPS   C13 8950   4.670   3.046   6.153  0.2057 -0.7118 -0.0671
   92SAPS  O13A 8951   4.656   3.085   6.034 -0.1443  0.5370  0.2929
   92SAPS  O13B 8952   4.721   2.940   6.187 -0.4404 -0.6468 -0.4249
   92SAPS   C11 8953   4.713   3.169   6.380  0.2115 -0.1025 -0.8412
   92SAPS  H11A 8954   4.791   3.233   6.333  0.8162 -0.3913 -0.2365
   92SAPS  H11B 8955   4.768   3.079   6.412 -0.1148  0.1284  0.3644
   92SAPS     P 8956   4.732   3.290   6.613 -0.2879  0.3004  0.2961
   92SAPS   O13 8957   4.872   3.272   6.583 -0.4195 -0.6867 -0.5908
   92SAPS   O14 8958   4.686   3.430   6.640  0.0962 -0.0185  0.6882
   92SAPS   O12 8959   4.647   3.239   6.488 -0.0852  0.0072 -0.4312
   92SAPS   O11 8960   4.694   3.191   6.731  0.1217  0.4015  0.4702
   92SAPS    C1 8961   4.755   3.068   6.758 -0.5941  1.1584  0.1400
   92SAPS    HA 8962   4.717   2.983   6.697  0.4856  1.9106 -1.6338
   92SAPS    HB 8963   4.864   3.061   6.735 -0.5131 -0.1575  0.8560
   92SAPS    C2 8964   4.761   3.031   6.907 -0.3539 -0.3705 -0.1994
   92SAPS    HS 8965   4.658   3.034   6.949 -0.4349 -0.0429 -0.4125
   92SAPS   O21 8966   4.857   3.118   6.966 -0.1411  0.0072  0.0218
   92SAPS   C21 8967   4.802   3.205   7.056 -0.4368 -0.0338 -0.1097
   92SAPS   O22 8968   4.684   3.216   7.089  0.2230  0.2046  0.4449
   92SAPS   C22 8969   4.917   3.290   7.109 -0.0835 -0.3753  0.8266
   92SAPS   H2R 8970   5.011   3.232   7.094  0.7171  0.2089  3.4723
   92SAPS   H2S 8971   4.908   3.381   7.045  0.8560 -2.5091 -2.4845
   92SAPS    C3 8972   4.817   2.888   6.919 -0.1664 -0.5544 -0.8206
   92SAPS    HX 8973   4.746   2.819   6.870  0.9502 -1.5683 -1.0358
   92SAPS    HY 8974   4.818   2.869   7.029  0.2042 -0.5170 -0.8146
   92SAPS   O31 8975   4.945   2.863   6.861  0.3835 -0.6960  0.0410
   92SAPS   C31 8976   5.056   2.903   6.919 -0.4355 -0.2601 -0.0946
   92SAPS   O32 8977   5.070   2.937   7.036  0.4350 -0.0228 -0.1760
   92SAPS   C32 8978   5.165   2.894   6.819  0.0334  0.4362 -0.2771
   92SAPS   H2X 8979   5.170   2.988   6.760 -2.2117  0.7449 -0.0440
   92SAPS   H2Y 8980   5.153   2.803   6.756 -2.0555 -0.7280  1.7118
   92SAPS   C23 8981   4.896   3.330   7.254 -0.5214 -0.0400  0.2016
   92SAPS   H3R 8982   4.789   3.338   7.284 -1.2266 -1.1356 -1.8966
   92SAPS   H3S 8983   4.935   3.432   7.275 -0.4883 -0.2664  1.2701
   92SAPS   C24 8984   4.973   3.245   7.346  0.3967  0.0900 -0.0965
   92SAPS   H4R 8985   4.939   3.269   7.449  0.1516  0.4103 -0.2540
   92SAPS   H4S 8986   5.080   3.270   7.357  0.2237  0.7904 -0.0338
   92SAPS   C25 8987   4.963   3.096   7.325 -0.0266  0.2778 -0.4083
   92SAPS   H5R 8988   5.035   3.049   7.256 -0.6750 -1.2835 -0.0375
   92SAPS   C26 8989   4.878   3.006   7.377 -0.7405 -0.6139 -0.4907
   92SAPS   H6R 8990   4.868   2.903   7.340 -1.2824  0.2113 -2.6811
   92SAPS   C27 8991   4.770   3.025   7.480  1.1196 -0.1521 -0.1608
   92SAPS   H7R 8992   4.817   3.093   7.555  1.1490  1.3887 -1.5512
   92SAPS   H7S 8993   4.751   2.930   7.534 -1.1666  0.2001 -0.2742
   92SAPS   C28 8994   4.640   3.085   7.439 -1.6494  0.0908  0.4235
   92SAPS   H8R 8995   4.639   3.130   7.339 -0.3290 -1.1792 -0.1890
   92SAPS   C29 8996   4.522   3.080   7.515  0.5016  0.0319  0.3618
   92SAPS   H9R 8997   4.436   3.138   7.478  0.4630  1.5374  2.6752
   92SAPS  C210 8998   4.506   3.032   7.652 -0.5937 -0.2021 -0.0314
   92SAPS  H10R 8999   4.554   3.095   7.730  0.6420  0.8751 -1.6401
   92SAPS  H10S 9000   4.567   2.941   7.671 -2.7228 -1.6167  0.1744
   92SAPS  C211 9001   4.362   2.998   7.682 -0.0211  0.2643 -0.0651
   92SAPS  H11R 9002   4.309   2.940   7.606  2.6958 -1.2067 -0.8802
   92SAPS  C212 9003   4.300   3.014   7.801 -0.0841  0.7069 -0.4460
   92SAPS  H12R 9004   4.194   2.984   7.803 -0.1709  1.0566  0.4336
   92SAPS  C213 9005   4.355   3.069   7.930  0.2389  0.0909  0.1578
   92SAPS  H13R 9006   4.410   3.158   7.892  1.0487  0.6428  2.5440
   92SAPS  H13S 9007   4.421   2.991   7.974 -1.2305 -0.7571  0.8942
   92SAPS  C214 9008   4.253   3.116   8.033 -1.0382 -0.2963  0.3676
   92SAPS  H14R 9009   4.225   3.222   8.036 -1.3228 -0.3827  4.3481
   92SAPS  C215 9010   4.212   3.032   8.129 -0.8213 -0.4110 -0.2868
   92SAPS  H15R 9011   4.152   3.077   8.210 -1.7265  0.7531 -1.5805
   92SAPS  C216 9012   4.253   2.887   8.145  0.1899 -0.3261 -0.0474
   92SAPS  H16R 9013   4.310   2.840   8.061  0.3027 -2.9999  1.4789
   92SAPS  H16S 9014   4.160   2.827   8.149  0.1301 -0.2857 -0.6836
   92SAPS  C217 9015   4.337   2.858   8.273  0.3118  0.3079  0.7160
   92SAPS  H17R 9016   4.318   2.752   8.300  2.4565 -0.1831  0.3165
   92SAPS  H17S 9017   4.306   2.917   8.363 -1.7456 -1.9101  1.5363
   92SAPS  C218 9018   4.483   2.890   8.252  0.2389 -0.3166  0.0782
   92SAPS  H18R 9019   4.500   2.999   8.247  2.9091 -0.6187  1.7381
   92SAPS  H18S 9020   4.503   2.844   8.153  0.4436 -1.1703  0.5056
   92SAPS  C219 9021   4.574   2.832   8.360 -0.6431  0.2880  0.4607
   92SAPS  H19R 9022   4.554   2.882   8.457 -1.4146  0.6477  0.1164
   92SAPS  H19S 9023   4.678   2.856   8.329 -0.2027 -0.9458  0.9269
   92SAPS  C220 9024   4.578   2.677   8.373 -0.5364  0.5088  0.0534
   92SAPS  H20R 9025   4.645   2.645   8.456  2.1613 -0.3271 -2.3687
   92SAPS  H20S 9026   4.603   2.632   8.275 -1.3578  1.2328 -0.4967
   92SAPS  H20T 9027   4.483   2.626   8.400 -0.1550 -0.3306 -0.1783
   92SAPS   C33 9028   5.307   2.888   6.894  0.9996 -0.5175  0.3707
   92SAPS   H3X 9029   5.378   2.842   6.822  0.9472  2.4924 -1.6845
   92SAPS   H3Y 9030   5.301   2.826   6.986  1.4437 -1.6293 -0.3328
   92SAPS   C34 9031   5.368   3.024   6.933 -0.0365 -0.0679  0.9299
   92SAPS   H4X 9032   5.343   3.108   6.864  0.3008  0.2812  1.2259
   92SAPS   H4Y 9033   5.479   3.025   6.928 -0.1230  0.0454 -1.3051
   92SAPS   C35 9034   5.326   3.074   7.070 -0.4510 -0.2536 -0.1777
   92SAPS   H5X 9035   5.359   3.006   7.152  0.5851 -0.9857 -1.1809
   92SAPS   H5Y 9036   5.218   3.101   7.072 -0.3246  0.2091  1.4970
   92SAPS   C36 9037   5.409   3.202   7.105 -0.2157  0.2977  0.8784
   92SAPS   H6X 9038   5.391   3.266   7.016  0.7269 -0.6039  0.0302
   92SAPS   H6Y 9039   5.515   3.170   7.108 -0.0591  0.7542  0.2241
   92SAPS   C37 9040   5.366   3.275   7.226 -0.2419  0.5162 -0.6394
   92SAPS   H7X 9041   5.261   3.306   7.205  0.3336  1.2084 -2.5700
   92SAPS   H7Y 9042   5.432   3.363   7.242  0.5406  0.6786 -4.3412
   92SAPS   C38 9043   5.378   3.198   7.363 -0.3749 -0.3746 -0.8642
   92SAPS   H8X 9044   5.336   3.095   7.353 -0.6124 -0.1606 -2.1809
   92SAPS   H8Y 9045   5.329   3.254   7.445 -0.6148  0.3239 -1.4751
   92SAPS   C39 9046   5.526   3.166   7.396 -0.0620  0.3854  0.1947
   92SAPS   H9X 9047   5.577   3.264   7.389  1.6010 -0.3660  1.5751
   92SAPS   H9Y 9048   5.555   3.094   7.317 -3.0564 -2.4572  1.5780
   92SAPS  C310 9049   5.549   3.103   7.537 -0.2495  0.8930  0.6660
   92SAPS  H10X 9050   5.658   3.083   7.541 -0.2348  0.5343 -1.0485
   92SAPS  H10Y 9051   5.489   3.011   7.554 -1.6226  1.6714  0.1300
   92SAPS  C311 9052   5.505   3.185   7.654 -0.1416  0.0638 -1.0627
   92SAPS  H11X 9053   5.395   3.203   7.654 -0.1436  0.0710 -1.5531
   92SAPS  H11Y 9054   5.541   3.287   7.628  0.1481  0.5873  1.3532
   92SAPS  C312 9055   5.561   3.128   7.784  0.5194 -0.0394 -1.0208
   92SAPS  H12X 9056   5.669   3.107   7.776  0.7522  0.9984 -0.6274
   92SAPS  H12Y 9057   5.508   3.035   7.816  0.8368 -0.3297 -1.3344
   92SAPS  C313 9058   5.550   3.237   7.895  0.1573 -0.4477 -0.3730
   92SAPS  H13X 9059   5.451   3.279   7.868 -0.2187  0.1703  1.8978
   92SAPS  H13Y 9060   5.635   3.308   7.882 -0.5160  0.6651  1.2431
   92SAPS  C314 9061   5.546   3.175   8.036  0.5760 -0.1939  0.8969
   92SAPS  H14X 9062   5.633   3.107   8.047  1.8615  1.2261 -0.1289
   92SAPS  H14Y 9063   5.457   3.110   8.051 -0.0605 -0.1308 -2.2076
   92SAPS  C315 9064   5.549   3.290   8.140  0.5170  0.6264 -0.0640
   92SAPS  H15X 9065   5.454   3.344   8.119 -1.1376 -2.3694 -0.5911
   92SAPS  H15Y 9066   5.632   3.362   8.123 -1.3302  2.7354 -0.4426
   92SAPS  C316 9067   5.560   3.243   8.291  0.8954 -0.0246 -0.2484
   92SAPS  H16X 9068   5.474   3.175   8.302  1.4667 -0.4013  2.1374
   92SAPS  H16Y 9069   5.542   3.330   8.358  0.3444  1.3399 -2.1175
   92SAPS  C317 9070   5.693   3.179   8.318 -0.5204  0.8146  0.1827
   92SAPS  H17X 9071   5.773   3.244   8.276  1.3043 -2.2376 -1.2416
   92SAPS  H17Y 9072   5.704   3.081   8.266 -0.4777  0.6495  0.4951
   92SAPS  C318 9073   5.708   3.178   8.463 -0.2059 -0.0068 -1.2232
   92SAPS  H18X 9074   5.727   3.279   8.503  3.4324 -1.2846  0.4965
   92SAPS  H18Y 9075   5.797   3.127   8.506  0.2982 -0.1364 -2.3966
   92SAPS  H18Z 9076   5.620   3.136   8.515  0.8420  1.1364  1.5644
   93SAPS     N 9077   6.299   4.077   6.083  0.8811 -0.6422  0.3418
   93SAPS   HN1 9078   6.345   4.001   6.138 -1.1216 -1.3988  1.0191
   93SAPS   HN2 9079   6.196   4.065   6.082  1.0009 -1.7461  0.0169
   93SAPS   HN3 9080   6.324   4.065   5.983  0.7904 -2.0723  0.4860
   93SAPS   C12 9081   6.330   4.217   6.123 -0.7014  0.2114  0.8143
   93SAPS  H12A 9082   6.393   4.212   6.211  2.7148  0.9404 -1.4828
   93SAPS   C13 9083   6.395   4.308   6.021 -0.2567 -0.5924 -0.9560
   93SAPS  O13A 9084   6.416   4.264   5.906  0.7739  0.4878  0.6226
   93SAPS  O13B 9085   6.403   4.428   6.050 -0.4700  0.2251  0.2299
   93SAPS   C11 9086   6.200   4.285   6.163  0.6364 -0.4829 -0.4825
   93SAPS  H11A 9087   6.134   4.303   6.075 -0.4568  0.1582  0.4574
   93SAPS  H11B 9088   6.220   4.388   6.200  0.4049  0.1732 -2.1240
   93SAPS     P 9089   6.021   4.243   6.356 -0.4027  0.5034  0.3859
   93SAPS   O13 9090   5.906   4.288   6.272  0.3683 -0.1650 -0.1037
   93SAPS   O14 9091   5.992   4.149   6.462 -0.3882  0.2397 -0.1973
   93SAPS   O12 9092   6.140   4.199   6.262  0.0898 -0.1922 -0.3497
   93SAPS   O11 9093   6.092   4.372   6.413  0.2443  0.0461 -0.3318
   93SAPS    C1 9094   6.231   4.375   6.460 -0.2162  0.6719  0.8368
   93SAPS    HA 9095   6.299   4.321   6.391 -1.3949  1.1409 -0.7267
   93SAPS    HB 9096   6.268   4.479   6.464 -0.3302  0.8077 -1.3188
   93SAPS    C2 9097   6.257   4.325   6.610 -0.7673 -0.3701 -0.0274
   93SAPS    HS 9098   6.229   4.218   6.599  1.1772 -0.7283 -1.7823
   93SAPS   O21 9099   6.178   4.402   6.702  0.1310 -0.1740  0.0786
   93SAPS   C21 9100   6.128   4.355   6.807  0.0260  0.4534  0.1874
   93SAPS   O22 9101   6.119   4.237   6.840  0.1934  0.7765  0.5748
   93SAPS   C22 9102   6.087   4.472   6.904  0.2533  0.2434 -0.3479
   93SAPS   H2R 9103   6.184   4.512   6.939  0.1968 -0.1951  0.3072
   93SAPS   H2S 9104   6.021   4.537   6.842 -1.6469 -0.0246  1.3170
   93SAPS    C3 9105   6.408   4.331   6.660 -1.2492  0.1170  0.2376
   93SAPS    HX 9106   6.439   4.437   6.675  0.3615 -0.3771  0.4202
   93SAPS    HY 9107   6.486   4.288   6.594 -1.4185  0.1688  0.0015
   93SAPS   O31 9108   6.415   4.262   6.787 -0.1325 -0.0957  0.0419
   93SAPS   C31 9109   6.450   4.141   6.800 -0.1793  0.2168 -0.1268
   93SAPS   O32 9110   6.490   4.069   6.709  0.8784  0.1944 -0.1296
   93SAPS   C32 9111   6.435   4.094   6.941 -0.2334 -0.9434  0.6437
   93SAPS   H2X 9112   6.507   4.010   6.950  2.5833  1.2552 -0.8073
   93SAPS   H2Y 9113   6.333   4.055   6.960 -0.8244  0.5950  0.7323
   93SAPS   C23 9114   6.005   4.429   7.026 -1.1885 -0.4643  0.8549
   93SAPS   H3R 9115   6.049   4.334   7.065 -1.0943 -0.1775  1.4613
   93SAPS   H3S 9116   5.902   4.400   7.000 -0.4062 -0.2267 -2.7218
   93SAPS   C24 9117   6.023   4.543   7.129  0.3689 -0.1743 -0.0205
   93SAPS   H4R 9118   5.976   4.636   7.091  0.4894  0.4471  1.3306
   93SAPS   H4S 9119   6.131   4.556   7.149  0.2326 -0.7617  1.2035
   93SAPS   C25 9120   5.960   4.515   7.258 -0.0786 -0.1620  0.1498
   93SAPS   H5R 9121   5.906   4.419   7.264 -0.2512 -0.0482  0.4085
   93SAPS   C26 9122   5.950   4.597   7.367 -0.6604 -0.2226 -0.3224
   93SAPS   H6R 9123   5.892   4.555   7.451  0.2746 -1.9957 -0.5364
   93SAPS   C27 9124   5.996   4.740   7.378 -0.2040  0.5927  0.0347
   93SAPS   H7R 9125   6.004   4.794   7.281  0.0059  0.4719 -0.0173
   93SAPS   H7S 9126   6.105   4.728   7.397 -0.2897  0.3553  0.3772
   93SAPS   C28 9127   5.917   4.818   7.484  0.2717 -0.1679  0.5686
   93SAPS   H8R 9128   5.834   4.885   7.455 -0.1351 -1.2307 -0.7348
   93SAPS   C29 9129   5.950   4.819   7.610  0.8209  0.5225  0.1472
   93SAPS   H9R 9130   5.887   4.874   7.681 -0.4733  3.1036 -2.9013
   93SAPS  C210 9131   6.064   4.746   7.674 -0.5832 -0.4170 -0.5599
   93SAPS  H10R 9132   6.129   4.697   7.599  2.5500  1.8818  0.5331
   93SAPS  H10S 9133   6.023   4.664   7.737 -0.2030 -0.6036 -0.5516
   93SAPS  C211 9134   6.148   4.842   7.754 -0.1940  0.9397 -0.4990
   93SAPS  H11R 9135   6.233   4.873   7.692  0.1016 -0.9828 -1.1152
   93SAPS  C212 9136   6.139   4.873   7.885  0.0503 -0.1361 -0.0615
   93SAPS  H12R 9137   6.219   4.930   7.935 -0.9201  1.1397  0.0376
   93SAPS  C213 9138   6.032   4.830   7.980 -0.1010  0.2780  0.6901
   93SAPS  H13R 9139   5.938   4.846   7.923  0.5706 -0.0312 -0.5275
   93SAPS  H13S 9140   6.028   4.896   8.069  0.6287 -1.1006  1.7522
   93SAPS  C214 9141   6.029   4.688   8.016  0.1202  0.4413 -0.0387
   93SAPS  H14R 9142   6.065   4.627   7.933 -1.2246 -0.4204 -0.0169
   93SAPS  C215 9143   5.980   4.628   8.132 -1.7308 -0.9039  0.2835
   93SAPS  H15R 9144   5.978   4.519   8.129 -0.6736 -0.9955  2.1463
   93SAPS  C216 9145   5.926   4.708   8.242 -0.9106 -0.3737 -0.1301
   93SAPS  H16R 9146   5.862   4.638   8.299 -0.3837 -1.0228 -0.3354
   93SAPS  H16S 9147   5.864   4.784   8.190  0.3679 -0.2731 -1.5367
   93SAPS  C217 9148   6.036   4.772   8.327 -0.2517 -0.0882 -0.0413
   93SAPS  H17R 9149   5.996   4.863   8.378 -0.7296  0.2448 -0.9908
   93SAPS  H17S 9150   6.124   4.814   8.273  0.1654  0.6436  1.1852
   93SAPS  C218 9151   6.095   4.682   8.449  0.4166 -0.3833 -0.4562
   93SAPS  H18R 9152   6.188   4.631   8.414  0.2177 -2.5696  2.0352
   93SAPS  H18S 9153   6.023   4.601   8.472  1.0521 -0.9368 -0.3866
   93SAPS  C219 9154   6.150   4.759   8.570  0.3931  0.3800 -0.0595
   93SAPS  H19R 9155   6.182   4.682   8.643 -0.5670 -0.1682 -0.1996
   93SAPS  H19S 9156   6.062   4.810   8.614  1.0409  2.5097 -1.1790
   93SAPS  C220 9157   6.265   4.857   8.551 -0.0153 -0.2092 -0.0675
   93SAPS  H20R 9158   6.220   4.941   8.494 -1.1436 -1.0856 -0.4765
   93SAPS  H20S 9159   6.348   4.811   8.492 -1.3008 -1.8871 -0.6027
   93SAPS  H20T 9160   6.295   4.901   8.649  0.8014 -0.6618 -0.1049
   93SAPS   C33 9161   6.457   4.193   7.059  0.1736 -0.5385 -0.5198
   93SAPS   H3X 9162   6.496   4.289   7.020  1.0786 -0.0648  1.4645
   93SAPS   H3Y 9163   6.537   4.147   7.121  0.5363 -0.3849 -0.8759
   93SAPS   C34 9164   6.338   4.221   7.148  0.3859  0.2643 -0.0668
   93SAPS   H4X 9165   6.280   4.130   7.176  1.8355 -1.2179 -1.6970
   93SAPS   H4Y 9166   6.275   4.286   7.083  0.1649 -0.2561 -0.3808
   93SAPS   C35 9167   6.366   4.313   7.270 -0.0100  0.1449 -1.2890
   93SAPS   H5X 9168   6.312   4.408   7.251  0.3957  0.8942  1.1106
   93SAPS   H5Y 9169   6.475   4.336   7.267  0.3564 -0.9896  1.2912
   93SAPS   C36 9170   6.334   4.274   7.415  0.7208  0.5448 -0.7356
   93SAPS   H6X 9171   6.385   4.184   7.456  0.2313  0.5571 -0.0825
   93SAPS   H6Y 9172   6.234   4.227   7.414 -0.6593  3.3516 -0.2441
   93SAPS   C37 9173   6.336   4.394   7.509 -0.5436  0.2904 -0.2572
   93SAPS   H7X 9174   6.264   4.468   7.467 -1.1792 -2.3997 -4.1451
   93SAPS   H7Y 9175   6.439   4.432   7.492 -0.1044  0.9811  3.5689
   93SAPS   C38 9176   6.312   4.364   7.652  0.2600 -0.4682  0.0177
   93SAPS   H8X 9177   6.384   4.286   7.685 -0.8424 -2.0230 -1.2032
   93SAPS   H8Y 9178   6.209   4.324   7.660  0.0302  0.2293  0.5422
   93SAPS   C39 9179   6.327   4.481   7.755 -0.7723 -0.2400 -0.5543
   93SAPS   H9X 9180   6.270   4.569   7.718 -0.7938  0.0299  0.1153
   93SAPS   H9Y 9181   6.431   4.518   7.749 -1.3441  1.1211 -2.8225
   93SAPS  C310 9182   6.282   4.449   7.900 -0.4892  0.2448 -0.5517
   93SAPS  H10X 9183   6.174   4.423   7.908 -0.4129 -0.0312 -0.4243
   93SAPS  H10Y 9184   6.298   4.548   7.948 -3.5684  0.9600 -0.8479
   93SAPS  C311 9185   6.352   4.328   7.962  0.0586  0.0572 -0.0466
   93SAPS  H11X 9186   6.458   4.349   7.935  0.0855  1.3661  1.0041
   93SAPS  H11Y 9187   6.322   4.233   7.913  0.7313  0.1901 -0.7246
   93SAPS  C312 9188   6.342   4.320   8.112 -0.0419 -0.2875  0.3252
   93SAPS  H12X 9189   6.388   4.228   8.155 -0.7753  0.5695  3.0274
   93SAPS  H12Y 9190   6.239   4.326   8.151  0.7055  1.2604  2.1311
   93SAPS  C313 9191   6.417   4.431   8.184 -0.5161 -0.1813 -0.2932
   93SAPS  H13X 9192   6.364   4.529   8.174 -1.2316 -0.4294  0.9175
   93SAPS  H13Y 9193   6.515   4.450   8.136 -1.5557 -0.1372 -2.5242
   93SAPS  C314 9194   6.434   4.422   8.341  0.1312  0.2923  0.1009
   93SAPS  H14X 9195   6.334   4.445   8.383 -0.7860 -1.0288 -1.3119
   93SAPS  H14Y 9196   6.490   4.512   8.376  0.9588 -0.6047  1.1039
   93SAPS  C315 9197   6.497   4.291   8.394  0.0395  0.6339 -0.3696
   93SAPS  H15X 9198   6.537   4.309   8.496 -1.3357 -1.6901  0.6217
   93SAPS  H15Y 9199   6.588   4.255   8.342  1.3461 -0.4032  2.5125
   93SAPS  C316 9200   6.396   4.176   8.412 -0.0486 -0.1371 -0.4836
   93SAPS  H16X 9201   6.380   4.119   8.318 -0.4138 -0.2811 -0.3344
   93SAPS  H16Y 9202   6.298   4.219   8.441 -0.3534 -0.7408 -0.6063
   93SAPS  C317 9203   6.449   4.064   8.503 -0.4452  0.3646 -0.4722
   93SAPS  H17X 9204   6.493   4.104   8.596  0.8416  0.8991 -1.2918
   93SAPS  H17Y 9205   6.530   4.003   8.456 -0.3432 -0.3280  0.6018
   93SAPS  C318 9206   6.331   3.972   8.534  0.7993  0.1999  0.5783
   93SAPS  H18X 9207   6.264   4.023   8.607  0.5649 -0.0067  0.5077
   93SAPS  H18Y 9208   6.362   3.868   8.562 -1.0754 -0.4999  0.1104
   93SAPS  H18Z 9209   6.268   3.969   8.443  0.3180 -3.3861  0.9241
   94SAPS     N 9210   5.695   5.889   5.941 -0.1880  0.1251  0.3354
   94SAPS   HN1 9211   5.611   5.935   5.902  0.3083 -0.0177 -0.9386
   94SAPS   HN2 9212   5.668   5.828   6.021 -1.9382 -0.2603 -0.5469
   94SAPS   HN3 9213   5.744   5.970   5.985  1.5933  0.1161 -1.5736
   94SAPS   C12 9214   5.759   5.825   5.819 -0.3845  0.6947 -0.5854
   94SAPS  H12A 9215   5.795   5.727   5.848  1.0491  0.7753 -1.9990
   94SAPS   C13 9216   5.662   5.809   5.704 -0.2061 -0.6120 -0.0244
   94SAPS  O13A 9217   5.540   5.817   5.716 -0.3407  0.2207  0.1804
   94SAPS  O13B 9218   5.717   5.774   5.594  0.5890  0.0087 -0.7033
   94SAPS   C11 9219   5.880   5.918   5.790 -0.7219  0.5625  0.6762
   94SAPS  H11A 9220   5.852   6.024   5.771 -3.2086 -0.0200  0.9701
   94SAPS  H11B 9221   5.925   5.890   5.692 -0.9197 -2.1980  1.3372
   94SAPS     P 9222   6.084   5.820   5.914 -0.0147 -0.2217 -0.3750
   94SAPS   O13 9223   6.083   5.726   5.799  0.0536  0.5429 -0.3598
   94SAPS   O14 9224   6.210   5.884   5.941  0.2436 -0.2414 -0.6979
   94SAPS   O12 9225   5.975   5.925   5.891  0.2592  0.0507 -0.6838
   94SAPS   O11 9226   6.035   5.743   6.045 -0.3228 -0.0194  0.8104
   94SAPS    C1 9227   5.990   5.807   6.164  0.1143 -0.0241  0.1923
   94SAPS    HA 9228   5.905   5.876   6.141 -0.5089 -1.1005 -0.7904
   94SAPS    HB 9229   5.951   5.732   6.235  0.3547 -0.6271 -0.3137
   94SAPS    C2 9230   6.108   5.884   6.233 -0.4092 -0.4962  0.5223
   94SAPS    HS 9231   6.148   5.972   6.178 -2.3640  0.4502  0.5462
   94SAPS   O21 9232   6.212   5.792   6.261 -0.1605 -0.8697  0.0940
   94SAPS   C21 9233   6.330   5.849   6.276 -0.4480  0.3928  0.5624
   94SAPS   O22 9234   6.365   5.961   6.253 -0.2956 -0.0165 -0.5826
   94SAPS   C22 9235   6.427   5.742   6.328 -0.7049 -0.6526 -0.8751
   94SAPS   H2R 9236   6.370   5.664   6.383  1.3579 -1.4123  0.2570
   94SAPS   H2S 9237   6.472   5.694   6.238 -1.5454 -0.0322 -1.6341
   94SAPS    C3 9238   6.053   5.950   6.361 -0.0399  0.2607  0.1864
   94SAPS    HX 9239   6.014   5.868   6.426 -0.4783  0.3832  0.0766
   94SAPS    HY 9240   5.967   6.011   6.325 -0.3137 -0.0219  0.3592
   94SAPS   O31 9241   6.141   6.027   6.451 -0.5996  0.3214 -0.3322
   94SAPS   C31 9242   6.165   6.151   6.415 -0.7977 -1.0792  0.5593
   94SAPS   O32 9243   6.106   6.209   6.326  0.4513 -0.2524 -0.2521
   94SAPS   C32 9244   6.269   6.203   6.518 -1.0399  0.2716  0.0525
   94SAPS   H2X 9245   6.238   6.306   6.543  0.2502 -0.1581  3.7917
   94SAPS   H2Y 9246   6.367   6.220   6.469  0.1207  0.1614  2.2347
   94SAPS   C23 9247   6.538   5.797   6.417 -0.1781 -0.4215 -0.1763
   94SAPS   H3R 9248   6.494   5.850   6.505  0.0731 -1.4382  0.5716
   94SAPS   H3S 9249   6.582   5.884   6.364  1.2206 -2.4547 -2.4395
   94SAPS   C24 9250   6.637   5.683   6.454 -0.4124  0.2079 -0.4901
   94SAPS   H4R 9251   6.651   5.606   6.375 -1.1773 -1.4048  0.9331
   94SAPS   H4S 9252   6.577   5.631   6.532  0.5932 -0.0315  0.1273
   94SAPS   C25 9253   6.761   5.736   6.509 -0.4408 -0.0650 -0.2803
   94SAPS   H5R 9254   6.846   5.745   6.440 -0.8427  1.6424 -0.5813
   94SAPS   C26 9255   6.796   5.775   6.635 -0.3396 -0.2741  0.2624
   94SAPS   H6R 9256   6.891   5.829   6.654 -1.3988  1.2248  1.4302
   94SAPS   C27 9257   6.716   5.780   6.761  0.3206  0.1088  0.0121
   94SAPS   H7R 9258   6.792   5.754   6.837  0.5642 -2.4073 -1.0478
   94SAPS   H7S 9259   6.633   5.706   6.764  1.4987 -1.3139 -1.4378
   94SAPS   C28 9260   6.657   5.915   6.795 -0.4595 -0.6702  0.5967
   94SAPS   H8R 9261   6.616   5.963   6.705  1.2510  0.2286  0.2575
   94SAPS   C29 9262   6.648   5.985   6.914  0.5484  0.0462  0.2191
   94SAPS   H9R 9263   6.595   6.080   6.930 -1.3750 -1.4471  3.1862
   94SAPS  C210 9264   6.702   5.924   7.041 -0.2083  0.5517 -0.3131
   94SAPS  H10R 9265   6.778   5.849   7.014  0.7072  1.2344  0.3267
   94SAPS  H10S 9266   6.612   5.880   7.090  1.3327 -2.8497 -0.4574
   94SAPS  C211 9267   6.764   6.035   7.119 -0.1038 -0.2646  0.2335
   94SAPS  H11R 9268   6.830   6.103   7.062  0.3200  0.1884  1.2641
   94SAPS  C212 9269   6.751   6.068   7.251  0.0192  1.0147  0.1897
   94SAPS  H12R 9270   6.814   6.149   7.290  0.7318  1.5300 -1.9548
   94SAPS  C213 9271   6.673   5.993   7.355  0.3829 -0.7908 -0.0487
   94SAPS  H13R 9272   6.646   5.889   7.326 -0.9203 -0.6238  0.5377
   94SAPS  H13S 9273   6.571   6.033   7.370  0.3349 -0.9246 -0.0217
   94SAPS  C214 9274   6.755   6.007   7.486  0.3461 -0.0098  0.2290
   94SAPS  H14R 9275   6.836   5.934   7.497 -2.3725 -3.0479  0.9234
   94SAPS  C215 9276   6.731   6.092   7.582 -0.3694  0.1174 -0.2683
   94SAPS  H15R 9277   6.802   6.097   7.666 -1.1875 -0.0691  0.4374
   94SAPS  C216 9278   6.619   6.204   7.582 -0.6757  0.1556 -0.2858
   94SAPS  H16R 9279   6.548   6.177   7.663 -1.4935  0.8079 -0.7836
   94SAPS  H16S 9280   6.558   6.204   7.489 -0.1045 -2.6276 -0.7007
   94SAPS  C217 9281   6.691   6.344   7.575 -0.5624 -0.6060  0.1734
   94SAPS  H17R 9282   6.610   6.416   7.549  0.0802  0.1614  0.3046
   94SAPS  H17S 9283   6.767   6.351   7.494 -2.3660  0.4663 -1.4783
   94SAPS  C218 9284   6.759   6.389   7.709  0.7139 -0.0530  0.6639
   94SAPS  H18R 9285   6.789   6.495   7.703 -0.5423  0.2924  0.4293
   94SAPS  H18S 9286   6.853   6.333   7.731  1.0646  0.5049  0.6018
   94SAPS  C219 9287   6.673   6.357   7.833 -0.0183 -0.6523  0.0566
   94SAPS  H19R 9288   6.654   6.248   7.834 -1.1908 -0.4626 -0.5078
   94SAPS  H19S 9289   6.577   6.411   7.817  0.5616  0.3825  0.0013
   94SAPS  C220 9290   6.737   6.392   7.968  0.2667  0.3572 -0.0060
   94SAPS  H20R 9291   6.678   6.346   8.050 -2.6075  4.0697  0.1120
   94SAPS  H20S 9292   6.760   6.500   7.979 -0.5044  0.5360 -0.1333
   94SAPS  H20T 9293   6.839   6.350   7.952  0.5718  0.5412  1.4197
   94SAPS   C33 9294   6.287   6.121   6.644  0.0184 -0.0811  0.6531
   94SAPS   H3X 9295   6.339   6.027   6.616  1.8631  0.7226  1.2283
   94SAPS   H3Y 9296   6.189   6.096   6.688 -1.5546  0.3438 -2.4788
   94SAPS   C34 9297   6.374   6.187   6.747 -0.1140 -0.4296 -0.3244
   94SAPS   H4X 9298   6.477   6.207   6.711 -0.9484  0.9133 -2.0123
   94SAPS   H4Y 9299   6.395   6.115   6.829  2.3558 -0.0887 -0.6292
   94SAPS   C35 9300   6.318   6.316   6.814 -0.1263 -0.2194  0.3639
   94SAPS   H5X 9301   6.209   6.299   6.827 -0.8732  3.2910 -0.7231
   94SAPS   H5Y 9302   6.338   6.403   6.748  0.0768 -0.9738 -0.5720
   94SAPS   C36 9303   6.382   6.351   6.949 -0.3923  0.5576 -0.1506
   94SAPS   H6X 9304   6.344   6.452   6.974 -1.3835 -0.0048  0.6157
   94SAPS   H6Y 9305   6.493   6.357   6.958 -0.5798  1.1124  2.0862
   94SAPS   C37 9306   6.322   6.258   7.066 -0.3518 -0.2615  0.2317
   94SAPS   H7X 9307   6.363   6.155   7.061 -0.3711 -0.1647 -2.9567
   94SAPS   H7Y 9308   6.215   6.246   7.039 -0.4869  1.0672  0.1493
   94SAPS   C38 9309   6.353   6.330   7.196 -0.2591 -0.2025 -0.5465
   94SAPS   H8X 9310   6.356   6.440   7.185  0.5101 -0.0177  1.3707
   94SAPS   H8Y 9311   6.459   6.304   7.218 -0.1997 -0.3748 -1.0331
   94SAPS   C39 9312   6.252   6.285   7.305 -0.9037  0.0853  0.6895
   94SAPS   H9X 9313   6.244   6.175   7.314  0.7356 -0.1613 -0.8809
   94SAPS   H9Y 9314   6.150   6.319   7.278 -1.6205 -1.3744  1.4744
   94SAPS  C310 9315   6.292   6.325   7.446  1.1777 -0.2175 -0.2357
   94SAPS  H10X 9316   6.389   6.281   7.477  0.7274 -1.4740 -0.5685
   94SAPS  H10Y 9317   6.213   6.281   7.510  0.8653  1.1226  0.3298
   94SAPS  C311 9318   6.297   6.473   7.465  0.0711 -0.3750  0.3204
   94SAPS  H11X 9319   6.196   6.508   7.434 -0.7459 -1.4285  1.7455
   94SAPS  H11Y 9320   6.374   6.524   7.403  0.8607  0.0568  1.6164
   94SAPS  C312 9321   6.306   6.488   7.625  0.4040 -0.7162 -0.0370
   94SAPS  H12X 9322   6.366   6.404   7.666 -0.4190 -0.4593  1.7102
   94SAPS  H12Y 9323   6.208   6.460   7.668 -0.9357 -0.1404 -2.5983
   94SAPS  C313 9324   6.345   6.630   7.676 -0.1904  0.0204 -0.3676
   94SAPS  H13X 9325   6.272   6.707   7.641 -2.6404 -1.2863  1.7234
   94SAPS  H13Y 9326   6.447   6.649   7.637 -0.5976  2.5276 -0.3106
   94SAPS  C314 9327   6.350   6.633   7.827 -0.1476 -0.3139 -0.7695
   94SAPS  H14X 9328   6.425   6.560   7.865  1.6510  2.8410  2.0166
   94SAPS  H14Y 9329   6.253   6.604   7.873  0.3912  0.7038  1.0849
   94SAPS  C315 9330   6.401   6.770   7.884 -0.7216 -0.1279 -0.5498
   94SAPS  H15X 9331   6.327   6.848   7.855 -0.5354  0.5370  0.7174
   94SAPS  H15Y 9332   6.499   6.806   7.846 -2.3124  3.9459 -1.0263
   94SAPS  C316 9333   6.394   6.774   8.028 -0.3893 -1.0469  0.0307
   94SAPS  H16X 9334   6.451   6.860   8.069  0.9138 -2.0106  0.2797
   94SAPS  H16Y 9335   6.449   6.690   8.078 -1.7127 -2.0411 -0.1618
   94SAPS  C317 9336   6.255   6.777   8.095  0.3847  0.2987 -0.0046
   94SAPS  H17X 9337   6.263   6.748   8.202  1.1182 -0.7891 -0.3286
   94SAPS  H17Y 9338   6.196   6.698   8.045  0.1834  2.1344 -2.7780
   94SAPS  C318 9339   6.198   6.916   8.088 -0.3306 -0.5560  0.6807
   94SAPS  H18X 9340   6.113   6.923   8.160  2.0795  1.4655  3.4326
   94SAPS  H18Y 9341   6.172   6.936   7.982 -0.5817  0.8396  1.0006
   94SAPS  H18Z 9342   6.271   6.989   8.129 -1.2095 -0.3101  1.8437
   95SAPS     N 9343   2.457   3.751   6.141  0.2471  0.0201 -0.1624
   95SAPS   HN1 9344   2.432   3.766   6.240 -0.8238 -1.0239 -0.2605
   95SAPS   HN2 9345   2.541   3.810   6.122  0.2171  0.3093  0.6058
   95SAPS   HN3 9346   2.383   3.782   6.075  1.3715  0.7048 -1.1252
   95SAPS   C12 9347   2.496   3.617   6.112  0.1539 -0.6104 -0.6125
   95SAPS  H12A 9348   2.410   3.553   6.126  1.4619 -2.2056  0.2101
   95SAPS   C13 9349   2.544   3.595   5.966 -0.4388  0.4139 -0.0957
   95SAPS  O13A 9350   2.555   3.703   5.896  0.4413 -0.4708  0.4697
   95SAPS  O13B 9351   2.550   3.485   5.910  0.3700  0.2925  0.1694
   95SAPS   C11 9352   2.611   3.568   6.215 -0.2261  0.5377 -0.6207
   95SAPS  H11A 9353   2.695   3.641   6.222  0.5058 -0.0476 -2.8869
   95SAPS  H11B 9354   2.633   3.468   6.172 -1.8741  0.1619 -0.6193
   95SAPS     P 9355   2.579   3.397   6.412 -0.3586  0.1283 -0.0719
   95SAPS   O13 9356   2.454   3.323   6.385 -0.5709  0.1666 -0.1800
   95SAPS   O14 9357   2.702   3.330   6.364 -0.0154  0.0970  0.5098
   95SAPS   O12 9358   2.559   3.538   6.343 -0.3635 -0.2869 -0.7322
   95SAPS   O11 9359   2.597   3.420   6.564 -0.5387  0.2448  0.4661
   95SAPS    C1 9360   2.657   3.538   6.609  0.4918 -0.0245 -0.2313
   95SAPS    HA 9361   2.735   3.584   6.545 -0.1420  0.4296 -0.6928
   95SAPS    HB 9362   2.573   3.611   6.613 -1.0078 -1.5908 -2.3375
   95SAPS    C2 9363   2.718   3.522   6.748 -0.2378 -0.1267 -0.4798
   95SAPS    HS 9364   2.739   3.622   6.792 -1.3709 -0.5891  1.1562
   95SAPS   O21 9365   2.838   3.437   6.750 -1.0131 -0.5329  0.0023
   95SAPS   C21 9366   2.930   3.479   6.837  0.7775 -0.5053 -0.0939
   95SAPS   O22 9367   2.926   3.585   6.897 -0.3316  0.4568 -0.5272
   95SAPS   C22 9368   3.046   3.381   6.850 -0.2325  0.2068  0.7699
   95SAPS   H2R 9369   3.016   3.320   6.937 -2.5516 -0.8679 -0.7064
   95SAPS   H2S 9370   3.046   3.318   6.758 -1.9479  1.9415 -0.4782
   95SAPS    C3 9371   2.628   3.449   6.852 -0.3187  0.7814  0.2224
   95SAPS    HX 9372   2.603   3.353   6.802  1.9052  1.0193 -1.4421
   95SAPS    HY 9373   2.531   3.500   6.867 -0.8551  0.0714 -0.7294
   95SAPS   O31 9374   2.694   3.417   6.979  0.5704 -0.1914  0.0118
   95SAPS   C31 9375   2.686   3.514   7.066  1.3033  0.1013  1.2660
   95SAPS   O32 9376   2.645   3.625   7.048  0.2412  0.2045 -0.0887
   95SAPS   C32 9377   2.734   3.469   7.202  0.0546  0.9391 -1.1167
   95SAPS   H2X 9378   2.734   3.558   7.267 -1.4992  1.1290 -1.3568
   95SAPS   H2Y 9379   2.841   3.442   7.188 -0.2468 -1.9915  1.5504
   95SAPS   C23 9380   3.187   3.438   6.870  1.0596  0.1366  0.3998
   95SAPS   H3R 9381   3.195   3.539   6.823  3.1599 -0.3897 -0.4409
   95SAPS   H3S 9382   3.270   3.378   6.827  0.0906 -1.5449  0.8713
   95SAPS   C24 9383   3.223   3.467   7.016  0.2911 -1.0306 -0.2183
   95SAPS   H4R 9384   3.137   3.527   7.054 -0.4392  0.1827 -3.6247
   95SAPS   H4S 9385   3.313   3.531   7.020 -0.3502 -0.2236  1.6248
   95SAPS   C25 9386   3.239   3.347   7.103  0.3108  0.3390  0.2414
   95SAPS   H5R 9387   3.266   3.256   7.048  1.2509  0.9755 -0.3813
   95SAPS   C26 9388   3.211   3.319   7.233  0.3563  0.1553  0.6772
   95SAPS   H6R 9389   3.228   3.218   7.273 -0.9864 -0.7967 -1.0804
   95SAPS   C27 9390   3.162   3.417   7.329  0.3836  0.4677  0.2945
   95SAPS   H7R 9391   3.052   3.399   7.337  0.5314 -0.6114  0.0346
   95SAPS   H7S 9392   3.160   3.523   7.299 -1.9384  0.6097  0.8755
   95SAPS   C28 9393   3.230   3.409   7.463  0.0403 -0.3513  0.0053
   95SAPS   H8R 9394   3.338   3.427   7.460 -0.3382  1.9086 -1.3601
   95SAPS   C29 9395   3.177   3.357   7.568 -0.6217 -0.2844  0.6814
   95SAPS   H9R 9396   3.237   3.349   7.660  2.3136  0.5411 -1.0968
   95SAPS  C210 9397   3.043   3.302   7.571 -0.0490  0.2254 -0.2707
   95SAPS  H10R 9398   3.005   3.234   7.492 -0.3147 -0.6516  0.5888
   95SAPS  H10S 9399   2.967   3.382   7.556  0.0657  1.0665  3.1256
   95SAPS  C211 9400   3.023   3.227   7.704  1.0498 -0.0695  0.8133
   95SAPS  H11R 9401   2.954   3.268   7.779 -0.9291  1.9130 -1.9876
   95SAPS  C212 9402   3.085   3.114   7.735 -0.3115  0.4737  0.3667
   95SAPS  H12R 9403   3.065   3.063   7.830  0.8559 -0.4075  0.1517
   95SAPS  C213 9404   3.177   3.036   7.643  0.1090  0.3542  0.1715
   95SAPS  H13R 9405   3.274   3.091   7.642  0.2933  0.0337  0.3628
   95SAPS  H13S 9406   3.141   3.046   7.538 -2.0873 -2.6179  0.5758
   95SAPS  C214 9407   3.204   2.885   7.661  0.0773  0.3493 -0.0030
   95SAPS  H14R 9408   3.135   2.832   7.729  0.2880 -0.7017 -0.5935
   95SAPS  C215 9409   3.307   2.815   7.621  0.8109  0.1481 -0.4175
   95SAPS  H15R 9410   3.314   2.710   7.653  3.3685  0.3573 -0.1385
   95SAPS  C216 9411   3.423   2.870   7.540 -0.1562  0.3892 -0.2664
   95SAPS  H16R 9412   3.515   2.832   7.591 -0.7095 -1.9942 -0.9970
   95SAPS  H16S 9413   3.429   2.980   7.550  0.5722  0.2364  1.2370
   95SAPS  C217 9414   3.419   2.829   7.393 -0.6230  0.7990  0.0203
   95SAPS  H17R 9415   3.384   2.724   7.386  0.0519  0.7199 -2.7767
   95SAPS  H17S 9416   3.525   2.831   7.361 -0.8577 -1.3568 -0.9461
   95SAPS  C218 9417   3.348   2.921   7.297  0.0821  0.4443 -0.1389
   95SAPS  H18R 9418   3.388   3.024   7.300 -2.3727  1.4395 -0.5996
   95SAPS  H18S 9419   3.239   2.930   7.316  0.2166  1.0094  0.3553
   95SAPS  C219 9420   3.370   2.857   7.153  0.3307  0.1957  0.1489
   95SAPS  H19R 9421   3.330   2.754   7.163  0.9284 -0.1803 -1.2401
   95SAPS  H19S 9422   3.481   2.857   7.145  0.1245  0.0473 -3.9613
   95SAPS  C220 9423   3.296   2.927   7.033  0.7164  0.4859  0.1316
   95SAPS  H20R 9424   3.342   3.026   7.010  0.4879  0.8563  1.2335
   95SAPS  H20S 9425   3.188   2.941   7.056  0.8903  1.6794  0.2991
   95SAPS  H20T 9426   3.295   2.868   6.939 -0.8186  1.7059 -0.6355
   95SAPS   C33 9427   2.665   3.332   7.260 -0.8944 -0.2459  0.3242
   95SAPS   H3X 9428   2.693   3.255   7.186  0.3780 -0.3396  0.9041
   95SAPS   H3Y 9429   2.555   3.338   7.241 -1.0661  2.4289  1.8443
   95SAPS   C34 9430   2.700   3.287   7.403  0.0712  0.1673 -0.2895
   95SAPS   H4X 9431   2.810   3.295   7.417 -0.2261  1.2371  1.5578
   95SAPS   H4Y 9432   2.681   3.178   7.408 -2.5934  0.5100 -2.0157
   95SAPS   C35 9433   2.619   3.362   7.512 -0.0012  0.5721  0.5112
   95SAPS   H5X 9434   2.519   3.313   7.514 -0.1390  0.7084 -1.7247
   95SAPS   H5Y 9435   2.606   3.469   7.486 -0.4592  0.7606  1.4747
   95SAPS   C36 9436   2.673   3.354   7.650  0.0307 -0.5792  0.2895
   95SAPS   H6X 9437   2.752   3.431   7.667  0.1528  0.3697 -3.8358
   95SAPS   H6Y 9438   2.716   3.253   7.668 -2.9606 -1.8270  0.5961
   95SAPS   C37 9439   2.565   3.385   7.755 -0.2991 -0.1187  0.1456
   95SAPS   H7X 9440   2.486   3.306   7.755 -2.5163  2.0269 -0.9191
   95SAPS   H7Y 9441   2.512   3.476   7.718  0.2398 -0.1777 -0.7965
   95SAPS   C38 9442   2.621   3.400   7.895  0.0535  0.2239 -0.7286
   95SAPS   H8X 9443   2.543   3.450   7.956  0.7138  1.3086 -0.7530
   95SAPS   H8Y 9444   2.710   3.467   7.902  0.0682  0.3386 -1.8967
   95SAPS   C39 9445   2.672   3.272   7.958 -0.4886 -0.1352 -0.5889
   95SAPS   H9X 9446   2.743   3.224   7.887  0.0650  1.7046 -1.3091
   95SAPS   H9Y 9447   2.577   3.219   7.980 -1.8089  1.3501 -2.5551
   95SAPS  C310 9448   2.743   3.278   8.097  0.0395 -0.7352 -0.0708
   95SAPS  H10X 9449   2.674   3.333   8.164  0.5935 -0.4513  0.2691
   95SAPS  H10Y 9450   2.833   3.343   8.097  0.5180 -1.2975 -2.8042
   95SAPS  C311 9451   2.770   3.138   8.154 -0.6268 -0.1348 -0.1720
   95SAPS  H11X 9452   2.681   3.070   8.157 -0.1223 -0.7462  1.6920
   95SAPS  H11Y 9453   2.789   3.146   8.263 -2.8932  0.8400  0.1946
   95SAPS  C312 9454   2.891   3.081   8.078  0.6428 -0.0037  0.6211
   95SAPS  H12X 9455   2.950   3.172   8.050 -0.0814  0.5476  0.8977
   95SAPS  H12Y 9456   2.845   3.037   7.987  0.6005  0.6857  0.3019
   95SAPS  C313 9457   2.964   2.968   8.145  0.1777 -0.1205 -0.6861
   95SAPS  H13X 9458   2.907   2.923   8.229  1.3993  2.5265  1.6494
   95SAPS  H13Y 9459   3.047   3.012   8.205  0.6279 -0.2910 -1.1792
   95SAPS  C314 9460   3.017   2.859   8.056  0.0876  0.3675 -0.3274
   95SAPS  H14X 9461   3.099   2.895   7.991  0.3224  2.0257  0.8498
   95SAPS  H14Y 9462   2.939   2.815   7.990 -0.7028 -0.7896  1.3358
   95SAPS  C315 9463   3.078   2.736   8.126  0.1486 -0.4157  0.4559
   95SAPS  H15X 9464   3.119   2.676   8.042 -2.0619  1.7424 -2.2449
   95SAPS  H15Y 9465   2.991   2.682   8.169  0.0609 -2.3009 -1.9631
   95SAPS  C316 9466   3.197   2.766   8.220 -0.3626 -0.4361 -0.8942
   95SAPS  H16X 9467   3.244   2.867   8.214 -0.3220 -0.2675  1.6609
   95SAPS  H16Y 9468   3.277   2.689   8.211 -0.1765 -0.5154  1.2197
   95SAPS  C317 9469   3.147   2.760   8.361 -0.2152 -0.2222 -0.0015
   95SAPS  H17X 9470   3.092   2.667   8.386  0.2222 -0.0365  1.6710
   95SAPS  H17Y 9471   3.066   2.832   8.382 -1.0411 -1.2044  0.2182
   95SAPS  C318 9472   3.261   2.793   8.455  0.2186  0.0616  0.0078
   95SAPS  H18X 9473   3.224   2.766   8.556 -0.1046 -0.5020 -0.2581
   95SAPS  H18Y 9474   3.285   2.901   8.442  0.2155 -0.0332 -0.8393
   95SAPS  H18Z 9475   3.342   2.724   8.424  0.2264 -0.6955  1.6998
   96SAPS     N 9476   3.539   5.010   6.605  0.3480 -0.2330 -0.0875
   96SAPS   HN1 9477   3.568   4.934   6.541 -0.0571 -0.9667  0.5758
   96SAPS   HN2 9478   3.617   5.051   6.660  0.3597  1.4919 -1.3587
   96SAPS   HN3 9479   3.476   4.960   6.672  0.2066  0.3581  0.2251
   96SAPS   C12 9480   3.468   5.118   6.531 -0.2095  0.3112  0.2689
   96SAPS  H12A 9481   3.422   5.181   6.605 -0.5532 -0.2286  0.5171
   96SAPS   C13 9482   3.569   5.180   6.433 -0.1773 -0.2675 -0.0195
   96SAPS  O13A 9483   3.689   5.149   6.424 -0.7394 -1.0626 -0.1909
   96SAPS  O13B 9484   3.522   5.268   6.357 -0.2288 -0.0659  0.1434
   96SAPS   C11 9485   3.359   5.055   6.456 -0.0784  0.3345 -0.1731
   96SAPS  H11A 9486   3.391   4.977   6.384 -1.1624 -0.0841 -0.2058
   96SAPS  H11B 9487   3.310   5.131   6.390  1.0704  0.4346 -0.9342
   96SAPS     P 9488   3.118   4.969   6.542 -0.3683  0.2685 -0.2626
   96SAPS   O13 9489   3.074   5.014   6.405  0.4736 -0.5297 -0.6800
   96SAPS   O14 9490   3.103   4.824   6.586 -0.1168  0.3433 -0.0600
   96SAPS   O12 9491   3.273   4.997   6.553  0.0264 -0.0844  0.4480
   96SAPS   O11 9492   3.040   5.059   6.655 -0.0177  0.4633 -0.0405
   96SAPS    C1 9493   3.116   5.149   6.736  0.1834 -0.2215 -0.2098
   96SAPS    HA 9494   3.182   5.205   6.667  0.5296 -0.6846 -0.2580
   96SAPS    HB 9495   3.047   5.230   6.768 -0.6274 -1.0425  0.1596
   96SAPS    C2 9496   3.180   5.079   6.863  0.6803  0.0994 -0.0365
   96SAPS    HS 9497   3.254   5.005   6.826  0.2525  0.1152 -0.9606
   96SAPS   O21 9498   3.070   5.024   6.931  0.2989  1.0526  0.2638
   96SAPS   C21 9499   3.086   4.904   6.977  0.0591 -0.5502 -0.4558
   96SAPS   O22 9500   3.180   4.829   6.967 -0.3737  0.1715  0.7808
   96SAPS   C22 9501   2.957   4.867   7.054  0.6216 -0.0719 -0.3957
   96SAPS   H2R 9502   2.875   4.838   6.984  0.2364 -3.4050  1.3737
   96SAPS   H2S 9503   2.989   4.774   7.104  2.5943  1.4559  1.2882
   96SAPS    C3 9504   3.251   5.184   6.946 -1.0927  0.0517 -0.6534
   96SAPS    HX 9505   3.195   5.280   6.937  0.1440  0.9686  1.1990
   96SAPS    HY 9506   3.348   5.203   6.896  1.3858  0.3858  4.0089
   96SAPS   O31 9507   3.265   5.167   7.086  0.0142 -0.8947 -0.6017
   96SAPS   C31 9508   3.369   5.093   7.120 -0.1067 -0.1931  0.3716
   96SAPS   O32 9509   3.463   5.059   7.048 -0.2722 -0.1819  0.3015
   96SAPS   C32 9510   3.351   5.032   7.260 -0.2454 -0.0262 -0.2287
   96SAPS   H2X 9511   3.437   4.962   7.261 -1.2283 -1.2845  2.6583
   96SAPS   H2Y 9512   3.254   4.976   7.255  0.0591 -0.4492 -1.3990
   96SAPS   C23 9513   2.909   4.984   7.150 -0.8818  0.2302 -0.0426
   96SAPS   H3R 9514   2.870   5.071   7.094 -1.9004 -0.6658 -0.7580
   96SAPS   H3S 9515   2.990   5.012   7.221 -2.0835  0.0511  1.4439
   96SAPS   C24 9516   2.783   4.937   7.214 -0.4143 -0.2083 -0.7587
   96SAPS   H4R 9517   2.812   4.850   7.276 -1.2049  1.1701  1.6343
   96SAPS   H4S 9518   2.708   4.904   7.139 -0.3262 -1.2820 -0.3771
   96SAPS   C25 9519   2.718   5.046   7.297  0.9814  0.1796 -0.0165
   96SAPS   H5R 9520   2.675   5.129   7.239  1.9591  0.3989 -0.4251
   96SAPS   C26 9521   2.718   5.055   7.431 -0.0455 -0.1244 -0.1752
   96SAPS   H6R 9522   2.667   5.142   7.476 -0.7570 -0.8834  0.5042
   96SAPS   C27 9523   2.785   4.969   7.535  1.1010  0.6762  0.2413
   96SAPS   H7R 9524   2.826   4.873   7.498  1.2901  0.7995  0.1309
   96SAPS   H7S 9525   2.707   4.940   7.609  0.8759 -0.2795 -0.3651
   96SAPS   C28 9526   2.888   5.045   7.609  1.0707 -0.1523 -0.5747
   96SAPS   H8R 9527   2.968   5.095   7.552  0.6722  1.9562  0.6739
   96SAPS   C29 9528   2.874   5.091   7.735  0.2104 -0.8853  0.7304
   96SAPS   H9R 9529   2.965   5.131   7.782 -0.4794  1.8995 -0.2168
   96SAPS  C210 9530   2.759   5.068   7.830  0.1367 -0.3910  0.1637
   96SAPS  H10R 9531   2.660   5.071   7.781  0.4943 -1.5809 -0.6578
   96SAPS  H10S 9532   2.756   5.145   7.910  0.5203  0.3085 -0.4807
   96SAPS  C211 9533   2.779   4.926   7.891 -0.2006  0.2085  0.0354
   96SAPS  H11R 9534   2.821   4.850   7.823 -0.1687  0.5762 -0.3599
   96SAPS  C212 9535   2.759   4.907   8.027 -0.6764  0.2031  0.0970
   96SAPS  H12R 9536   2.779   4.809   8.072 -1.4802 -0.0856 -0.1736
   96SAPS  C213 9537   2.706   5.009   8.136  0.4088  0.3677 -0.6932
   96SAPS  H13R 9538   2.636   4.962   8.209  0.1920  0.3250 -0.9296
   96SAPS  H13S 9539   2.646   5.095   8.100  1.3282  1.8905  1.3017
   96SAPS  C214 9540   2.837   5.072   8.181 -0.4743 -0.2236  0.5855
   96SAPS  H14R 9541   2.925   5.053   8.119  0.5649 -0.5424  2.1367
   96SAPS  C215 9542   2.855   5.165   8.278  0.3703  0.0037  0.1122
   96SAPS  H15R 9543   2.951   5.207   8.311  0.5851 -0.2528 -0.1882
   96SAPS  C216 9544   2.739   5.215   8.366  0.2233  0.1483 -0.3970
   96SAPS  H16R 9545   2.771   5.247   8.467 -2.7931  0.2103  0.5836
   96SAPS  H16S 9546   2.669   5.130   8.382  1.2843 -0.3461  1.9534
   96SAPS  C217 9547   2.653   5.322   8.301  0.4546  0.1844 -0.5343
   96SAPS  H17R 9548   2.612   5.305   8.199 -0.1939 -0.1438 -0.2192
   96SAPS  H17S 9549   2.726   5.404   8.282  2.4167 -1.8557 -2.1332
   96SAPS  C218 9550   2.546   5.389   8.398 -0.4692  0.0658 -0.0569
   96SAPS  H18R 9551   2.596   5.443   8.481 -0.2566  2.1980 -1.5259
   96SAPS  H18S 9552   2.492   5.301   8.439  0.8957 -1.6876 -1.9284
   96SAPS  C219 9553   2.436   5.479   8.341 -0.3413  0.1594  0.3759
   96SAPS  H19R 9554   2.346   5.473   8.406  0.2661 -2.5306  1.0247
   96SAPS  H19S 9555   2.423   5.447   8.236  0.6400 -0.6817  0.5034
   96SAPS  C220 9556   2.490   5.619   8.328  0.2111  0.7936 -0.3862
   96SAPS  H20R 9557   2.507   5.677   8.421  1.2953 -1.1336  0.6519
   96SAPS  H20S 9558   2.407   5.674   8.278 -0.2587  0.3437 -0.1066
   96SAPS  H20T 9559   2.585   5.613   8.270 -0.1140 -0.5037 -0.7994
   96SAPS   C33 9560   3.344   5.132   7.384 -0.3768  0.4168 -0.6266
   96SAPS   H3X 9561   3.264   5.208   7.369 -0.1814  0.3287 -2.1556
   96SAPS   H3Y 9562   3.445   5.178   7.392 -0.1589 -0.3668  1.4734
   96SAPS   C34 9563   3.328   5.066   7.525  0.1585  0.2805 -0.0623
   96SAPS   H4X 9564   3.419   5.006   7.547  0.3428  1.6958  3.3986
   96SAPS   H4Y 9565   3.241   4.998   7.511  0.3808  0.2593 -1.4472
   96SAPS   C35 9566   3.280   5.164   7.639 -0.3539  1.1077 -0.2652
   96SAPS   H5X 9567   3.185   5.207   7.599 -1.4758 -0.7863  0.2999
   96SAPS   H5Y 9568   3.365   5.234   7.654  0.2531  0.0163  1.5273
   96SAPS   C36 9569   3.254   5.099   7.780  0.2709 -0.3340  0.9756
   96SAPS   H6X 9570   3.233   4.991   7.763 -0.9075  0.1928 -1.1938
   96SAPS   H6Y 9571   3.156   5.131   7.822 -0.6612 -1.8542  0.0176
   96SAPS   C37 9572   3.367   5.134   7.881 -0.1599  0.1718 -0.1038
   96SAPS   H7X 9573   3.383   5.244   7.882 -4.9243  0.9516 -0.6623
   96SAPS   H7Y 9574   3.460   5.077   7.861 -0.5005 -0.3403 -0.2328
   96SAPS   C38 9575   3.350   5.100   8.030  0.0877 -0.1117  0.6124
   96SAPS   H8X 9576   3.327   4.992   8.044 -0.3637  0.1153  1.6720
   96SAPS   H8Y 9577   3.267   5.159   8.073  1.0302  1.6266  0.0999
   96SAPS   C39 9578   3.476   5.136   8.123  0.5537 -0.1041 -0.0201
   96SAPS   H9X 9579   3.501   5.244   8.122 -0.0633  0.0331 -0.9275
   96SAPS   H9Y 9580   3.568   5.087   8.084  0.0224 -1.3088  0.2135
   96SAPS  C310 9581   3.453   5.098   8.271  0.3346  0.2611  0.0703
   96SAPS  H10X 9582   3.558   5.098   8.308  0.3680 -0.6855 -0.0162
   96SAPS  H10Y 9583   3.406   4.998   8.271  0.9319 -0.0366  1.7059
   96SAPS  C311 9584   3.352   5.189   8.352  0.5139 -0.2185 -0.2921
   96SAPS  H11X 9585   3.255   5.152   8.314 -0.3288 -0.4964  2.0582
   96SAPS  H11Y 9586   3.375   5.291   8.315 -1.5663  0.2143 -0.4532
   96SAPS  C312 9587   3.366   5.163   8.503  0.9439 -0.2880  0.0419
   96SAPS  H12X 9588   3.475   5.173   8.526  0.6590  1.5957  0.6499
   96SAPS  H12Y 9589   3.338   5.059   8.530 -1.0668  0.4179  0.7235
   96SAPS  C313 9590   3.270   5.245   8.596 -0.6360 -0.0219  0.5111
   96SAPS  H13X 9591   3.171   5.225   8.550  0.5100 -2.1988 -1.0978
   96SAPS  H13Y 9592   3.290   5.353   8.576  2.0326 -0.6473 -0.4464
   96SAPS  C314 9593   3.291   5.202   8.748  0.1040 -0.1837  0.6810
   96SAPS  H14X 9594   3.384   5.250   8.785  0.1885 -0.5901  1.0015
   96SAPS  H14Y 9595   3.303   5.092   8.747  0.5566 -0.1475 -1.6543
   96SAPS  C315 9596   3.165   5.238   8.823 -0.1311  0.1161 -0.5869
   96SAPS  H15X 9597   3.079   5.175   8.792 -0.0490 -0.1467 -0.2765
   96SAPS  H15Y 9598   3.151   5.344   8.793 -0.3701 -0.0404 -1.0211
   96SAPS  C316 9599   3.179   5.237   8.976  0.7889 -0.8313  0.2697
   96SAPS  H16X 9600   3.279   5.267   9.011  0.1177 -0.3659  1.8024
   96SAPS  H16Y 9601   3.166   5.131   9.008 -1.1279 -0.5667  0.4712
   96SAPS  C317 9602   3.062   5.319   9.053 -0.2008  0.3817 -0.0857
   96SAPS  H17X 9603   2.963   5.280   9.021 -0.1439  0.1922 -0.0359
   96SAPS  H17Y 9604   3.062   5.423   9.017 -1.4632 -0.2588 -1.9766
   96SAPS  C318 9605   3.067   5.307   9.206 -0.0884 -0.3492 -0.1021
   96SAPS  H18X 9606   3.140   5.374   9.257 -1.8357  1.1542  0.4687
   96SAPS  H18Y 9607   3.096   5.206   9.242 -1.8828 -0.9275 -0.2399
   96SAPS  H18Z 9608   2.968   5.330   9.252  1.1388  2.1633  1.4137
   97SAPS     N 9609   4.370   4.087   6.307 -0.2362  0.6701  0.3935
   97SAPS   HN1 9610   4.410   4.117   6.398 -1.9174  2.4461  0.5649
   97SAPS   HN2 9611   4.320   4.163   6.258 -1.3866 -0.9148 -0.9628
   97SAPS   HN3 9612   4.303   4.012   6.333  1.2240 -0.1892  1.7686
   97SAPS   C12 9613   4.479   4.051   6.211 -0.3392 -0.1167 -0.2633
   97SAPS  H12A 9614   4.436   4.006   6.123 -2.9484  0.3051  0.7492
   97SAPS   C13 9615   4.572   4.169   6.178 -0.7937 -0.1370  0.1420
   97SAPS  O13A 9616   4.562   4.283   6.227 -0.1878  0.1191  0.2914
   97SAPS  O13B 9617   4.662   4.140   6.093  0.5120  0.0712  0.4122
   97SAPS   C11 9618   4.560   3.937   6.279  0.6444  0.0486 -0.5181
   97SAPS  H11A 9619   4.605   3.977   6.373  0.3831  0.9682 -0.7823
   97SAPS  H11B 9620   4.654   3.922   6.222  0.0988 -2.0637 -0.9162
   97SAPS     P 9621   4.569   3.688   6.354 -0.0336  0.2393  0.1973
   97SAPS   O13 9622   4.508   3.561   6.304 -0.2851 -0.2195 -0.3086
   97SAPS   O14 9623   4.711   3.694   6.332 -0.5667 -0.0450 -0.0564
   97SAPS   O12 9624   4.494   3.811   6.295  0.1364 -0.2923 -0.2805
   97SAPS   O11 9625   4.555   3.704   6.511  0.0995 -0.2860 -0.4756
   97SAPS    C1 9626   4.439   3.769   6.565 -0.4694 -0.8919  1.0010
   97SAPS    HA 9627   4.430   3.877   6.539  0.1448 -0.4867  2.4031
   97SAPS    HB 9628   4.347   3.723   6.523  0.1322 -0.1175 -1.2700
   97SAPS    C2 9629   4.429   3.769   6.719  0.3596  0.1320 -0.1842
   97SAPS    HS 9630   4.481   3.862   6.749 -1.2553  0.8214  0.5539
   97SAPS   O21 9631   4.484   3.657   6.781 -0.5032 -0.2391  0.4744
   97SAPS   C21 9632   4.616   3.667   6.824 -0.5801 -0.2710 -0.2741
   97SAPS   O22 9633   4.683   3.764   6.797  0.0909 -0.0510 -0.5519
   97SAPS   C22 9634   4.646   3.559   6.926  0.7538 -0.5191  0.6426
   97SAPS   H2R 9635   4.575   3.475   6.914  1.2695 -1.0737  1.4158
   97SAPS   H2S 9636   4.748   3.527   6.897  0.9382 -0.6204  1.3769
   97SAPS    C3 9637   4.282   3.764   6.767  0.8622  0.0017  0.5342
   97SAPS    HX 9638   4.237   3.669   6.732  1.2912  1.0068 -2.9730
   97SAPS    HY 9639   4.223   3.849   6.725 -1.4385 -0.5199  2.6334
   97SAPS   O31 9640   4.285   3.769   6.907 -0.4233 -0.5825  0.2887
   97SAPS   C31 9641   4.174   3.721   6.975  0.3961 -0.0674  0.5003
   97SAPS   O32 9642   4.094   3.643   6.927  0.2093 -0.2645 -0.2340
   97SAPS   C32 9643   4.161   3.784   7.107  0.6092  0.4525 -0.4786
   97SAPS   H2X 9644   4.159   3.895   7.098 -1.0942  0.5543  0.8808
   97SAPS   H2Y 9645   4.242   3.759   7.179 -0.3293 -1.4740 -0.0558
   97SAPS   C23 9646   4.652   3.616   7.071 -0.0881 -0.6132  0.2922
   97SAPS   H3R 9647   4.687   3.721   7.079  0.6987 -0.7404 -1.3592
   97SAPS   H3S 9648   4.723   3.553   7.130 -0.2764 -1.1206 -0.0217
   97SAPS   C24 9649   4.519   3.622   7.152  0.4162 -1.0880 -0.1814
   97SAPS   H4R 9650   4.444   3.652   7.076  0.9515  1.8284  0.3725
   97SAPS   H4S 9651   4.533   3.690   7.238 -1.7532 -1.5724  0.5781
   97SAPS   C25 9652   4.472   3.491   7.196 -0.4494  0.0700 -0.6081
   97SAPS   H5R 9653   4.429   3.431   7.114 -2.2102  2.1418 -1.2438
   97SAPS   C26 9654   4.460   3.445   7.325 -0.4643  0.9743 -0.0542
   97SAPS   H6R 9655   4.431   3.339   7.336  0.1022  0.8099 -0.1006
   97SAPS   C27 9656   4.503   3.519   7.443  0.0738 -0.0406 -0.6046
   97SAPS   H7R 9657   4.410   3.554   7.494  0.7023  0.2568  0.3497
   97SAPS   H7S 9658   4.550   3.611   7.403 -0.8159  0.3300 -0.8103
   97SAPS   C28 9659   4.597   3.436   7.530 -0.4668 -0.1306  0.5998
   97SAPS   H8R 9660   4.660   3.374   7.464 -1.2256  1.3021 -1.5478
   97SAPS   C29 9661   4.617   3.443   7.664  0.4831 -0.4966  0.7388
   97SAPS   H9R 9662   4.697   3.383   7.710  1.7022  1.5210  1.3406
   97SAPS  C210 9663   4.540   3.540   7.752 -0.0978 -0.3224 -0.6324
   97SAPS  H10R 9664   4.510   3.624   7.686  0.1717  1.3060  1.2882
   97SAPS  H10S 9665   4.604   3.589   7.829 -0.2719  0.9333 -1.2771
   97SAPS  C211 9666   4.416   3.495   7.824 -0.5993  0.4969 -0.0554
   97SAPS  H11R 9667   4.351   3.433   7.760 -1.3775 -0.7555  1.9118
   97SAPS  C212 9668   4.377   3.517   7.953 -0.4918 -0.3261 -0.3556
   97SAPS  H12R 9669   4.278   3.478   7.980  0.2556 -0.2619  2.6738
   97SAPS  C213 9670   4.438   3.605   8.067  0.4022  0.7722  0.1476
   97SAPS  H13R 9671   4.376   3.601   8.158 -0.7775 -1.3933 -0.7209
   97SAPS  H13S 9672   4.443   3.714   8.044  0.0935  0.4002 -1.7855
   97SAPS  C214 9673   4.575   3.566   8.119  0.2532 -0.2806  0.7211
   97SAPS  H14R 9674   4.613   3.474   8.073  0.6062 -0.4615  1.3704
   97SAPS  C215 9675   4.653   3.636   8.204 -0.3608 -0.0145  0.1729
   97SAPS  H15R 9676   4.754   3.598   8.228 -1.2349 -1.8020  1.1113
   97SAPS  C216 9677   4.609   3.759   8.282 -0.3700  0.5380  0.1110
   97SAPS  H16R 9678   4.513   3.801   8.244 -0.7518  0.0377  0.5240
   97SAPS  H16S 9679   4.687   3.838   8.280  1.0801 -0.8818 -0.2908
   97SAPS  C217 9680   4.583   3.724   8.426 -0.3912 -0.7398 -0.2399
   97SAPS  H17R 9681   4.502   3.648   8.431  0.1374 -1.4346 -1.9940
   97SAPS  H17S 9682   4.546   3.818   8.474 -0.2451 -0.1751 -1.2067
   97SAPS  C218 9683   4.712   3.677   8.499 -0.3418  0.0732  0.0475
   97SAPS  H18R 9684   4.785   3.760   8.486  0.6478 -0.8768 -0.5549
   97SAPS  H18S 9685   4.758   3.595   8.439  0.0821 -2.5181  3.7045
   97SAPS  C219 9686   4.684   3.613   8.640 -0.0726  0.1059  0.2530
   97SAPS  H19R 9687   4.591   3.552   8.641  0.0435 -0.4326 -5.0444
   97SAPS  H19S 9688   4.668   3.692   8.717 -1.6220 -0.7322  0.8223
   97SAPS  C220 9689   4.781   3.505   8.686 -0.0129 -0.0303 -0.0672
   97SAPS  H20R 9690   4.884   3.539   8.707  1.1799 -3.0044 -0.8995
   97SAPS  H20S 9691   4.772   3.418   8.618  0.2460  0.6809 -1.0226
   97SAPS  H20T 9692   4.748   3.473   8.788  2.0191 -0.5044  0.4602
   97SAPS   C33 9693   4.035   3.734   7.189  0.7353 -0.0133 -0.3114
   97SAPS   H3X 9694   3.945   3.764   7.131  2.5192  1.6249 -2.3019
   97SAPS   H3Y 9695   4.036   3.789   7.286 -1.1736 -2.1953  0.9847
   97SAPS   C34 9696   4.025   3.579   7.212  0.5383 -0.0265  0.3034
   97SAPS   H4X 9697   4.120   3.524   7.197 -0.1639 -1.4226  0.8917
   97SAPS   H4Y 9698   3.960   3.532   7.135  1.2756  1.5830 -1.3545
   97SAPS   C35 9699   3.974   3.540   7.348  0.2867  0.6372  0.4723
   97SAPS   H5X 9700   3.938   3.435   7.342  2.2160 -0.0613  0.6908
   97SAPS   H5Y 9701   3.895   3.612   7.378  0.0818  0.2893  0.7703
   97SAPS   C36 9702   4.088   3.552   7.449  0.1352  0.0427  0.0317
   97SAPS   H6X 9703   4.166   3.620   7.408 -0.2498  0.0088 -0.7747
   97SAPS   H6Y 9704   4.125   3.447   7.456 -1.2013 -0.3218  1.7925
   97SAPS   C37 9705   4.044   3.613   7.581  0.5053  0.7971 -0.1709
   97SAPS   H7X 9706   3.980   3.699   7.551  0.4304  0.8989  0.2705
   97SAPS   H7Y 9707   4.135   3.653   7.631  1.3858 -2.6985  1.1633
   97SAPS   C38 9708   3.974   3.505   7.666  0.5546 -0.0376  0.3755
   97SAPS   H8X 9709   4.020   3.404   7.670  0.3895 -0.2277 -1.8178
   97SAPS   H8Y 9710   3.877   3.483   7.616  0.2343  1.8448  0.1032
   97SAPS   C39 9711   3.947   3.545   7.815 -0.9708 -0.0784  0.0609
   97SAPS   H9X 9712   3.886   3.637   7.829 -1.0660 -0.4589  2.2413
   97SAPS   H9Y 9713   4.046   3.564   7.862 -0.4587  0.1077 -1.0620
   97SAPS  C310 9714   3.871   3.436   7.904 -0.3427  0.4832 -0.6519
   97SAPS  H10X 9715   3.931   3.343   7.894 -1.7349 -0.3616 -1.1863
   97SAPS  H10Y 9716   3.774   3.430   7.851 -0.6978 -0.5697  0.1141
   97SAPS  C311 9717   3.868   3.479   8.046 -0.0577  0.2960  0.5945
   97SAPS  H11X 9718   3.784   3.421   8.091  0.1538 -1.1610 -0.8085
   97SAPS  H11Y 9719   3.845   3.588   8.046 -0.1657  0.2721  0.9355
   97SAPS  C312 9720   3.996   3.452   8.124 -0.0170 -0.2154 -1.0234
   97SAPS  H12X 9721   4.082   3.499   8.072  0.7102 -0.1370  0.2288
   97SAPS  H12Y 9722   4.000   3.342   8.133 -0.3020 -0.2405 -1.2240
   97SAPS  C313 9723   3.989   3.509   8.265 -0.0167 -0.9202 -0.3080
   97SAPS  H13X 9724   3.914   3.447   8.320  0.9294 -2.1125 -0.3449
   97SAPS  H13Y 9725   3.959   3.615   8.278  0.7849 -0.4290 -2.2692
   97SAPS  C314 9726   4.120   3.499   8.349  0.2412  0.6833  0.5594
   97SAPS  H14X 9727   4.096   3.530   8.453 -0.0072  0.8374  0.4549
   97SAPS  H14Y 9728   4.194   3.574   8.313 -0.7157  1.4192  0.1218
   97SAPS  C315 9729   4.180   3.357   8.341  0.2097  0.1090  0.2386
   97SAPS  H15X 9730   4.218   3.335   8.240  0.7968 -2.3785  0.9769
   97SAPS  H15Y 9731   4.094   3.291   8.365  0.4687 -0.4134 -0.2914
   97SAPS  C316 9732   4.290   3.346   8.440  0.2475  0.0157 -0.1581
   97SAPS  H16X 9733   4.263   3.370   8.545 -0.8071  0.1227 -0.4562
   97SAPS  H16Y 9734   4.364   3.423   8.411  0.8667 -0.3478  0.4047
   97SAPS  C317 9735   4.359   3.210   8.447  0.2416  0.0352 -0.0387
   97SAPS  H17X 9736   4.392   3.188   8.343  0.3294 -0.3712  0.0771
   97SAPS  H17Y 9737   4.285   3.130   8.468 -1.0654  1.0498 -0.6388
   97SAPS  C318 9738   4.488   3.200   8.526 -0.0380  0.7167 -1.4567
   97SAPS  H18X 9739   4.563   3.261   8.470 -0.2806  1.7788 -0.6490
   97SAPS  H18Y 9740   4.533   3.099   8.538  0.6264  1.4618  3.5176
   97SAPS  H18Z 9741   4.477   3.260   8.619  1.8522  0.1031 -0.8029
   98SAPS     N 9742   2.879   3.190   6.215  0.3006 -0.1176  0.3978
   98SAPS   HN1 9743   2.968   3.187   6.268  0.2848 -0.6489  0.4005
   98SAPS   HN2 9744   2.802   3.243   6.260 -0.9880 -1.0838 -0.6120
   98SAPS   HN3 9745   2.851   3.089   6.215 -1.7781  0.4368  1.0142
   98SAPS   C12 9746   2.920   3.241   6.083  0.9577  0.1562 -0.4429
   98SAPS  H12A 9747   2.939   3.347   6.083  0.9410  0.1734 -1.5926
   98SAPS   C13 9748   3.059   3.196   6.028 -0.3739  0.3713 -0.0357
   98SAPS  O13A 9749   3.112   3.119   6.112  0.0303  0.3453 -0.3523
   98SAPS  O13B 9750   3.112   3.246   5.928  0.4317 -0.1294  0.1071
   98SAPS   C11 9751   2.803   3.194   5.983  0.1947  0.2397  0.1006
   98SAPS  H11A 9752   2.824   3.239   5.883  0.2126 -2.0166 -0.9477
   98SAPS  H11B 9753   2.705   3.242   6.002  0.0149  0.2859 -0.9121
   98SAPS     P 9754   2.698   2.958   6.056 -0.3276 -0.0269 -0.3832
   98SAPS   O13 9755   2.583   3.046   6.081 -0.4426  0.0703 -0.9395
   98SAPS   O14 9756   2.673   2.836   5.984  0.4893 -0.1826  0.1953
   98SAPS   O12 9757   2.803   3.047   5.977 -0.2043  0.1805 -0.5787
   98SAPS   O11 9758   2.789   2.931   6.185  0.5202 -0.1647 -0.3801
   98SAPS    C1 9759   2.758   2.828   6.280  0.2519  0.3808 -0.2951
   98SAPS    HA 9760   2.650   2.823   6.305  0.0185  0.4304 -1.2925
   98SAPS    HB 9761   2.786   2.727   6.243 -1.2141 -1.1384  2.5855
   98SAPS    C2 9762   2.837   2.854   6.420  0.1113 -0.0117  0.6283
   98SAPS    HS 9763   2.819   2.763   6.480  1.4253 -0.0119  1.0393
   98SAPS   O21 9764   2.785   2.970   6.495  0.0299 -0.3258 -0.1351
   98SAPS   C21 9765   2.670   2.948   6.551 -1.1608 -0.3861 -0.4795
   98SAPS   O22 9766   2.609   2.841   6.547 -0.1719 -0.0712  0.9189
   98SAPS   C22 9767   2.612   3.073   6.625  0.6034 -0.2485  0.3310
   98SAPS   H2R 9768   2.679   3.112   6.704  3.1417 -1.0581 -1.3466
   98SAPS   H2S 9769   2.603   3.159   6.556  0.6048 -0.8316 -0.4020
   98SAPS    C3 9770   2.993   2.861   6.395 -0.2153 -0.0720 -0.7159
   98SAPS    HX 9771   3.028   2.930   6.316  1.0108  1.1223  0.8243
   98SAPS    HY 9772   3.022   2.761   6.357  0.8246  0.4119 -1.2220
   98SAPS   O31 9773   3.066   2.880   6.515 -0.3430  0.5157  0.5057
   98SAPS   C31 9774   3.090   3.011   6.549  0.5084  0.0507  0.3379
   98SAPS   O32 9775   3.068   3.105   6.476 -0.7027  0.1299 -0.2705
   98SAPS   C32 9776   3.139   3.021   6.687 -0.1337  0.0360  0.4008
   98SAPS   H2X 9777   3.214   3.103   6.693 -0.1100  0.1043 -0.8601
   98SAPS   H2Y 9778   3.183   2.923   6.716 -1.6657 -0.8566 -0.2231
   98SAPS   C23 9779   2.477   3.052   6.686 -0.8042  0.2668 -0.8598
   98SAPS   H3R 9780   2.493   2.978   6.768 -0.1789  0.1170 -1.1114
   98SAPS   H3S 9781   2.409   2.999   6.616 -2.1360  0.1361  0.4909
   98SAPS   C24 9782   2.416   3.175   6.750  0.4465 -0.9859 -0.8026
   98SAPS   H4R 9783   2.407   3.255   6.673 -1.0337  0.3491  0.7049
   98SAPS   H4S 9784   2.479   3.211   6.834 -1.2617 -1.3870  0.6814
   98SAPS   C25 9785   2.282   3.157   6.813 -0.1362  1.0454  0.5199
   98SAPS   H5R 9786   2.194   3.125   6.755  0.9824 -0.0926 -0.5830
   98SAPS   C26 9787   2.255   3.188   6.938  0.3095  0.6156  0.3532
   98SAPS   H6R 9788   2.152   3.187   6.978 -0.3224 -0.8208 -1.2774
   98SAPS   C27 9789   2.354   3.230   7.043 -0.3920  0.6791  1.0766
   98SAPS   H7R 9790   2.299   3.272   7.130 -2.2001 -2.7240  1.6717
   98SAPS   H7S 9791   2.428   3.304   7.006 -0.3549 -0.4322 -1.1334
   98SAPS   C28 9792   2.429   3.117   7.105 -0.1216  0.0021 -0.1706
   98SAPS   H8R 9793   2.487   3.054   7.036 -0.7145  0.0868 -0.7524
   98SAPS   C29 9794   2.410   3.076   7.228  0.6271 -0.1476 -0.6998
   98SAPS   H9R 9795   2.473   2.989   7.253  0.1721 -0.3787 -0.3524
   98SAPS  C210 9796   2.319   3.133   7.340 -0.0314  0.3440 -0.0127
   98SAPS  H10R 9797   2.324   3.243   7.327 -0.5897  0.1332 -2.2901
   98SAPS  H10S 9798   2.351   3.095   7.439  0.0251 -1.1455 -0.5853
   98SAPS  C211 9799   2.185   3.091   7.314  0.8548 -0.2832  0.7208
   98SAPS  H11R 9800   2.164   3.045   7.217 -2.6441  0.2947  1.1640
   98SAPS  C212 9801   2.082   3.092   7.402  0.7573  0.6293  0.5016
   98SAPS  H12R 9802   1.986   3.043   7.382  0.2832  0.8506  2.1553
   98SAPS  C213 9803   2.085   3.134   7.542 -0.1934 -0.3601 -0.5439
   98SAPS  H13R 9804   2.185   3.155   7.583 -0.8549 -0.4595  1.1632
   98SAPS  H13S 9805   2.042   3.055   7.607  1.4469 -2.3370 -1.8146
   98SAPS  C214 9806   2.010   3.268   7.560  0.1756  0.2100  0.2315
   98SAPS  H14R 9807   1.983   3.318   7.466 -1.6129  2.3577  1.8264
   98SAPS  C215 9808   1.963   3.322   7.677  0.1438 -0.4065  0.6136
   98SAPS  H15R 9809   1.920   3.423   7.684  0.7401 -0.0568 -0.6814
   98SAPS  C216 9810   1.981   3.260   7.813  0.3246 -0.1591  0.4027
   98SAPS  H16R 9811   1.999   3.343   7.884  1.9585  1.0374 -1.3613
   98SAPS  H16S 9812   2.073   3.199   7.804  0.1477 -0.6336  1.7587
   98SAPS  C217 9813   1.870   3.161   7.850 -0.7273  0.6732 -0.1415
   98SAPS  H17R 9814   1.902   3.111   7.945 -0.3631 -2.1978 -1.7142
   98SAPS  H17S 9815   1.870   3.079   7.775  0.1028 -1.9072  2.5616
   98SAPS  C218 9816   1.731   3.225   7.857  0.0159 -0.0644 -0.2654
   98SAPS  H18R 9817   1.701   3.246   7.753  1.3666 -0.3729 -0.7288
   98SAPS  H18S 9818   1.733   3.323   7.908 -0.6913 -0.4343  0.4820
   98SAPS  C219 9819   1.617   3.143   7.917 -0.0469 -0.8257  0.3814
   98SAPS  H19R 9820   1.522   3.187   7.882  1.2206 -0.0948 -2.2827
   98SAPS  H19S 9821   1.624   3.133   8.027  0.5280 -0.4015  0.3862
   98SAPS  C220 9822   1.614   2.998   7.867 -0.1930  0.1412  0.1840
   98SAPS  H20R 9823   1.589   2.982   7.759  1.2368 -1.7457  0.1061
   98SAPS  H20S 9824   1.528   2.944   7.912 -0.3838 -0.9904 -1.4680
   98SAPS  H20T 9825   1.711   2.948   7.885 -0.2624 -0.0307  0.0895
   98SAPS   C33 9826   3.033   3.033   6.805  0.3008 -0.3908  0.7562
   98SAPS   H3X 9827   2.961   3.115   6.784  1.9774  0.6909 -0.9563
   98SAPS   H3Y 9828   3.091   3.070   6.893  0.5364  0.6948  0.1495
   98SAPS   C34 9829   2.966   2.902   6.841 -0.2261 -0.1884  0.2009
   98SAPS   H4X 9830   3.046   2.836   6.882  0.5952  0.8150  0.2442
   98SAPS   H4Y 9831   2.926   2.861   6.747 -1.0486  0.5336  0.2279
   98SAPS   C35 9832   2.861   2.917   6.953  0.4762  0.4402  0.0920
   98SAPS   H5X 9833   2.805   2.821   6.957  1.7486 -0.3368 -0.1787
   98SAPS   H5Y 9834   2.795   3.001   6.924 -0.0783  0.4716  1.4210
   98SAPS   C36 9835   2.917   2.946   7.091 -0.4963  0.4612 -0.2480
   98SAPS   H6X 9836   2.962   3.047   7.099 -0.3835  0.3949 -0.0358
   98SAPS   H6Y 9837   3.003   2.878   7.105  0.8475  2.7040  2.8822
   98SAPS   C37 9838   2.810   2.937   7.205 -0.3218 -0.2351 -0.3380
   98SAPS   H7X 9839   2.757   2.840   7.196 -0.8917 -0.1799  2.1344
   98SAPS   H7Y 9840   2.728   3.008   7.184 -0.9248 -0.9491 -0.4350
   98SAPS   C38 9841   2.850   2.957   7.346  0.0501  0.0245 -0.0967
   98SAPS   H8X 9842   2.864   3.067   7.352 -0.6585  0.1214 -0.0798
   98SAPS   H8Y 9843   2.950   2.912   7.361  0.5916  1.2672  0.0698
   98SAPS   C39 9844   2.743   2.910   7.439  0.1743 -0.4679 -0.1499
   98SAPS   H9X 9845   2.735   2.801   7.422 -0.8230 -0.0517 -2.6386
   98SAPS   H9Y 9846   2.642   2.945   7.409 -0.6257 -0.6586  2.2725
   98SAPS  C310 9847   2.763   2.945   7.585 -0.1457 -1.1772  0.3171
   98SAPS  H10X 9848   2.757   3.056   7.592 -1.0076 -1.0262 -2.2100
   98SAPS  H10Y 9849   2.861   2.901   7.613  0.4084  0.2396  0.6434
   98SAPS  C311 9850   2.646   2.889   7.664 -0.7511  0.8636 -0.4166
   98SAPS  H11X 9851   2.622   2.787   7.628 -0.5625  1.2427 -1.6515
   98SAPS  H11Y 9852   2.563   2.958   7.639 -0.8684  1.0178  0.3614
   98SAPS  C312 9853   2.675   2.906   7.820  0.3625  0.6492 -0.1691
   98SAPS  H12X 9854   2.669   3.011   7.855 -2.3146  0.0625  1.2644
   98SAPS  H12Y 9855   2.779   2.880   7.849 -0.2228 -0.7213  0.7547
   98SAPS  C313 9856   2.575   2.839   7.909 -0.5218  0.3647  0.4126
   98SAPS  H13X 9857   2.584   2.866   8.017 -0.8620 -2.3812  1.1641
   98SAPS  H13Y 9858   2.593   2.730   7.903  1.9628  0.7009  1.0589
   98SAPS  C314 9859   2.428   2.868   7.869 -0.1357 -0.1853  0.5087
   98SAPS  H14X 9860   2.371   2.786   7.916 -0.2160  0.4884  1.6005
   98SAPS  H14Y 9861   2.408   2.856   7.760  4.4796 -2.4631 -0.2084
   98SAPS  C315 9862   2.378   3.002   7.918 -0.2408 -0.5622  0.0114
   98SAPS  H15X 9863   2.281   3.027   7.870  0.9437  1.4448 -1.4415
   98SAPS  H15Y 9864   2.455   3.076   7.884 -0.4786 -0.2122  0.2324
   98SAPS  C316 9865   2.373   3.023   8.068  0.2454  0.0530  0.2475
   98SAPS  H16X 9866   2.464   3.046   8.127 -1.2314  2.9647  1.4755
   98SAPS  H16Y 9867   2.333   2.930   8.114 -0.6784  0.9624  1.3090
   98SAPS  C317 9868   2.270   3.132   8.120  0.4604  0.1609  0.0447
   98SAPS  H17X 9869   2.265   3.110   8.229  1.0507 -1.5964 -0.2683
   98SAPS  H17Y 9870   2.170   3.115   8.075  0.4724  0.9247 -0.2778
   98SAPS  C318 9871   2.322   3.274   8.087  0.2374  0.6593 -0.8907
   98SAPS  H18X 9872   2.325   3.295   7.978  1.0493 -0.7213 -1.1483
   98SAPS  H18Y 9873   2.417   3.295   8.140 -0.5664  0.0161  0.8249
   98SAPS  H18Z 9874   2.252   3.343   8.138 -0.1677 -1.2527  1.2260
   99SAPS     N 9875   2.544   1.201   5.910  0.5667  0.0830  0.1108
   99SAPS   HN1 9876   2.642   1.176   5.935  1.0065 -0.3525 -1.9195
   99SAPS   HN2 9877   2.540   1.288   5.853 -1.0419  0.4404  0.7615
   99SAPS   HN3 9878   2.482   1.213   5.992 -1.4753 -2.1976 -1.0069
   99SAPS   C12 9879   2.483   1.086   5.838  0.2106  0.0546 -0.6991
   99SAPS  H12A 9880   2.392   1.119   5.791 -0.1880 -0.9282 -0.6158
   99SAPS   C13 9881   2.563   1.001   5.735 -0.3176 -0.8384 -1.0451
   99SAPS  O13A 9882   2.685   1.032   5.708  0.4946 -0.2923 -0.4002
   99SAPS  O13B 9883   2.492   0.922   5.663 -0.0879  0.0454  0.7754
   99SAPS   C11 9884   2.419   0.988   5.944  0.5386  0.5847  0.5288
   99SAPS  H11A 9885   2.492   0.927   6.001 -0.2028 -0.3798  0.4464
   99SAPS  H11B 9886   2.371   0.916   5.875 -2.5797  2.6782  0.3508
   99SAPS     P 9887   2.231   0.938   6.121  0.0166 -0.4218 -0.6424
   99SAPS   O13 9888   2.108   1.014   6.157 -0.3089  0.1283  0.5548
   99SAPS   O14 9889   2.225   0.814   6.036  0.5954 -0.2498  0.1450
   99SAPS   O12 9890   2.323   1.042   6.039 -0.1452  0.4136  0.8872
   99SAPS   O11 9891   2.321   0.927   6.246 -0.1638 -0.1416 -0.9681
   99SAPS    C1 9892   2.395   1.041   6.295  0.0953 -0.6644 -0.6845
   99SAPS    HA 9893   2.506   1.035   6.304  0.0263 -1.2181 -0.1996
   99SAPS    HB 9894   2.389   1.134   6.235  1.1541  0.5962  1.0944
   99SAPS    C2 9895   2.359   1.080   6.450 -0.2055  0.3810 -0.1622
   99SAPS    HS 9896   2.397   1.181   6.476  0.8741 -0.5332  1.9991
   99SAPS   O21 9897   2.415   0.982   6.546 -0.0162 -0.0222 -0.1031
   99SAPS   C21 9898   2.543   1.007   6.566  0.3113 -0.1842  0.0339
   99SAPS   O22 9899   2.608   1.103   6.522  0.2149  0.4010 -0.7883
   99SAPS   C22 9900   2.604   0.902   6.664  0.0336  0.3380  0.1042
   99SAPS   H2R 9901   2.544   0.918   6.756 -2.2502 -1.3293 -1.0425
   99SAPS   H2S 9902   2.578   0.804   6.618  0.1614 -0.7947  2.3340
   99SAPS    C3 9903   2.203   1.077   6.470  0.5526  0.1150  0.6093
   99SAPS    HX 9904   2.165   0.976   6.445  3.3025 -0.8586  0.1514
   99SAPS    HY 9905   2.158   1.143   6.393 -3.4931 -1.8386  1.1982
   99SAPS   O31 9906   2.173   1.120   6.602  0.3799 -0.2094 -0.5395
   99SAPS   C31 9907   2.098   1.045   6.677  0.1175 -0.8036 -0.3132
   99SAPS   O32 9908   2.053   0.931   6.644 -0.1265 -0.1173 -0.1398
   99SAPS   C32 9909   2.090   1.113   6.817 -0.3815  0.0525  0.0299
   99SAPS   H2X 9910   1.992   1.164   6.831  0.9368  2.7668 -0.3804
   99SAPS   H2Y 9911   2.169   1.190   6.823 -0.4804 -0.0386  3.4056
   99SAPS   C23 9912   2.751   0.923   6.702 -0.0539 -0.2801  0.3531
   99SAPS   H3R 9913   2.773   1.031   6.710  3.3818 -0.8610 -0.2979
   99SAPS   H3S 9914   2.817   0.890   6.619 -1.1746  0.3434 -0.8008
   99SAPS   C24 9915   2.798   0.844   6.822  0.3262 -0.4489 -0.0512
   99SAPS   H4R 9916   2.772   0.908   6.908 -0.6561  1.0330 -1.4178
   99SAPS   H4S 9917   2.908   0.839   6.835  0.2667  0.1843  0.7254
   99SAPS   C25 9918   2.751   0.701   6.829  0.3380  0.0938 -0.7425
   99SAPS   H5R 9919   2.790   0.633   6.753  0.3913 -0.6280 -0.0730
   99SAPS   C26 9920   2.671   0.645   6.920  0.2158 -0.6611 -0.3862
   99SAPS   H6R 9921   2.647   0.538   6.910 -2.0463 -0.3976  1.8146
   99SAPS   C27 9922   2.603   0.717   7.035 -0.0178  0.6895 -0.3039
   99SAPS   H7R 9923   2.647   0.819   7.049 -0.0810  0.4250  2.0615
   99SAPS   H7S 9924   2.632   0.678   7.135 -1.2528  2.2836  0.7119
   99SAPS   C28 9925   2.451   0.714   7.013 -0.4057 -0.6336  0.1262
   99SAPS   H8R 9926   2.420   0.701   6.909 -1.8465 -2.3795  0.7510
   99SAPS   C29 9927   2.357   0.732   7.112  0.3516 -0.1728 -1.0357
   99SAPS   H9R 9928   2.252   0.738   7.080  0.0906 -0.6047 -0.2625
   99SAPS  C210 9929   2.387   0.750   7.264 -0.9472  0.2034 -0.2414
   99SAPS  H10R 9930   2.487   0.707   7.283  0.0400  1.7944 -1.6841
   99SAPS  H10S 9931   2.306   0.693   7.314  0.4096 -1.0511  0.5310
   99SAPS  C211 9932   2.378   0.895   7.309 -0.5021  0.0562 -0.3893
   99SAPS  H11R 9933   2.356   0.973   7.235  2.0535 -1.6261 -3.0359
   99SAPS  C212 9934   2.394   0.935   7.438  0.0187 -0.0564 -0.2429
   99SAPS  H12R 9935   2.384   1.041   7.465 -0.0867  0.4775 -2.2708
   99SAPS  C213 9936   2.416   0.837   7.554 -0.6240  0.2395 -0.8606
   99SAPS  H13R 9937   2.386   0.733   7.528  2.5100 -0.5168 -1.7690
   99SAPS  H13S 9938   2.346   0.862   7.636  0.4637 -0.9675  0.4733
   99SAPS  C214 9939   2.565   0.836   7.586  0.8265  0.2288 -0.8875
   99SAPS  H14R 9940   2.641   0.815   7.510 -0.4020 -2.1880 -1.5108
   99SAPS  C215 9941   2.618   0.845   7.710  0.0474  0.3090  0.2006
   99SAPS  H15R 9942   2.724   0.832   7.736 -0.4507  1.0973  2.7139
   99SAPS  C216 9943   2.529   0.860   7.830  0.4706 -0.0681  0.0109
   99SAPS  H16R 9944   2.465   0.769   7.842  1.6428 -0.6516  1.9739
   99SAPS  H16S 9945   2.467   0.953   7.828 -0.0936 -0.4428 -0.2382
   99SAPS  C217 9946   2.611   0.875   7.957 -0.2307 -0.3948  0.8745
   99SAPS  H17R 9947   2.649   0.978   7.969 -0.7702 -0.2907  1.7759
   99SAPS  H17S 9948   2.698   0.807   7.949  0.6148  0.7837  0.0622
   99SAPS  C218 9949   2.533   0.835   8.081 -0.3916  0.4528  0.2551
   99SAPS  H18R 9950   2.610   0.846   8.160 -0.1685 -1.1758  0.2702
   99SAPS  H18S 9951   2.509   0.727   8.067 -0.2590  0.5784 -1.0539
   99SAPS  C219 9952   2.413   0.925   8.101  0.0818 -0.5677 -0.5525
   99SAPS  H19R 9953   2.325   0.905   8.037 -0.2745  0.9435 -0.5656
   99SAPS  H19S 9954   2.449   1.029   8.084  1.6200 -0.9579  0.2606
   99SAPS  C220 9955   2.382   0.916   8.255  0.3041 -0.1324 -0.3406
   99SAPS  H20R 9956   2.358   0.809   8.271  0.1784 -0.1707 -0.7572
   99SAPS  H20S 9957   2.291   0.980   8.262  0.1998 -0.1158 -1.6121
   99SAPS  H20T 9958   2.465   0.951   8.319  0.2692  1.5023 -1.1671
   99SAPS   C33 9959   2.125   1.021   6.930  0.1921 -0.5033 -0.3610
   99SAPS   H3X 9960   2.235   1.024   6.941 -0.0303  2.4520  1.5929
   99SAPS   H3Y 9961   2.080   0.919   6.930  0.4092 -0.5982 -0.6197
   99SAPS   C34 9962   2.072   1.068   7.069 -0.3483 -0.1326 -0.1869
   99SAPS   H4X 9963   2.116   0.997   7.142  0.4028  0.5722  0.0511
   99SAPS   H4Y 9964   1.963   1.060   7.089 -0.1641  0.3027  1.0189
   99SAPS   C35 9965   2.129   1.204   7.110 -0.5441  0.2942  0.1003
   99SAPS   H5X 9966   2.074   1.292   7.069  0.3564  0.5406 -0.5921
   99SAPS   H5Y 9967   2.239   1.206   7.094 -0.4960  0.8026  0.4618
   99SAPS   C36 9968   2.099   1.230   7.261  0.2581 -0.0969  0.2920
   99SAPS   H6X 9969   2.139   1.141   7.315 -0.5420  0.6617  2.1592
   99SAPS   H6Y 9970   1.992   1.217   7.288  0.7005 -1.8270  1.3322
   99SAPS   C37 9971   2.147   1.363   7.322 -0.2417  0.1361 -0.3851
   99SAPS   H7X 9972   2.117   1.440   7.247 -0.7217 -1.2293 -1.6214
   99SAPS   H7Y 9973   2.257   1.354   7.331 -0.4591 -2.2211  0.0530
   99SAPS   C38 9974   2.086   1.396   7.453 -0.0513 -0.0031  0.1034
   99SAPS   H8X 9975   1.977   1.407   7.441 -0.0807  1.1507  1.3108
   99SAPS   H8Y 9976   2.127   1.493   7.489 -2.4563  0.9392  0.3631
   99SAPS   C39 9977   2.097   1.288   7.557 -0.3363  0.0302  0.7462
   99SAPS   H9X 9978   2.195   1.238   7.542 -0.4966  0.0704 -0.4948
   99SAPS   H9Y 9979   2.016   1.212   7.553  0.1092 -0.4809  1.3057
   99SAPS  C310 9980   2.103   1.345   7.699 -0.0941 -0.0407 -1.1272
   99SAPS  H10X 9981   2.019   1.413   7.722 -0.5235 -1.0608  0.4494
   99SAPS  H10Y 9982   2.197   1.400   7.721 -1.3843  1.6510  0.3283
   99SAPS  C311 9983   2.096   1.231   7.799  0.1580 -0.2505  0.6970
   99SAPS  H11X 9984   2.004   1.178   7.767 -0.1151 -0.1966  1.3946
   99SAPS  H11Y 9985   2.076   1.276   7.898 -1.3191  0.5826  0.0304
   99SAPS  C312 9986   2.222   1.139   7.813 -0.7759  0.3531  0.3110
   99SAPS  H12X 9987   2.240   1.075   7.724  2.2354  0.4305  0.8318
   99SAPS  H12Y 9988   2.198   1.058   7.886  0.4151 -1.7931 -1.6002
   99SAPS  C313 9989   2.357   1.209   7.840 -0.1834  0.2617 -0.6951
   99SAPS  H13X 9990   2.402   1.251   7.747 -1.1459 -0.3860 -1.4651
   99SAPS  H13Y 9991   2.428   1.136   7.883 -1.9019 -2.0577 -1.6798
   99SAPS  C314 9992   2.351   1.316   7.950  0.0194  0.4054  0.0591
   99SAPS  H14X 9993   2.343   1.269   8.050 -1.4314 -1.3827 -0.8651
   99SAPS  H14Y 9994   2.259   1.376   7.932  1.3596  3.0326  1.5492
   99SAPS  C315 9995   2.468   1.410   7.972  0.4196  0.2005 -0.3666
   99SAPS  H15X 9996   2.444   1.493   8.042  0.4280  0.4063 -0.6088
   99SAPS  H15Y 9997   2.485   1.465   7.877  1.0975 -2.1349 -1.6292
   99SAPS  C316 9998   2.593   1.351   8.034  0.2827 -0.2994  0.6471
   99SAPS  H16X 9999   2.671   1.426   8.008  0.6804 -0.8351  0.2546
   99SAPS  H16Y10000   2.632   1.266   7.973  0.3864 -0.7675  1.3708
   99SAPS  C31710001   2.593   1.326   8.186  0.1361  0.1367  0.0980
   99SAPS  H17X10002   2.518   1.259   8.232  0.7491 -1.5797 -1.3594
   99SAPS  H17Y10003   2.581   1.427   8.231  0.1039  0.2881 -0.2471
   99SAPS  C31810004   2.722   1.262   8.234 -0.0652  0.3634  0.7738
   99SAPS  H18X10005   2.803   1.314   8.180  0.8652 -1.3878  0.4509
   99SAPS  H18Y10006   2.727   1.156   8.200 -1.3532  0.0239  1.6108
   99SAPS  H18Z10007   2.744   1.276   8.342  1.2296  0.8539  0.4523
  100SAPS     N10008   3.742   2.648   6.168  0.1443  0.3498  0.1830
  100SAPS   HN110009   3.727   2.587   6.085 -1.3873 -0.0849  0.7813
  100SAPS   HN210010   3.843   2.666   6.186  1.0957  0.4737 -4.5004
  100SAPS   HN310011   3.705   2.603   6.254 -0.6326  1.4172  0.4192
  100SAPS   C1210012   3.667   2.769   6.147  0.4724  1.1721  0.2080
  100SAPS  H12A10013   3.702   2.823   6.060  0.1692 -1.0954 -1.3628
  100SAPS   C1310014   3.514   2.741   6.138 -0.3533 -0.0897  0.8540
  100SAPS  O13A10015   3.473   2.623   6.139  0.0591  0.3166 -0.4658
  100SAPS  O13B10016   3.442   2.838   6.100  0.7051  0.1564  0.9859
  100SAPS   C1110017   3.704   2.881   6.256  0.1368 -0.3384  0.3547
  100SAPS  H11A10018   3.637   2.863   6.342 -0.1617 -0.9017  0.0064
  100SAPS  H11B10019   3.675   2.975   6.206  4.0088  0.9373  0.3090
  100SAPS     P10020   3.930   2.992   6.312  0.1117  0.0339 -0.2102
  100SAPS   O1310021   4.074   2.964   6.298 -0.4104  0.3355  0.0419
  100SAPS   O1410022   3.882   3.112   6.242  0.3858  0.2381  0.6792
  100SAPS   O1210023   3.847   2.869   6.269  0.3080  0.3030  0.2859
  100SAPS   O1110024   3.891   3.014   6.469  0.0397  0.3616 -0.4405
  100SAPS    C110025   3.865   2.905   6.550 -0.2526  0.1570 -0.7633
  100SAPS    HA10026   3.759   2.907   6.582  0.4711  2.2518  1.7202
  100SAPS    HB10027   3.885   2.811   6.496  0.4762  0.3367 -0.8071
  100SAPS    C210028   3.944   2.916   6.682 -0.6185 -0.4679 -0.2322
  100SAPS    HS10029   3.919   2.835   6.753 -2.0828 -0.5276 -0.8057
  100SAPS   O2110030   3.918   3.045   6.750  0.4406 -0.3090 -0.0421
  100SAPS   C2110031   3.789   3.067   6.792 -0.3405 -0.7327  0.1317
  100SAPS   O2210032   3.707   2.980   6.810  0.4747 -0.0932 -0.7208
  100SAPS   C2210033   3.797   3.203   6.862  0.0628 -0.8914 -0.1116
  100SAPS   H2R10034   3.892   3.207   6.920 -0.3468 -0.0316  0.5080
  100SAPS   H2S10035   3.799   3.282   6.784  0.2459 -3.0785 -2.4008
  100SAPS    C310036   4.092   2.899   6.660 -0.4005  0.2040 -0.2653
  100SAPS    HX10037   4.133   2.982   6.599 -0.1034  0.6583  0.5401
  100SAPS    HY10038   4.110   2.807   6.601 -2.1311 -0.1617 -0.2754
  100SAPS   O3110039   4.176   2.909   6.781  0.3582 -0.3549  0.4527
  100SAPS   C3110040   4.181   2.797   6.855 -0.1351 -0.5958 -0.1020
  100SAPS   O3210041   4.135   2.687   6.827  0.7333  0.2056  0.1859
  100SAPS   C3210042   4.261   2.833   6.977  0.2938 -0.0945 -0.1155
  100SAPS   H2X10043   4.198   2.886   7.053  1.0509 -2.0224  1.9228
  100SAPS   H2Y10044   4.338   2.908   6.948  0.7204  0.2509  1.8335
  100SAPS   C2310045   3.680   3.225   6.963  0.1808  0.0035  0.2247
  100SAPS   H3R10046   3.679   3.130   7.020  0.4767 -0.2473 -0.1895
  100SAPS   H3S10047   3.579   3.223   6.918 -0.7123 -0.7829  2.1867
  100SAPS   C2410048   3.698   3.340   7.056  0.3559 -0.1119 -0.7459
  100SAPS   H4R10049   3.687   3.436   7.001  0.4297  0.6010  0.4642
  100SAPS   H4S10050   3.804   3.339   7.091  0.3089 -0.7593 -0.6109
  100SAPS   C2510051   3.598   3.351   7.158 -0.3203  0.2039 -1.1712
  100SAPS   H5R10052   3.503   3.398   7.130 -1.4199 -0.4350  1.3847
  100SAPS   C2610053   3.597   3.315   7.289 -0.4699  0.6624  0.6702
  100SAPS   H6R10054   3.510   3.343   7.351  0.0449 -1.1751  2.2527
  100SAPS   C2710055   3.704   3.237   7.373 -0.0156  0.0707  0.3941
  100SAPS   H7R10056   3.804   3.267   7.335 -0.3537  1.8275  0.8638
  100SAPS   H7S10057   3.705   3.127   7.355  0.0697  0.0744  0.3736
  100SAPS   C2810058   3.706   3.272   7.524  0.0421 -1.2534 -0.6545
  100SAPS   H8R10059   3.683   3.376   7.551 -0.1144 -1.8105  1.3872
  100SAPS   C2910060   3.725   3.182   7.627  0.2791  0.8882 -0.1106
  100SAPS   H9R10061   3.743   3.215   7.730  1.9333  0.6638 -0.3055
  100SAPS  C21010062   3.738   3.032   7.608  0.0527  0.2682  0.2181
  100SAPS  H10R10063   3.670   2.980   7.537 -2.6644  0.4571  2.5874
  100SAPS  H10S10064   3.705   2.994   7.707 -3.1739  1.1867 -0.4409
  100SAPS  C21110065   3.875   2.980   7.586 -0.5901  0.6953 -0.4235
  100SAPS  H11R10066   3.916   3.037   7.501 -0.1464  1.2828  0.1779
  100SAPS  C21210067   3.949   2.888   7.650 -0.3641  0.2592 -0.3544
  100SAPS  H12R10068   4.050   2.863   7.614 -0.5161  0.2757 -0.8070
  100SAPS  C21310069   3.896   2.801   7.759 -0.8148  0.5251  0.8309
  100SAPS  H13R10070   3.932   2.697   7.743 -0.5870  0.3094  2.6918
  100SAPS  H13S10071   3.786   2.795   7.741 -0.6038  1.5464 -1.0065
  100SAPS  C21410072   3.914   2.851   7.896 -0.1611 -0.0977  0.2544
  100SAPS  H14R10073   3.924   2.960   7.906 -2.8375  0.0680  1.5542
  100SAPS  C21510074   3.912   2.781   8.007  0.2075 -0.6501  0.7551
  100SAPS  H15R10075   3.933   2.838   8.099 -2.4127  0.4592  0.7004
  100SAPS  C21610076   3.885   2.631   8.008  0.6399  0.4645 -0.2433
  100SAPS  H16R10077   3.804   2.591   7.944 -0.8776  1.0792  1.2482
  100SAPS  H16S10078   3.861   2.594   8.110 -0.8985  0.7732 -0.4781
  100SAPS  C21710079   4.006   2.548   7.970 -0.1975 -0.4913  1.1346
  100SAPS  H17R10080   4.095   2.574   8.032  0.6208  1.8673 -0.9338
  100SAPS  H17S10081   4.049   2.588   7.875 -1.3942  0.0043  0.7861
  100SAPS  C21810082   3.982   2.401   7.948 -0.2564  0.0163 -0.2906
  100SAPS  H18R10083   3.885   2.386   7.895 -0.1039 -1.2224 -0.2372
  100SAPS  H18S10084   3.978   2.359   8.050  2.3327  1.9722  0.6555
  100SAPS  C21910085   4.105   2.331   7.879  0.1114  0.6945 -0.1484
  100SAPS  H19R10086   4.192   2.327   7.947  0.7574 -2.2399 -1.0924
  100SAPS  H19S10087   4.131   2.385   7.786  1.5923  1.4597  0.6978
  100SAPS  C22010088   4.080   2.185   7.830  0.5492 -0.5822 -0.0488
  100SAPS  H20R10089   3.999   2.183   7.754  0.5029 -0.3003 -0.0075
  100SAPS  H20S10090   4.044   2.116   7.910 -1.2235  1.4502  0.9578
  100SAPS  H20T10091   4.169   2.138   7.785 -0.6582 -2.7875 -0.2198
  100SAPS   C3310092   4.325   2.714   7.051 -0.1647  0.2504 -0.2301
  100SAPS   H3X10093   4.389   2.657   6.980 -0.4837 -3.6324  2.4614
  100SAPS   H3Y10094   4.239   2.644   7.056 -0.3156  0.4977  0.6265
  100SAPS   C3410095   4.395   2.761   7.182 -0.4368  0.2277 -0.9566
  100SAPS   H4X10096   4.335   2.834   7.241 -0.1879  0.2912 -0.7813
  100SAPS   H4Y10097   4.496   2.807   7.170 -0.2613 -0.0865 -0.6931
  100SAPS   C3510098   4.435   2.644   7.281  1.0602 -0.1503  0.4007
  100SAPS   H5X10099   4.486   2.695   7.365  0.3351  0.4294  0.4946
  100SAPS   H5Y10100   4.502   2.579   7.220  0.3548  0.3017 -0.8776
  100SAPS   C3610101   4.316   2.572   7.343 -0.2706 -0.0201 -0.4949
  100SAPS   H6X10102   4.374   2.494   7.396 -0.4038  0.6375  0.6185
  100SAPS   H6Y10103   4.245   2.525   7.272 -1.0531 -1.2462  1.0685
  100SAPS   C3710104   4.234   2.648   7.456  0.5164  0.2444  0.0067
  100SAPS   H7X10105   4.177   2.729   7.407  0.5793 -1.1999 -2.5557
  100SAPS   H7Y10106   4.305   2.693   7.529  0.9380  1.0505 -0.8872
  100SAPS   C3810107   4.144   2.554   7.531  0.6733 -0.8777 -0.3487
  100SAPS   H8X10108   4.116   2.605   7.625 -1.3414 -1.0082 -0.8610
  100SAPS   H8Y10109   4.201   2.467   7.571 -0.4242 -0.1409  2.9756
  100SAPS   C3910110   4.010   2.503   7.461  0.4656  0.1209  0.5400
  100SAPS   H9X10111   4.042   2.423   7.392  0.1307  0.2508  0.2321
  100SAPS   H9Y10112   3.968   2.598   7.420  1.8276  0.4799 -0.0436
  100SAPS  C31010113   3.912   2.436   7.556 -0.0103 -0.0897 -0.0566
  100SAPS  H10X10114   3.891   2.503   7.642 -0.6870 -2.8695  2.0274
  100SAPS  H10Y10115   3.950   2.333   7.570  0.1955  0.1897  1.6157
  100SAPS  C31110116   3.775   2.413   7.483  0.3585 -0.1335 -0.3474
  100SAPS  H11X10117   3.795   2.352   7.393 -1.9995  0.0844 -1.0568
  100SAPS  H11Y10118   3.733   2.509   7.448 -1.4262 -0.2687  1.3201
  100SAPS  C31210119   3.661   2.349   7.577 -0.2926 -0.4054  0.4361
  100SAPS  H12X10120   3.706   2.277   7.648 -1.2094 -1.9245 -0.4844
  100SAPS  H12Y10121   3.581   2.307   7.512  0.5586  1.4297 -1.8526
  100SAPS  C31310122   3.600   2.454   7.671 -0.3385 -0.2457 -0.0741
  100SAPS  H13X10123   3.554   2.532   7.607  3.0068  1.3220 -0.6818
  100SAPS  H13Y10124   3.687   2.496   7.727 -0.5452 -1.6240  1.3042
  100SAPS  C31410125   3.498   2.397   7.770 -0.7220 -0.4211 -0.8121
  100SAPS  H14X10126   3.544   2.362   7.865  0.1812 -0.4590 -1.2610
  100SAPS  H14Y10127   3.459   2.305   7.721  1.3332 -1.3691 -0.7028
  100SAPS  C31510128   3.377   2.483   7.796  0.4741  0.9086  0.0409
  100SAPS  H15X10129   3.324   2.521   7.706 -1.0594 -1.5390 -0.1340
  100SAPS  H15Y10130   3.406   2.577   7.849 -0.1488  1.4251 -0.5207
  100SAPS  C31610131   3.271   2.415   7.886  0.6053  0.4463  1.2721
  100SAPS  H16X10132   3.243   2.315   7.848 -0.8233  0.6438  1.8085
  100SAPS  H16Y10133   3.180   2.477   7.894 -1.1940 -1.9347 -0.1802
  100SAPS  C31710134   3.305   2.388   8.038 -0.2275 -0.0155 -0.8785
  100SAPS  H17X10135   3.335   2.487   8.078  0.8855 -0.3876 -0.7824
  100SAPS  H17Y10136   3.388   2.315   8.050 -0.4896  0.0721  1.8657
  100SAPS  C31810137   3.182   2.336   8.120 -0.1640  0.0550  0.2060
  100SAPS  H18X10138   3.102   2.413   8.115 -2.4373 -2.1997  1.0795
  100SAPS  H18Y10139   3.216   2.300   8.219 -1.2364  1.1919  0.9928
  100SAPS  H18Z10140   3.142   2.245   8.071 -2.4374  0.6099  0.9986
  101OSM      N10141   4.017   2.560  10.988 -0.1592  0.4376 -0.2010
  101OSM    C1510142   4.114   2.586  11.103  0.2671 -0.3331 -0.3271
  101OSM   H15A10143   4.207   2.631  11.070  1.6430 -0.9650  2.4665
  101OSM   H15B10144   4.141   2.488  11.141 -0.6028 -1.2234 -1.9813
  101OSM   H15C10145   4.056   2.641  11.175  0.3364 -1.7798  0.8711
  101OSM    C1410146   4.094   2.487  10.887  0.0244  0.0645  0.7190
  101OSM   H14A10147   4.122   2.390  10.924  0.4829 -1.6320 -3.8015
  101OSM   H14B10148   4.185   2.543  10.870  1.2608 -1.6401  1.5499
  101OSM   H14C10149   4.038   2.478  10.795  0.8315 -1.3128  0.3452
  101OSM    C1310150   3.907   2.473  11.039 -0.0248 -0.3420 -0.3258
  101OSM   H13A10151   3.941   2.371  11.025 -2.3219 -1.2247  0.3048
  101OSM   H13B10152   3.829   2.487  10.966  1.9438  0.6003 -2.3072
  101OSM   H13C10153   3.875   2.489  11.141  0.5556  0.6479 -0.2975
  101OSM    C1210154   3.974   2.693  10.941 -0.6319  0.1507 -0.4599
  101OSM   H12A10155   4.056   2.735  10.884 -1.8523  1.2596 -1.4489
  101OSM   H12B10156   3.959   2.754  11.029  0.5496  1.6078 -1.2366
  101OSM    C1110157   3.847   2.695  10.854 -0.1012 -0.5780  0.5000
  101OSM   H11A10158   3.761   2.675  10.921  0.3036  0.6663  1.4163
  101OSM   H11B10159   3.873   2.615  10.781 -0.3086 -0.5819  0.4330
  101OSM      P10160   3.875   2.842  10.640  0.2453 -0.3874 -0.0519
  101OSM    O1310161   3.907   2.983  10.621  0.1064  0.1868  0.3106
  101OSM    O1410162   3.976   2.739  10.594  0.1465  0.6831  0.0464
  101OSM    O1110163   3.746   2.810  10.560  0.2351 -0.3159 -0.4578
  101OSM    O1210164   3.851   2.823  10.796  0.3543  0.3508  0.3268
  101OSM    C1S10165   3.614   2.839  10.609  0.4876 -0.6667 -0.7512
  101OSM    H1S10166   3.608   2.828  10.719  0.3623 -3.3867 -1.0039
  101OSM    H1T10167   3.546   2.759  10.572 -2.0737  1.4201 -0.6950
  101OSM     NF10168   3.417   2.998  10.657 -0.1766  0.1458  0.0884
  101OSM    HNF10169   3.334   3.012  10.604 -0.8279 -1.1707  0.7410
  101OSM    C2S10170   3.544   2.980  10.577  0.3631 -0.7340 -0.6867
  101OSM    H2S10171   3.616   3.050  10.625 -1.8070  0.1650  1.3451
  101OSM    C3S10172   3.524   3.006  10.433 -0.2492  0.2352 -0.3238
  101OSM    H3S10173   3.464   2.921  10.394  1.1013 -0.8335 -0.1138
  101OSM     O310174   3.641   2.982  10.359  0.1990  0.3534 -0.0177
  101OSM    HO310175   3.696   2.928  10.416  0.2912  1.4862  0.9777
  101OSM    C4S10176   3.482   3.147  10.394  1.0752 -0.0150 -0.4425
  101OSM    H4S10177   3.543   3.225  10.442  1.0926 -0.3763  0.1300
  101OSM    C5S10178   3.381   3.176  10.311  0.3910 -0.5438  0.8026
  101OSM    H5S10179   3.332   3.088  10.266 -2.4003  0.4713  1.7700
  101OSM    C6S10180   3.351   3.325  10.277 -0.3792 -0.2038  0.5478
  101OSM    H6S10181   3.384   3.388  10.363  1.3860 -2.3887  1.5363
  101OSM    H6T10182   3.242   3.339  10.261 -0.0693  2.3470  0.4798
  101OSM    C7S10183   3.437   3.374  10.161  0.1288 -0.2075 -0.6233
  101OSM    H7S10184   3.543   3.375  10.193 -0.9496  2.9119  3.3048
  101OSM    H7T10185   3.405   3.478  10.139 -1.5382  0.1261  2.9467
  101OSM    C8S10186   3.430   3.290  10.034  0.5569  1.0266  0.5373
  101OSM    H8S10187   3.329   3.251  10.010  0.9279 -0.3994  1.2314
  101OSM    H8T10188   3.494   3.200  10.046  0.2354  1.1369  3.4103
  101OSM    C9S10189   3.493   3.369   9.915  0.3535 -0.4185 -0.5071
  101OSM    H9S10190   3.519   3.296   9.835 -0.8531  0.3768 -1.6750
  101OSM    H9T10191   3.577   3.436   9.941 -0.0465 -1.2912  3.2961
  101OSM   C10S10192   3.392   3.461   9.835  0.1793 -0.1589  0.3906
  101OSM   H10S10193   3.363   3.540   9.907  1.2802 -0.6635  1.3988
  101OSM   H10T10194   3.298   3.406   9.810  0.1107 -0.3528  1.0754
  101OSM   C11S10195   3.453   3.538   9.717 -0.6142  0.7339  0.2191
  101OSM   H11S10196   3.555   3.577   9.737  0.1138 -1.4150  0.8657
  101OSM   H11T10197   3.388   3.628   9.707 -0.2143  1.1802  1.4828
  101OSM   C12S10198   3.452   3.448   9.593 -0.7007  0.3719 -0.4575
  101OSM   H12S10199   3.353   3.404   9.571  0.4390 -1.4440 -2.0916
  101OSM   H12T10200   3.515   3.357   9.603  0.6401  1.1975 -1.0696
  101OSM   C13S10201   3.499   3.530   9.474  0.7864 -0.2548  1.0989
  101OSM   H13S10202   3.605   3.555   9.496  0.0857  1.4417  2.7303
  101OSM   H13T10203   3.447   3.629   9.471  0.6979 -0.3093  0.8729
  101OSM   C14S10204   3.468   3.474   9.334 -0.5540  0.1058  0.6937
  101OSM   H14S10205   3.358   3.468   9.322 -0.5346  1.8912 -0.4916
  101OSM   H14T10206   3.508   3.370   9.326  0.4172  0.5444 -0.2839
  101OSM   C15S10207   3.541   3.544   9.227  0.1326  0.1035  0.0522
  101OSM   H15S10208   3.649   3.521   9.236  0.3235  0.9918 -0.0010
  101OSM   H15T10209   3.531   3.654   9.234  2.8833  0.2937  1.5113
  101OSM   C16S10210   3.487   3.507   9.086  0.2201  0.7864 -0.2541
  101OSM   H16S10211   3.395   3.569   9.072  0.9318  1.9967  0.3660
  101OSM   H16T10212   3.443   3.405   9.088 -1.2392  1.3735 -1.2147
  101OSM   C17S10213   3.582   3.541   8.978 -0.0176 -0.5286  0.2109
  101OSM   H17S10214   3.664   3.471   9.004  0.1419 -0.4780 -0.1540
  101OSM   H17T10215   3.618   3.645   8.996 -0.6523 -0.3033  0.1855
  101OSM   C18S10216   3.530   3.522   8.835 -0.3305  0.3549 -0.5974
  101OSM   H18S10217   3.615   3.503   8.766 -1.4031 -0.9857 -1.5869
  101OSM   H18T10218   3.476   3.609   8.790 -0.2694 -1.4240 -4.3653
  101OSM   H18U10219   3.463   3.434   8.826  0.8888 -0.7003  0.5427
  101OSM    C1F10220   3.408   3.003  10.785  0.1004  0.0270  0.1077
  101OSM     OF10221   3.506   3.037  10.858 -0.5527 -0.0273  0.3816
  101OSM    C2F10222   3.266   2.980  10.843 -0.3368 -0.3242  0.8614
  101OSM    H2F10223   3.224   2.904  10.774  0.6020  0.8459 -1.0532
  101OSM    H2G10224   3.208   3.074  10.831 -1.0031 -0.2583  4.1396
  101OSM    C3F10225   3.270   2.937  10.993 -0.4194  0.0409  0.1712
  101OSM    H3F10226   3.165   2.916  11.022 -0.8635 -1.2236 -2.2430
  101OSM    H3G10227   3.300   3.027  11.051 -1.2836 -0.0262  0.7386
  101OSM    C4F10228   3.347   2.816  11.015 -0.0177 -0.3844 -0.1849
  101OSM    H4F10229   3.452   2.830  10.982  1.6178  0.4650  4.9252
  101OSM    H4G10230   3.305   2.731  10.956  0.2614 -0.8881  0.3332
  101OSM    C5F10231   3.354   2.756  11.159  1.3976  0.2459 -0.2255
  101OSM    H5F10232   3.380   2.840  11.227  0.3792 -0.5717  1.1984
  101OSM    H5G10233   3.421   2.667  11.152 -2.5421 -2.9372  0.2211
  101OSM    C6F10234   3.219   2.695  11.202  0.0559 -0.7341  0.2951
  101OSM    H6F10235   3.166   2.635  11.125  0.4050 -0.2463 -0.3295
  101OSM    H6G10236   3.153   2.778  11.237  1.6145  0.2540  0.9448
  101OSM    C7F10237   3.241   2.606  11.322 -0.4013  0.2928  0.4012
  101OSM    H7F10238   3.308   2.641  11.404  1.4891  0.7261 -1.2712
  101OSM    H7G10239   3.288   2.511  11.289  0.5673 -0.0147  2.5727
  101OSM    C8F10240   3.107   2.569  11.399 -0.5343 -0.3904 -0.5011
  101OSM    H8F10241   3.038   2.526  11.323  1.3043 -1.8022 -1.4289
  101OSM    H8G10242   3.057   2.662  11.431  0.4018  0.7105 -2.1606
  101OSM    C9F10243   3.128   2.470  11.511  0.3972  0.9824 -0.6807
  101OSM    H9F10244   3.209   2.397  11.499 -0.4845 -0.0449 -0.4409
  101OSM   C10F10245   3.050   2.468  11.627 -0.0665 -0.0930 -0.0050
  101OSM   H10F10246   3.062   2.393  11.706 -2.3050  0.3894  0.8406
  101OSM   C11F10247   2.937   2.554  11.656  0.3802 -0.5646  0.2312
  101OSM   H11F10248   2.845   2.522  11.603  0.9210 -0.2966 -0.8862
  101OSM   H11G10249   2.956   2.656  11.616 -1.3763 -0.6845 -0.9671
  101OSM   C12F10250   2.923   2.583  11.808  0.5767  0.6346  0.3142
  101OSM   H12F10251   2.871   2.680  11.820  1.3206  0.9542  0.9765
  101OSM   H12G10252   3.020   2.596  11.859  1.8794  0.7859 -2.1295
  101OSM   C13F10253   2.836   2.481  11.881  0.1433  0.4241 -0.0349
  101OSM   H13F10254   2.858   2.502  11.988 -1.6049 -0.0995  0.4427
  101OSM   H13G10255   2.866   2.377  11.857 -1.5515 -0.7065  2.5037
  101OSM   C14F10256   2.687   2.473  11.849  0.5311 -0.0053 -0.4182
  101OSM   H14F10257   2.674   2.441  11.743  0.7530 -1.6844  0.0388
  101OSM   H14G10258   2.635   2.567  11.877  1.0830  0.1617  0.0648
  101OSM   C15F10259   2.621   2.365  11.933  0.7522 -0.3149  0.2285
  101OSM   H15F10260   2.676   2.268  11.926  1.8273  0.3325 -0.4329
  101OSM   H15G10261   2.521   2.347  11.889  0.2950 -1.0609  1.5324
  101OSM   C16F10262   2.598   2.397  12.085 -0.0120  0.0850 -0.2331
  101OSM   H16F10263   2.605   2.507  12.097 -0.0910 -0.1957  2.8305
  101OSM   H16G10264   2.683   2.356  12.144  0.4395  1.6237  0.2019
  101OSM   C17F10265   2.457   2.369  12.147  0.1866 -0.5597  0.0492
  101OSM   H17F10266   2.418   2.278  12.097  0.7446 -1.4951  1.2893
  101OSM   H17G10267   2.402   2.457  12.106 -1.6570 -0.9170  1.7044
  101OSM   C18F10268   2.453   2.344  12.300  0.3929  0.3166 -0.8214
  101OSM   H18F10269   2.356   2.373  12.345  0.2382 -1.3431 -0.0575
  101OSM   H18G10270   2.531   2.397  12.357  0.9611  1.2355 -2.4055
  101OSM   H18H10271   2.468   2.236  12.323 -0.5941  0.4519  0.4569
  102OSM      N10272   2.711   3.283  10.873  0.9840  0.0735  0.5669
  102OSM    C1510273   2.647   3.252  10.736 -0.4171 -0.6284 -0.9023
  102OSM   H15A10274   2.725   3.211  10.673  0.8730  1.2246 -0.5480
  102OSM   H15B10275   2.622   3.344  10.685 -1.1279  1.6784  3.3486
  102OSM   H15C10276   2.564   3.184  10.737 -0.9978  0.0893 -0.2242
  102OSM    C1410277   2.811   3.395  10.861 -0.4688  0.8073 -0.3381
  102OSM   H14A10278   2.901   3.368  10.808  0.8290  0.9293  1.7513
  102OSM   H14B10279   2.839   3.420  10.962  1.8714 -0.0500 -0.7457
  102OSM   H14C10280   2.770   3.483  10.813 -1.5075  0.8813  0.6669
  102OSM    C1310281   2.604   3.312  10.978 -0.7468  0.1711 -0.5907
  102OSM   H13A10282   2.524   3.241  10.966  0.3279 -1.3726  1.1137
  102OSM   H13B10283   2.568   3.412  10.962  0.8456  0.7743 -0.4343
  102OSM   H13C10284   2.640   3.312  11.080 -2.8989 -1.9936  0.2161
  102OSM    C1210285   2.787   3.160  10.918 -0.4068 -0.1246 -0.7193
  102OSM   H12A10286   2.721   3.074  10.921  0.7720 -0.9768  1.9848
  102OSM   H12B10287   2.829   3.181  11.015  0.2984  0.1554 -1.0828
  102OSM    C1110288   2.911   3.107  10.830  0.4204 -0.5298 -0.4452
  102OSM   H11A10289   2.979   3.047  10.893  1.5249  2.6810  1.5349
  102OSM   H11B10290   2.983   3.185  10.797  0.4367  0.2655  1.3996
  102OSM      P10291   2.889   2.872  10.707 -0.3214 -0.1574  0.0019
  102OSM    O1310292   3.007   2.855  10.618 -0.4101 -0.5833 -0.1684
  102OSM    O1410293   2.892   2.823  10.847 -0.1811  0.0453 -0.0266
  102OSM    O1110294   2.758   2.810  10.645  0.3298  0.4124  0.1737
  102OSM    O1210295   2.852   3.028  10.718 -0.1352 -0.5407  0.3263
  102OSM    C1S10296   2.707   2.849  10.521  0.4768 -0.0927  0.3060
  102OSM    H1S10297   2.685   2.958  10.515 -3.9122 -0.9613 -1.1700
  102OSM    H1T10298   2.606   2.805  10.508  0.3245  0.5313 -0.6983
  102OSM     NF10299   2.716   2.867  10.269 -0.4043  0.2107 -0.4770
  102OSM    HNF10300   2.652   2.797  10.238  0.7775 -1.6677  1.2119
  102OSM    C2S10301   2.782   2.805  10.388  0.0293 -0.4852 -0.6635
  102OSM    H2S10302   2.885   2.846  10.394 -0.2674  0.3521 -1.1996
  102OSM    C3S10303   2.788   2.648  10.391  0.9016 -0.2877 -0.9776
  102OSM    H3S10304   2.684   2.613  10.407  0.6025  1.4434  1.0973
  102OSM     O310305   2.874   2.584  10.484 -0.1530  0.3003  0.0058
  102OSM    HO310306   2.903   2.660  10.534 -0.1999  0.5485 -0.3422
  102OSM    C4S10307   2.821   2.597  10.256  0.0235 -0.1119 -0.2279
  102OSM    H4S10308   2.911   2.640  10.209  0.8359 -0.8442  0.6156
  102OSM    C5S10309   2.766   2.505  10.176 -0.0246 -0.4585 -0.7558
  102OSM    H5S10310   2.667   2.463  10.199 -0.5195  1.4125  0.6585
  102OSM    C6S10311   2.810   2.475  10.037  0.4559  0.6257  0.6252
  102OSM    H6S10312   2.815   2.364  10.030  1.1839  0.6753  0.3021
  102OSM    H6T10313   2.914   2.508  10.018  0.3007  1.0847  0.5568
  102OSM    C7S10314   2.735   2.542   9.920  0.4236  0.2611  0.7315
  102OSM    H7S10315   2.748   2.650   9.938 -1.5051  0.5793  0.3296
  102OSM    H7T10316   2.630   2.505   9.931  1.1722 -3.1019 -2.3884
  102OSM    C8S10317   2.802   2.506   9.783  0.8203 -0.4933 -0.6481
  102OSM    H8S10318   2.805   2.395   9.779 -0.1723 -0.5389 -0.3131
  102OSM    H8T10319   2.904   2.550   9.781 -0.1599  1.8410 -0.8825
  102OSM    C9S10320   2.727   2.572   9.665  0.3980  0.5271 -0.6243
  102OSM    H9S10321   2.774   2.545   9.569  1.6627 -0.5900  0.2956
  102OSM    H9T10322   2.731   2.683   9.673 -0.6452  0.5038  0.4696
  102OSM   C10S10323   2.579   2.535   9.652 -0.0180  0.8719 -0.5572
  102OSM   H10S10324   2.531   2.562   9.748 -0.0611 -0.1883 -0.2706
  102OSM   H10T10325   2.553   2.430   9.627 -0.4465  1.0092 -0.6748
  102OSM   C11S10326   2.511   2.626   9.548 -0.2474 -0.4245 -0.0430
  102OSM   H11S10327   2.539   2.732   9.565 -1.4882 -0.1299  0.2221
  102OSM   H11T10328   2.402   2.608   9.554 -0.3662  0.2324 -0.2481
  102OSM   C12S10329   2.573   2.584   9.416 -0.4109 -0.2175 -0.4505
  102OSM   H12S10330   2.583   2.474   9.409  1.7004 -0.0727 -0.0621
  102OSM   H12T10331   2.678   2.618   9.424  0.0670 -2.0598  1.6051
  102OSM   C13S10332   2.500   2.653   9.295  0.4658  0.1939 -0.2432
  102OSM   H13S10333   2.468   2.758   9.312  0.8543  0.0791  1.3290
  102OSM   H13T10334   2.411   2.588   9.281 -0.6537  1.6711 -0.0743
  102OSM   C14S10335   2.579   2.642   9.167  0.1094  0.2422 -0.1269
  102OSM   H14S10336   2.617   2.537   9.166  0.5438  0.4040 -0.4204
  102OSM   H14T10337   2.670   2.704   9.178  1.2530 -1.0126 -2.1184
  102OSM   C15S10338   2.507   2.682   9.039  0.1925 -0.6536  0.5424
  102OSM   H15S10339   2.426   2.607   9.029  0.7832 -1.1524 -0.6949
  102OSM   H15T10340   2.577   2.678   8.952  1.5605  0.5908  1.5534
  102OSM   C16S10341   2.451   2.824   9.031 -0.7562  0.0350 -0.5595
  102OSM   H16S10342   2.538   2.893   9.042  0.3810 -1.4847  0.1521
  102OSM   H16T10343   2.374   2.828   9.111 -0.7430  1.9962 -0.6219
  102OSM   C17S10344   2.387   2.849   8.896  0.1173 -0.0073  0.3579
  102OSM   H17S10345   2.320   2.764   8.870 -0.8358  0.3461  1.6378
  102OSM   H17T10346   2.471   2.846   8.823  0.9856 -0.2512  1.3588
  102OSM   C18S10347   2.307   2.977   8.880 -0.3961 -0.6749  0.3795
  102OSM   H18S10348   2.371   3.063   8.910 -0.4437 -0.0827 -1.1580
  102OSM   H18T10349   2.224   2.979   8.955 -0.0321  0.2952  0.7621
  102OSM   H18U10350   2.268   2.991   8.777  0.3414 -0.5622  0.1153
  102OSM    C1F10351   2.718   2.993  10.221 -0.3073  0.0611 -0.0614
  102OSM     OF10352   2.788   3.079  10.278 -0.5513  0.2366  0.4917
  102OSM    C2F10353   2.644   3.019  10.093 -1.1062  0.2748  0.6196
  102OSM    H2F10354   2.536   2.996  10.093 -1.4902  1.8350 -1.6701
  102OSM    H2G10355   2.687   2.947  10.021 -1.9599 -0.9296  1.3105
  102OSM    C3F10356   2.671   3.156  10.026 -0.8077  0.1266 -0.3767
  102OSM    H3F10357   2.774   3.186  10.055 -1.4528  1.0639  0.9920
  102OSM    H3G10358   2.594   3.221  10.073 -2.6394  0.5506 -3.7962
  102OSM    C4F10359   2.664   3.161   9.873  0.0994  0.7190  0.4349
  102OSM    H4F10360   2.624   3.256   9.832 -0.0340  0.8843  0.9390
  102OSM    H4G10361   2.588   3.085   9.844  1.9639 -1.3464  0.8327
  102OSM    C5F10362   2.785   3.118   9.792 -0.4934  0.0924  0.3123
  102OSM    H5F10363   2.798   3.008   9.793  1.0810  0.2791  1.1083
  102OSM    H5G10364   2.869   3.165   9.847 -0.7964  0.0145  0.8467
  102OSM    C6F10365   2.786   3.153   9.641  0.2055  0.7500  0.4403
  102OSM    H6F10366   2.883   3.123   9.597 -1.0223 -2.7415 -0.1306
  102OSM    H6G10367   2.787   3.263   9.624 -0.1363  0.7336  0.3092
  102OSM    C7F10368   2.660   3.097   9.571 -0.2114  0.3229 -0.1018
  102OSM    H7F10369   2.582   3.155   9.625  0.8850 -1.2992  3.3281
  102OSM    H7G10370   2.658   2.988   9.590 -1.5628 -0.2477 -3.1672
  102OSM    C8F10371   2.652   3.116   9.420 -0.2975  0.7073  0.4590
  102OSM    H8F10372   2.545   3.112   9.391  0.0429  2.8087 -1.2862
  102OSM    H8G10373   2.702   3.031   9.369 -1.2561 -0.2617  1.1255
  102OSM    C9F10374   2.703   3.246   9.360 -0.6949 -0.3132  0.5217
  102OSM    H9F10375   2.717   3.323   9.437  1.6182  2.5621 -2.6133
  102OSM   C10F10376   2.723   3.266   9.229  0.0206 -0.8658 -0.1386
  102OSM   H10F10377   2.737   3.371   9.200 -1.6003 -0.7653 -0.5848
  102OSM   C11F10378   2.711   3.160   9.127  0.4851  0.2705 -0.5366
  102OSM   H11F10379   2.703   3.052   9.153  2.0795 -1.0062 -4.9064
  102OSM   H11G10380   2.798   3.168   9.059  0.5834 -2.9249 -0.8633
  102OSM   C12F10381   2.586   3.179   9.030  0.0208  0.3833  0.8572
  102OSM   H12F10382   2.491   3.169   9.087 -0.1804  0.1471  0.4873
  102OSM   H12G10383   2.596   3.093   8.960 -2.0774  1.7383 -1.1688
  102OSM   C13F10384   2.581   3.307   8.956  0.1582 -0.1948  0.4158
  102OSM   H13F10385   2.599   3.389   9.029 -1.1062 -0.1689  0.7155
  102OSM   H13G10386   2.478   3.307   8.913  0.4950 -1.1944 -0.4060
  102OSM   C14F10387   2.676   3.324   8.841  0.5181 -0.5792  0.3065
  102OSM   H14F10388   2.663   3.227   8.787  0.0472  0.1178 -0.8357
  102OSM   H14G10389   2.784   3.341   8.862  0.9084 -1.6358 -0.7763
  102OSM   C15F10390   2.636   3.441   8.749  0.3790 -0.0407 -0.1776
  102OSM   H15F10391   2.642   3.533   8.811  0.4573  0.5279 -1.0154
  102OSM   H15G10392   2.528   3.431   8.723  0.2135 -0.8116  0.7700
  102OSM   C16F10393   2.721   3.454   8.619  0.4231 -0.2500 -0.2605
  102OSM   H16F10394   2.827   3.452   8.652  1.0824 -3.2937 -2.3510
  102OSM   H16G10395   2.700   3.553   8.573  2.6513 -0.1655 -1.1816
  102OSM   C17F10396   2.666   3.352   8.512  0.5613 -0.7484  0.8525
  102OSM   H17F10397   2.633   3.264   8.571 -3.5751 -0.1303 -0.3951
  102OSM   H17G10398   2.742   3.325   8.435 -1.6865 -1.4977 -1.1560
  102OSM   C18F10399   2.541   3.407   8.441 -0.2650 -0.6254  0.6384
  102OSM   H18F10400   2.577   3.473   8.360  3.0962  0.7576  3.1417
  102OSM   H18G10401   2.479   3.463   8.514  1.0545  1.5695  0.1006
  102OSM   H18H10402   2.485   3.322   8.396  0.7202 -0.0180 -1.7888
  103OSM      N10403   4.356   4.904  10.849 -0.5515  0.6852  0.4893
  103OSM    C1510404   4.416   5.028  10.908 -0.6946  0.2555 -0.7482
  103OSM   H15A10405   4.523   5.033  10.924 -0.7812  0.3154 -0.1867
  103OSM   H15B10406   4.377   5.057  11.004 -3.5130  2.9896 -2.6408
  103OSM   H15C10407   4.386   5.104  10.837  2.0121  2.2679  0.1814
  103OSM    C1410408   4.440   4.858  10.730  0.0615  0.5388 -0.0631
  103OSM   H14A10409   4.544   4.861  10.759 -0.2290  1.3405  0.8883
  103OSM   H14B10410   4.429   4.930  10.650 -3.1016 -0.0761 -0.2519
  103OSM   H14C10411   4.409   4.763  10.689  0.2253  0.0780  0.8752
  103OSM    C1310412   4.361   4.793  10.950 -0.3206 -0.1278 -0.0142
  103OSM   H13A10413   4.309   4.707  10.912  0.8782 -1.0459  0.4059
  103OSM   H13B10414   4.314   4.824  11.042  1.2170  0.3536  0.6350
  103OSM   H13C10415   4.463   4.760  10.966 -0.9025 -2.2399 -0.5560
  103OSM    C1210416   4.217   4.917  10.799 -0.1557  0.0065 -0.5154
  103OSM   H12A10417   4.201   4.826  10.743 -0.1063 -0.1152 -0.3319
  103OSM   H12B10418   4.209   5.000  10.731  3.3407  0.9730  0.1562
  103OSM    C1110419   4.099   4.931  10.904  0.2234  1.1791  0.8742
  103OSM   H11A10420   4.106   4.844  10.973  2.0321  1.2608  0.8069
  103OSM   H11B10421   4.001   4.934  10.851  1.5651 -0.0544 -1.8154
  103OSM      P10422   4.078   5.186  10.948 -0.3375  0.2761  0.5423
  103OSM    O1310423   3.930   5.191  10.968  0.2053  0.3544  0.0884
  103OSM    O1410424   4.160   5.274  11.037  0.6978  0.5918  0.4439
  103OSM    O1110425   4.125   5.207  10.793 -0.0946  0.3041 -0.0785
  103OSM    O1210426   4.121   5.039  10.984  0.1274 -0.7283  0.3041
  103OSM    C1S10427   4.021   5.202  10.699  0.3144  0.0813  0.0268
  103OSM    H1S10428   3.958   5.292  10.719 -0.3280 -0.3961  0.1560
  103OSM    H1T10429   3.953   5.115  10.709  0.8047 -0.2409  0.5618
  103OSM     NF10430   3.971   5.192  10.456 -0.7309  0.3897 -0.2525
  103OSM    HNF10431   3.982   5.110  10.401 -0.1816 -0.4027  0.9968
  103OSM    C2S10432   4.072   5.230  10.556 -0.2133 -0.2489  0.6821
  103OSM    H2S10433   4.083   5.340  10.551 -2.1309 -0.1379 -2.5167
  103OSM    C3S10434   4.212   5.165  10.520 -1.2078 -0.5825  0.0128
  103OSM    H3S10435   4.197   5.055  10.522  1.4728 -0.9824  0.4898
  103OSM     O310436   4.319   5.192  10.617 -0.3011  0.3340  0.3282
  103OSM    HO310437   4.263   5.232  10.684 -0.9448  1.8387 -1.0444
  103OSM    C4S10438   4.257   5.213  10.379 -0.0103  0.4919  0.6287
  103OSM    H4S10439   4.282   5.320  10.376  0.1934  0.4545  0.9934
  103OSM    C5S10440   4.267   5.143  10.270 -0.0327  0.4025 -0.1862
  103OSM    H5S10441   4.243   5.037  10.282 -2.6949  0.9803 -0.2047
  103OSM    C6S10442   4.303   5.192  10.133 -0.0355  0.5834  0.4011
  103OSM    H6S10443   4.402   5.155  10.099  0.2533  1.6639  0.0203
  103OSM    H6T10444   4.330   5.300  10.130 -1.8860  1.0755  0.4775
  103OSM    C7S10445   4.204   5.165  10.026 -0.7244  1.2722  0.5170
  103OSM    H7S10446   4.123   5.238  10.041 -1.4819  0.8264 -1.2344
  103OSM    H7T10447   4.161   5.064  10.041  0.7637  0.1683 -2.2196
  103OSM    C8S10448   4.239   5.198   9.880 -0.2438  0.0929 -0.2312
  103OSM    H8S10449   4.289   5.105   9.845 -0.8606  0.5884 -2.5317
  103OSM    H8T10450   4.323   5.271   9.883  0.8475 -1.0233 -2.2750
  103OSM    C9S10451   4.133   5.246   9.782  0.2966  0.7155 -0.0147
  103OSM    H9S10452   4.086   5.336   9.826 -0.1131 -0.5158  2.1664
  103OSM    H9T10453   4.045   5.179   9.773 -0.0847  1.3558 -1.0933
  103OSM   C10S10454   4.185   5.257   9.643  0.4755  0.0535 -0.2042
  103OSM   H10S10455   4.224   5.163   9.597  1.4688  0.4911 -0.2852
  103OSM   H10T10456   4.271   5.328   9.636 -0.1204  0.7644 -0.3216
  103OSM   C11S10457   4.072   5.292   9.551 -0.2837  0.1499 -0.1617
  103OSM   H11S10458   4.008   5.362   9.609 -0.6000 -1.0788  0.9980
  103OSM   H11T10459   4.020   5.203   9.511  1.7064 -0.2826 -1.9078
  103OSM   C12S10460   4.114   5.362   9.421 -0.3373  0.5618  0.2053
  103OSM   H12S10461   4.180   5.296   9.360 -0.9609 -1.1386  1.3563
  103OSM   H12T10462   4.164   5.460   9.439 -0.1941  0.7911 -1.3208
  103OSM   C13S10463   3.991   5.387   9.330 -0.1830  0.1022 -0.1459
  103OSM   H13S10464   3.910   5.448   9.376  0.3650  1.4381 -0.9121
  103OSM   H13T10465   3.945   5.291   9.301  0.3294 -0.1849 -0.0189
  103OSM   C14S10466   4.033   5.466   9.210 -0.4410  0.6025  0.4397
  103OSM   H14S10467   4.109   5.416   9.145 -0.2523  1.8427 -0.3080
  103OSM   H14T10468   4.080   5.563   9.238  1.3253 -0.0116 -0.2950
  103OSM   C15S10469   3.912   5.487   9.122 -0.5438  0.2443 -0.5612
  103OSM   H15S10470   3.839   5.559   9.166  1.4758 -0.3495  4.0491
  103OSM   H15T10471   3.851   5.397   9.103  0.6393 -0.3850 -1.4299
  103OSM   C16S10472   3.943   5.541   8.983  0.4829 -0.0519 -0.5586
  103OSM   H16S10473   3.847   5.547   8.928 -0.8918 -1.1750  1.6277
  103OSM   H16T10474   4.022   5.486   8.928  0.6005 -1.3855  0.9026
  103OSM   C17S10475   4.006   5.684   8.997  0.6758  0.5587 -0.6358
  103OSM   H17S10476   4.089   5.686   9.071 -0.9231  0.4713  1.1894
  103OSM   H17T10477   3.921   5.741   9.040  1.7333 -0.4445  2.9001
  103OSM   C18S10478   4.047   5.746   8.862  0.0600 -0.2222 -0.1208
  103OSM   H18S10479   4.137   5.696   8.820  0.9269  1.1443  0.0810
  103OSM   H18T10480   4.078   5.851   8.879 -3.0141  0.3423  2.4822
  103OSM   H18U10481   3.969   5.744   8.784 -0.0526 -1.0754  0.0057
  103OSM    C1F10482   3.859   5.261  10.448 -0.3606  0.0087 -0.0242
  103OSM     OF10483   3.830   5.359  10.517  0.1199 -0.0604 -0.6956
  103OSM    C2F10484   3.767   5.218  10.335  0.4856 -0.2516 -0.3021
  103OSM    H2F10485   3.666   5.259  10.353  1.6589  3.1123 -0.9456
  103OSM    H2G10486   3.753   5.108  10.340 -0.7045 -0.0951 -0.0448
  103OSM    C3F10487   3.810   5.251  10.193 -0.0758 -0.0632  0.8989
  103OSM    H3F10488   3.899   5.187  10.173  1.0382  1.2254  1.6791
  103OSM    H3G10489   3.846   5.355  10.179  1.2075 -0.6434 -0.2730
  103OSM    C4F10490   3.711   5.211  10.088 -0.3054 -0.6814  0.5062
  103OSM    H4F10491   3.610   5.239  10.122 -0.3707  1.4496 -1.3405
  103OSM    H4G10492   3.698   5.102  10.073 -1.1717 -0.2774 -1.9392
  103OSM    C5F10493   3.741   5.275   9.957  0.5897 -0.8984 -0.1309
  103OSM    H5F10494   3.842   5.316   9.937 -0.7206  1.9111 -1.3710
  103OSM    H5G10495   3.677   5.366   9.970  1.9751  0.0051  0.5344
  103OSM    C6F10496   3.683   5.204   9.834  0.0780 -1.0139 -0.1349
  103OSM    H6F10497   3.575   5.194   9.859 -0.2823  4.8369  1.3712
  103OSM    H6G10498   3.730   5.105   9.816 -1.3995 -1.8876  0.6809
  103OSM    C7F10499   3.696   5.285   9.702  0.6456 -0.9204 -0.6970
  103OSM    H7F10500   3.805   5.292   9.681  0.5740  1.7973 -0.3702
  103OSM    H7G10501   3.652   5.385   9.720 -0.4027 -1.2830 -1.1602
  103OSM    C8F10502   3.626   5.220   9.582  0.1838  0.4992  0.0477
  103OSM    H8F10503   3.534   5.176   9.625 -0.0031  0.6588 -0.1894
  103OSM    H8G10504   3.681   5.126   9.561 -0.8936 -0.6656  2.3695
  103OSM    C9F10505   3.617   5.299   9.458  0.5864 -0.4264 -0.0291
  103OSM    H9F10506   3.711   5.345   9.424  1.2279 -0.0162  2.2462
  103OSM   C10F10507   3.511   5.317   9.385  0.8105  0.3255 -0.4618
  103OSM   H10F10508   3.496   5.398   9.312  0.1970  2.0014  1.4926
  103OSM   C11F10509   3.379   5.250   9.425 -0.3800  0.6064 -0.8143
  103OSM   H11F10510   3.389   5.141   9.443  1.1621  0.8094 -0.3266
  103OSM   H11G10511   3.323   5.246   9.330 -0.7293 -1.4553 -0.5511
  103OSM   C12F10512   3.299   5.326   9.537  0.4548  0.2747  0.6591
  103OSM   H12F10513   3.275   5.428   9.501  2.9970  0.6932  0.0851
  103OSM   H12G10514   3.361   5.321   9.629 -1.1976  1.9555  1.9013
  103OSM   C13F10515   3.163   5.260   9.565  0.3429 -0.3215  0.1107
  103OSM   H13F10516   3.128   5.230   9.463  1.3244 -1.2259  0.0355
  103OSM   H13G10517   3.167   5.173   9.634 -1.3157  0.6279  1.4624
  103OSM   C14F10518   3.055   5.348   9.639 -0.7346 -0.1900  0.1429
  103OSM   H14F10519   2.972   5.286   9.681  0.7936 -1.9298  0.6892
  103OSM   H14G10520   3.012   5.415   9.562  1.2899  0.3086 -0.5805
  103OSM   C15F10521   3.105   5.431   9.759  0.4419 -0.2909 -0.2180
  103OSM   H15F10522   3.028   5.495   9.808  0.4759 -0.8555  0.5776
  103OSM   H15G10523   3.184   5.499   9.721 -0.0125 -0.0249 -0.7037
  103OSM   C16F10524   3.169   5.339   9.864  0.4555  0.6151 -0.3690
  103OSM   H16F10525   3.248   5.283   9.811 -1.1450 -1.6238 -0.4575
  103OSM   H16G10526   3.107   5.258   9.909  1.4722 -1.0587 -1.9270
  103OSM   C17F10527   3.230   5.424   9.978 -0.2903  0.4988 -0.2357
  103OSM   H17F10528   3.143   5.466  10.031 -0.2990  0.6930 -0.4050
  103OSM   H17G10529   3.294   5.509   9.947  0.0598  0.2133 -0.3020
  103OSM   C18F10530   3.305   5.346  10.092 -0.3890  0.4804  0.7012
  103OSM   H18F10531   3.404   5.311  10.057 -0.0551 -0.1808  2.2276
  103OSM   H18G10532   3.251   5.253  10.122 -2.3991  0.3781 -2.9043
  103OSM   H18H10533   3.326   5.407  10.182  3.0062 -1.5423  1.3374
  104OSM      N10534   1.565   5.100  10.743  0.9280 -0.1488  0.0498
  104OSM    C1510535   1.486   5.154  10.630  0.0545 -0.5496  0.3092
  104OSM   H15A10536   1.546   5.197  10.550 -0.6777  0.4280  0.2724
  104OSM   H15B10537   1.423   5.235  10.663 -0.9051 -0.7084 -1.0889
  104OSM   H15C10538   1.422   5.077  10.589  0.9321 -1.8745  1.4120
  104OSM    C1410539   1.638   5.207  10.805 -0.8300  0.4309  0.0490
  104OSM   H14A10540   1.564   5.268  10.855 -0.3407 -1.6546  3.4687
  104OSM   H14B10541   1.685   5.262  10.725  1.0280  0.4404  1.1242
  104OSM   H14C10542   1.706   5.178  10.883 -0.8845 -1.5834 -0.6393
  104OSM    C1310543   1.475   5.039  10.849  0.3306  0.2910  0.3959
  104OSM   H13A10544   1.419   4.961  10.801 -0.5704  0.1475  1.6364
  104OSM   H13B10545   1.405   5.115  10.883  0.3565  0.4140  0.1709
  104OSM   H13C10546   1.527   4.998  10.934  0.5075 -0.0809  0.1066
  104OSM    C1210547   1.661   5.000  10.687 -0.4806  0.2381 -0.8049
  104OSM   H12A10548   1.730   4.958  10.759 -2.9505 -2.0388  0.3085
  104OSM   H12B10549   1.724   5.053  10.616  0.8233 -1.2975 -0.8323
  104OSM    C1110550   1.596   4.887  10.601  0.7640 -0.2601  0.5894
  104OSM   H11A10551   1.679   4.816  10.581 -1.5692 -3.5345  1.9633
  104OSM   H11B10552   1.561   4.923  10.502  0.9009 -1.1749  0.2031
  104OSM      P10553   1.446   4.670  10.611  0.0752 -0.4252  0.1349
  104OSM    O1310554   1.563   4.578  10.595  0.4992 -0.1936 -0.9762
  104OSM    O1410555   1.327   4.624  10.683  0.4698 -0.1518  0.6699
  104OSM    O1110556   1.397   4.705  10.465  0.0516  0.2415  0.3279
  104OSM    O1210557   1.496   4.811  10.672  0.3154  0.0049  0.1360
  104OSM    C1S10558   1.284   4.793  10.445  0.3711 -0.0844  0.7021
  104OSM    H1S10559   1.305   4.898  10.473 -0.7836 -0.1230  1.7207
  104OSM    H1T10560   1.195   4.750  10.495  1.2650 -1.4159  1.1702
  104OSM     NF10561   1.155   4.935  10.285  0.2978  0.0962 -0.4015
  104OSM    HNF10562   1.063   4.908  10.260  0.2078 -0.2535  0.2876
  104OSM    C2S10563   1.256   4.831  10.292 -0.2165 -0.3234  0.0475
  104OSM    H2S10564   1.346   4.870  10.241  0.1362  0.1544  1.0184
  104OSM    C3S10565   1.211   4.713  10.216 -0.2241 -0.1123  1.2140
  104OSM    H3S10566   1.103   4.695  10.238 -0.5353  2.7155  2.2875
  104OSM     O310567   1.262   4.588  10.260  0.3312 -0.3044 -0.5996
  104OSM    HO310568   1.310   4.610  10.339 -1.0340 -2.8702  1.0308
  104OSM    C4S10569   1.244   4.744  10.073  0.5454 -0.9839  0.4612
  104OSM    H4S10570   1.172   4.811  10.023  1.6639  1.3231  1.8206
  104OSM    C5S10571   1.348   4.686  10.005  0.5351  0.3543  0.7358
  104OSM    H5S10572   1.398   4.607  10.062  0.1562 -1.6501 -1.6258
  104OSM    C6S10573   1.377   4.696   9.854 -0.3360  0.3294 -0.2358
  104OSM    H6S10574   1.386   4.588   9.834 -0.6580  0.4867 -1.2215
  104OSM    H6T10575   1.467   4.761   9.846 -0.0545 -0.3288 -2.8411
  104OSM    C7S10576   1.269   4.779   9.781 -0.1484  0.1126  0.1001
  104OSM    H7S10577   1.270   4.882   9.821  3.3597  0.1289  0.1155
  104OSM    H7T10578   1.174   4.723   9.793 -0.9986  1.0262 -2.1588
  104OSM    C8S10579   1.295   4.786   9.637 -1.0098  0.1060 -0.5462
  104OSM    H8S10580   1.398   4.824   9.624 -1.2744  0.7744 -0.7530
  104OSM    H8T10581   1.241   4.866   9.580 -0.9177  0.3609 -0.2776
  104OSM    C9S10582   1.285   4.658   9.555 -0.0303 -0.8792  0.1483
  104OSM    H9S10583   1.187   4.611   9.577  0.4027 -0.5139  3.0669
  104OSM    H9T10584   1.370   4.593   9.585  1.5970  2.0237  2.0797
  104OSM   C10S10585   1.290   4.689   9.408 -0.3031  0.3074 -0.2767
  104OSM   H10S10586   1.396   4.717   9.386  0.2148 -0.4330  1.2167
  104OSM   H10T10587   1.214   4.768   9.388  0.2864  1.4661  1.8813
  104OSM   C11S10588   1.257   4.554   9.332  0.0315  0.3297 -0.2808
  104OSM   H11S10589   1.170   4.507   9.384  1.3167 -3.7837 -1.6865
  104OSM   H11T10590   1.345   4.487   9.325  2.2215  3.1617 -0.8474
  104OSM   C12S10591   1.215   4.588   9.185 -0.4219 -0.4847  0.0290
  104OSM   H12S10592   1.304   4.630   9.133 -0.6879 -0.4627 -0.4018
  104OSM   H12T10593   1.140   4.670   9.194  0.7717  0.6267 -0.0516
  104OSM   C13S10594   1.147   4.469   9.109  0.0941 -0.8147 -0.5083
  104OSM   H13S10595   1.072   4.419   9.174  2.7416 -2.0031  1.7054
  104OSM   H13T10596   1.220   4.389   9.086  0.6252 -1.0646  1.9654
  104OSM   C14S10597   1.077   4.520   8.977 -0.0985  0.8707  0.1611
  104OSM   H14S10598   1.158   4.555   8.908  0.0768  0.9876  0.4263
  104OSM   H14T10599   0.995   4.590   9.004 -1.2347 -0.4890  0.2669
  104OSM   C15S10600   1.015   4.405   8.904  0.6569  0.6666  1.1976
  104OSM   H15S10601   0.929   4.362   8.959 -0.7810 -0.4934 -1.8302
  104OSM   H15T10602   1.089   4.322   8.901  0.7096  0.7466 -1.1386
  104OSM   C16S10603   0.970   4.444   8.758  0.3377  0.0036 -0.2687
  104OSM   H16S10604   1.058   4.465   8.693  0.0212  1.7009 -0.1710
  104OSM   H16T10605   0.906   4.534   8.767  0.5093  0.0514  0.5373
  104OSM   C17S10606   0.874   4.352   8.687  0.3249  0.3287 -0.0857
  104OSM   H17S10607   0.782   4.335   8.747  0.3231 -2.7132 -0.8343
  104OSM   H17T10608   0.919   4.251   8.673 -1.3189 -0.4647  0.2482
  104OSM   C18S10609   0.845   4.398   8.543 -0.2918 -0.0484  0.6112
  104OSM   H18S10610   0.867   4.317   8.471  1.7358  0.2421  0.8622
  104OSM   H18T10611   0.919   4.474   8.509 -0.9543  0.6158  0.6458
  104OSM   H18U10612   0.742   4.435   8.529  0.9716  3.4927  0.2210
  104OSM    C1F10613   1.191   5.069  10.293  0.5215 -0.4188  0.1578
  104OSM     OF10614   1.310   5.098  10.323 -0.2345 -0.3869  0.0794
  104OSM    C2F10615   1.092   5.184  10.279  0.5193  0.4762  0.2489
  104OSM    H2F10616   1.146   5.278  10.303  0.2644  1.0970 -1.5341
  104OSM    H2G10617   1.022   5.166  10.364 -1.2663  0.5368 -1.1724
  104OSM    C3F10618   1.026   5.164  10.139  0.0369  0.1647 -0.4634
  104OSM    H3F10619   0.941   5.231  10.115  0.6736  1.2862  0.3667
  104OSM    H3G10620   0.985   5.061  10.139  1.7654 -0.5552  0.9430
  104OSM    C4F10621   1.124   5.187  10.021  0.5073  0.0921 -0.7353
  104OSM    H4F10622   1.202   5.109  10.031 -1.1405 -1.8371 -2.4335
  104OSM    H4G10623   1.164   5.290  10.035  2.8255 -0.8506 -0.2606
  104OSM    C5F10624   1.056   5.164   9.891 -0.7381  0.3927  0.4080
  104OSM    H5F10625   0.960   5.221   9.892 -1.7077 -1.1857 -0.6335
  104OSM    H5G10626   1.040   5.058   9.862  1.0210  0.6427 -1.5850
  104OSM    C6F10627   1.131   5.224   9.772 -0.0455  0.2653  0.8672
  104OSM    H6F10628   1.236   5.189   9.772 -0.5464 -1.2715 -0.3497
  104OSM    H6G10629   1.139   5.334   9.785  1.4221 -0.0587  2.9154
  104OSM    C7F10630   1.056   5.190   9.643 -0.4900 -0.2446  0.1551
  104OSM    H7F10631   0.958   5.242   9.642 -0.4628 -0.1486  1.5015
  104OSM    H7G10632   1.034   5.081   9.634 -0.7685 -0.1406 -0.4007
  104OSM    C8F10633   1.129   5.248   9.525  0.2363  0.6382 -1.2327
  104OSM    H8F10634   1.223   5.196   9.499  1.1181  1.3991  0.3453
  104OSM    H8G10635   1.144   5.358   9.538  1.3985  0.4394 -0.8255
  104OSM    C9F10636   1.038   5.246   9.405  0.3008  0.3203 -0.9639
  104OSM    H9F10637   0.940   5.294   9.419  0.7354  0.5629  1.3998
  104OSM   C10F10638   1.059   5.187   9.288 -0.2049  0.8181 -0.0991
  104OSM   H10F10639   0.982   5.199   9.211  0.2627 -0.4015 -0.7696
  104OSM   C11F10640   1.181   5.107   9.240 -0.2898  0.1978 -0.4327
  104OSM   H11F10641   1.242   5.074   9.327 -0.0189 -2.8023 -1.7259
  104OSM   H11G10642   1.248   5.170   9.177  0.4013  1.2713  1.3243
  104OSM   C12F10643   1.161   4.970   9.171  0.2422  0.0755 -0.4177
  104OSM   H12F10644   1.077   4.922   9.225 -0.6180  1.6026 -0.3549
  104OSM   H12G10645   1.257   4.915   9.182  0.0085  0.1265  2.3027
  104OSM   C13F10646   1.142   4.985   9.019 -0.0630  0.5514  0.0118
  104OSM   H13F10647   1.236   5.025   8.974  1.4528  0.7185  3.2319
  104OSM   H13G10648   1.063   5.062   9.002  0.9740  1.4114 -1.0238
  104OSM   C14F10649   1.109   4.860   8.943 -0.5027  0.7182 -0.2892
  104OSM   H14F10650   1.016   4.820   8.987 -1.0461  2.0417 -0.2008
  104OSM   H14G10651   1.196   4.791   8.947  0.5887  1.9739 -1.6865
  104OSM   C15F10652   1.090   4.879   8.790  0.4327 -0.0066  0.3931
  104OSM   H15F10653   1.012   4.957   8.778  0.2991 -0.3784 -1.2727
  104OSM   H15G10654   1.056   4.783   8.746 -1.5738  0.5047  0.7969
  104OSM   C16F10655   1.222   4.925   8.722 -0.0335  0.1936 -0.2722
  104OSM   H16F10656   1.294   4.841   8.723  0.7793  0.8843 -0.5744
  104OSM   H16G10657   1.260   5.010   8.782  2.0752 -1.9243  1.4770
  104OSM   C17F10658   1.206   4.964   8.568 -0.1017 -0.6691  0.2779
  104OSM   H17F10659   1.114   5.025   8.562 -0.7288 -1.6751 -0.4265
  104OSM   H17G10660   1.186   4.871   8.510 -2.2260 -0.0205 -0.0440
  104OSM   C18F10661   1.316   5.048   8.520 -0.1238 -0.0348 -0.0995
  104OSM   H18F10662   1.274   5.108   8.436 -2.0992 -2.6490 -1.0582
  104OSM   H18G10663   1.411   4.996   8.495  0.3010  0.6164  0.1724
  104OSM   H18H10664   1.339   5.125   8.596  0.3271 -1.5528  1.3378
  105OSM      N10665   0.708   4.375  10.652 -0.2518  0.5775  0.3563
  105OSM    C1510666   0.569   4.322  10.690 -0.2504  0.3898  0.1835
  105OSM   H15A10667   0.589   4.257  10.774 -0.7169  0.1221  0.0918
  105OSM   H15B10668   0.522   4.264  10.612  0.4262 -0.1959  0.2060
  105OSM   H15C10669   0.498   4.401  10.713 -1.0166  0.3561 -1.9583
  105OSM    C1410670   0.691   4.472  10.540 -0.8274 -0.0130 -0.4075
  105OSM   H14A10671   0.637   4.557  10.579 -0.8507 -1.2060  2.2775
  105OSM   H14B10672   0.624   4.433  10.465 -1.5340 -2.3876  1.3861
  105OSM   H14C10673   0.785   4.500  10.496 -0.9150  0.4822 -0.2853
  105OSM    C1310674   0.777   4.440  10.769  0.2783 -0.2362 -0.2641
  105OSM   H13A10675   0.784   4.373  10.853 -1.6252 -0.9300 -0.6429
  105OSM   H13B10676   0.712   4.519  10.802 -1.0126 -0.1867 -2.8162
  105OSM   H13C10677   0.873   4.480  10.738 -0.1416 -0.4024 -1.8418
  105OSM    C1210678   0.795   4.263  10.599  0.2525  0.0251 -0.1511
  105OSM   H12A10679   0.884   4.298  10.550  1.6144 -0.6128  1.8257
  105OSM   H12B10680   0.740   4.219  10.517 -1.0646 -1.4632  1.4932
  105OSM    C1110681   0.830   4.147  10.691  0.0598 -0.1763  0.1073
  105OSM   H11A10682   0.878   4.071  10.625  0.9656  0.4218  0.0655
  105OSM   H11B10683   0.741   4.097  10.736  0.4329 -0.3630  0.6353
  105OSM      P10684   1.077   4.215  10.766 -0.2214 -0.0523 -0.1150
  105OSM    O1310685   1.103   4.360  10.782  0.1440  0.2975 -0.4666
  105OSM    O1410686   1.152   4.129  10.856  0.3949  0.5371 -0.0700
  105OSM    O1110687   1.108   4.174  10.616 -0.1568 -0.0466  0.0138
  105OSM    O1210688   0.924   4.190  10.793  0.1211  0.7019 -0.0695
  105OSM    C1S10689   1.186   4.266  10.545 -0.3287  0.0602 -0.2464
  105OSM    H1S10690   1.287   4.274  10.592 -0.3193 -1.8082  0.0879
  105OSM    H1T10691   1.138   4.366  10.551 -0.4740  0.1153 -1.9758
  105OSM     NF10692   1.313   4.315  10.329  0.6067 -0.5464 -0.0293
  105OSM    HNF10693   1.287   4.401  10.286  0.7781 -0.4770  0.0061
  105OSM    C2S10694   1.213   4.230  10.392 -0.2366 -0.4770 -0.8304
  105OSM    H2S10695   1.247   4.124  10.396  0.7933 -0.1000  2.0707
  105OSM    C3S10696   1.072   4.249  10.321  0.0122  0.1384 -0.4777
  105OSM    H3S10697   1.030   4.350  10.338 -0.1239  0.0232 -0.1398
  105OSM     O310698   0.975   4.152  10.363 -0.4075 -0.2681 -0.0370
  105OSM    HO310699   1.030   4.115  10.433  0.4857  1.0811 -0.0152
  105OSM    C4S10700   1.088   4.229  10.180 -0.0383  0.0744 -0.4326
  105OSM    H4S10701   1.105   4.124  10.150  3.8124  0.6029 -0.3562
  105OSM    C5S10702   1.097   4.325  10.085 -0.2540  0.4867 -0.2985
  105OSM    H5S10703   1.104   4.431  10.112 -0.7613  0.4276  0.0712
  105OSM    C6S10704   1.128   4.286   9.946 -0.7421 -0.3378 -0.4027
  105OSM    H6S10705   1.234   4.313   9.926  0.3489 -2.0830  2.7584
  105OSM    H6T10706   1.061   4.338   9.874 -1.1805  1.4313  1.2304
  105OSM    C7S10707   1.108   4.135   9.912  0.1843  0.0036 -1.1341
  105OSM    H7S10708   1.007   4.101   9.943 -0.1214  0.5977 -1.4711
  105OSM    H7T10709   1.189   4.087   9.971 -0.6471 -1.4230 -1.1431
  105OSM    C8S10710   1.127   4.111   9.760 -0.5169 -0.0036  0.5082
  105OSM    H8S10711   1.157   4.006   9.739 -0.9426 -0.0238 -0.0145
  105OSM    H8T10712   1.207   4.175   9.717  2.1220 -2.6956  1.2817
  105OSM    C9S10713   0.998   4.140   9.682  0.5748 -0.3005  0.3040
  105OSM    H9S10714   0.993   4.250   9.668  0.3384 -0.1584  1.4956
  105OSM    H9T10715   0.910   4.116   9.745  0.6930  0.1643  0.6417
  105OSM   C10S10716   0.985   4.080   9.536  0.0723 -0.4773 -0.1118
  105OSM   H10S10717   0.890   4.121   9.494  0.1509  1.3081  1.4159
  105OSM   H10T10718   0.968   3.970   9.538  0.6996 -0.5776 -0.2030
  105OSM   C11S10719   1.103   4.105   9.440  0.7935  0.1405  0.2500
  105OSM   H11S10720   1.190   4.057   9.490 -0.0563 -3.3287 -1.4606
  105OSM   H11T10721   1.114   4.214   9.422 -0.2321  0.5071  1.7266
  105OSM   C12S10722   1.097   4.047   9.295 -0.2359  0.8521 -0.1227
  105OSM   H12S10723   1.093   3.936   9.300  1.7103  0.7975  1.0316
  105OSM   H12T10724   1.196   4.058   9.246  0.8477 -0.1177  1.7540
  105OSM   C13S10725   0.975   4.089   9.214 -0.0185  0.6430  0.1021
  105OSM   H13S10726   0.948   4.197   9.220 -0.3289  0.6139 -0.6230
  105OSM   H13T10727   0.882   4.049   9.258  1.3674  0.1607  2.6550
  105OSM   C14S10728   0.973   4.053   9.060 -0.2377 -0.4430 -0.0231
  105OSM   H14S10729   1.075   4.068   9.018 -0.3427 -0.9551 -0.4716
  105OSM   H14T10730   0.891   4.110   9.012  0.1857 -0.2491 -0.5183
  105OSM   C15S10731   0.935   3.910   9.042  0.1054 -0.0704 -0.0972
  105OSM   H15S10732   0.847   3.884   9.104  0.2561 -1.3915 -0.4282
  105OSM   H15T10733   1.024   3.853   9.075 -0.1451  1.2367  3.0448
  105OSM   C16S10734   0.902   3.883   8.896 -0.3563  0.3343  0.1376
  105OSM   H16S10735   0.853   3.970   8.847  0.8756  2.3887  2.3941
  105OSM   H16T10736   0.820   3.809   8.888  0.6775 -0.6900 -1.2819
  105OSM   C17S10737   1.023   3.827   8.821  0.3777  0.1586  0.0061
  105OSM   H17S10738   1.074   3.751   8.885 -2.2267 -1.2995  0.3957
  105OSM   H17T10739   1.102   3.898   8.786 -0.0884 -0.0464 -1.5000
  105OSM   C18S10740   0.977   3.755   8.691  0.0454 -0.8430  0.0088
  105OSM   H18S10741   1.045   3.671   8.666 -0.4834 -0.7241 -1.9186
  105OSM   H18T10742   0.976   3.816   8.598  1.4732 -0.3975  0.2822
  105OSM   H18U10743   0.878   3.704   8.695  0.4985 -1.6073  1.8014
  105OSM    C1F10744   1.439   4.285  10.351  0.3301 -0.3316  0.0967
  105OSM     OF10745   1.462   4.193  10.423  0.3910 -0.0816 -0.6267
  105OSM    C2F10746   1.543   4.372  10.300 -1.0219 -1.0021 -0.1482
  105OSM    H2F10747   1.624   4.401  10.369 -2.0572  0.6401  0.4033
  105OSM    H2G10748   1.504   4.470  10.265 -0.6083 -0.8926 -0.3147
  105OSM    C3F10749   1.629   4.319  10.172 -0.3132 -0.2103 -0.2477
  105OSM    H3F10750   1.682   4.226  10.203 -0.7808 -1.0246 -1.8433
  105OSM    H3G10751   1.703   4.399  10.153  0.0307 -0.7379 -1.1585
  105OSM    C4F10752   1.547   4.307  10.043 -0.2690  0.1270 -0.0953
  105OSM    H4F10753   1.498   4.403  10.013 -2.5712 -1.4887 -1.6566
  105OSM    H4G10754   1.464   4.235  10.057 -0.7560  0.4724 -1.1731
  105OSM    C5F10755   1.623   4.260   9.918 -0.7758  0.3567 -0.2254
  105OSM    H5F10756   1.666   4.161   9.944  4.0773  2.0466 -1.4079
  105OSM    H5G10757   1.705   4.328   9.886 -1.4914  0.9542 -0.8064
  105OSM    C6F10758   1.524   4.222   9.808  0.0287  0.1573  0.2439
  105OSM    H6F10759   1.477   4.304   9.750 -0.0512 -0.9655 -1.3137
  105OSM    H6G10760   1.446   4.156   9.852  2.9252 -3.7192 -0.1478
  105OSM    C7F10761   1.585   4.121   9.704 -0.2718  0.7206  0.1190
  105OSM    H7F10762   1.615   4.035   9.767 -3.2186 -0.7623 -0.3910
  105OSM    H7G10763   1.673   4.164   9.652  0.6713 -0.2767  0.8919
  105OSM    C8F10764   1.500   4.091   9.587  0.4886  0.1568 -0.3855
  105OSM    H8F10765   1.470   4.184   9.534 -2.2461 -0.6170 -0.2753
  105OSM    H8G10766   1.412   4.042   9.632  2.0606 -1.0788  1.4274
  105OSM    C9F10767   1.565   3.998   9.489 -0.5090 -0.1674  0.4436
  105OSM    H9F10768   1.551   3.891   9.512 -0.0363  0.1152  2.1455
  105OSM   C10F10769   1.630   4.034   9.376  0.2342  0.0989 -0.3128
  105OSM   H10F10770   1.666   3.953   9.312 -1.2203 -0.2447 -0.7075
  105OSM   C11F10771   1.664   4.177   9.342  0.0198  0.2322 -0.5188
  105OSM   H11F10772   1.770   4.161   9.313  0.1773  0.1069  0.1171
  105OSM   H11G10773   1.674   4.244   9.429  1.9003  1.3557 -1.5711
  105OSM   C12F10774   1.580   4.245   9.235  0.3985  0.1516  0.8212
  105OSM   H12F10775   1.624   4.345   9.214 -1.0002  0.5997 -0.0576
  105OSM   H12G10776   1.478   4.255   9.278  0.7612  0.4927  1.6031
  105OSM   C13F10777   1.581   4.187   9.093  0.1617  0.1638  0.4156
  105OSM   H13F10778   1.575   4.078   9.112  0.5693  0.0585 -0.0513
  105OSM   H13G10779   1.678   4.201   9.041 -0.8841 -0.0009 -1.6376
  105OSM   C14F10780   1.470   4.245   9.002  0.0334  0.1551  0.0708
  105OSM   H14F10781   1.488   4.354   8.987  1.9432 -0.0258  0.8462
  105OSM   H14G10782   1.374   4.229   9.056 -0.8499  1.1906 -1.1635
  105OSM   C15F10783   1.457   4.164   8.870 -0.2575  0.5397 -0.2711
  105OSM   H15F10784   1.458   4.054   8.886 -0.8091  0.3699 -1.3538
  105OSM   H15G10785   1.540   4.205   8.809  0.7577  1.8955  1.9639
  105OSM   C16F10786   1.325   4.188   8.787  0.2243 -0.4751  0.7474
  105OSM   H16F10787   1.303   4.296   8.773 -1.5435 -0.8493  0.5968
  105OSM   H16G10788   1.238   4.141   8.837 -2.0720  3.7513  0.8897
  105OSM   C17F10789   1.344   4.131   8.649 -0.3751 -0.4720  0.3643
  105OSM   H17F10790   1.395   4.033   8.659  4.0866  1.7563  0.3970
  105OSM   H17G10791   1.421   4.190   8.595  1.1434 -1.2834  1.6018
  105OSM   C18F10792   1.216   4.125   8.570 -0.0973 -0.4099  0.9370
  105OSM   H18F10793   1.235   4.098   8.464 -1.3259 -2.3342  1.1814
  105OSM   H18G10794   1.171   4.226   8.575  0.4532 -0.1803  1.4042
  105OSM   H18H10795   1.142   4.051   8.607 -0.2885 -0.7848 -0.1925
  106OSM      N10796   2.765   2.278  10.827 -0.0193  0.1965  0.2754
  106OSM    C1510797   2.677   2.342  10.936 -0.4716 -0.2022  1.0691
  106OSM   H15A10798   2.691   2.289  11.029  0.4170  1.4526  1.8965
  106OSM   H15B10799   2.574   2.334  10.904  0.1117 -1.1002 -0.6222
  106OSM   H15C10800   2.693   2.447  10.956 -2.0383  0.1821  0.4003
  106OSM    C1410801   2.908   2.266  10.874  0.0471  0.4482 -0.5009
  106OSM   H14A10802   2.917   2.196  10.956 -0.3338  1.5969  0.5442
  106OSM   H14B10803   2.944   2.364  10.903 -1.2639  1.0908 -0.9785
  106OSM   H14C10804   2.971   2.226  10.796  1.3322  1.8154 -0.1994
  106OSM    C1310805   2.709   2.137  10.804  0.2206  0.0536 -0.6971
  106OSM   H13A10806   2.706   2.079  10.895  3.2999  1.1251  0.1661
  106OSM   H13B10807   2.775   2.091  10.732  2.3005  3.1795 -0.8948
  106OSM   H13C10808   2.611   2.129  10.759 -0.5667  0.6663  0.8575
  106OSM    C1210809   2.760   2.356  10.700 -0.0090  0.2250 -0.9618
  106OSM   H12A10810   2.828   2.312  10.629 -0.7437 -0.5744 -1.1887
  106OSM   H12B10811   2.790   2.458  10.717  1.1989 -0.4380  0.9582
  106OSM    C1110812   2.629   2.353  10.621 -0.5274  0.7971  0.2371
  106OSM   H11A10813   2.602   2.246  10.612 -1.0674  0.8814  0.7840
  106OSM   H11B10814   2.646   2.405  10.524 -0.0922 -2.3767 -1.4601
  106OSM      P10815   2.387   2.401  10.640  0.0523  0.0894 -0.2510
  106OSM    O1310816   2.341   2.261  10.678  0.0591  0.6770 -0.1565
  106OSM    O1410817   2.303   2.509  10.679  0.3682  0.3583  0.1186
  106OSM    O1110818   2.396   2.394  10.482 -0.4669 -0.2543 -0.0816
  106OSM    O1210819   2.530   2.421  10.692 -0.0599 -0.4193  0.1121
  106OSM    C1S10820   2.339   2.499  10.405  0.8412  0.3584  0.4416
  106OSM    H1S10821   2.396   2.593  10.419  1.0480  0.4602 -1.0218
  106OSM    H1T10822   2.230   2.516  10.415  0.6407  0.2642 -1.3919
  106OSM     NF10823   2.303   2.589  10.185  0.0037 -0.6906 -0.4745
  106OSM    HNF10824   2.224   2.583  10.125 -0.2414  0.7189 -0.3306
  106OSM    C2S10825   2.351   2.473  10.248  0.0359 -0.2057 -0.1198
  106OSM    H2S10826   2.459   2.448  10.232  0.4023  0.5636  1.0734
  106OSM    C3S10827   2.278   2.331  10.216 -0.5548 -0.6678  0.1377
  106OSM    H3S10828   2.173   2.351  10.248  0.4925  1.5339  2.3905
  106OSM     O310829   2.329   2.219  10.297 -0.2295  0.1930 -0.6169
  106OSM    HO310830   2.394   2.266  10.349  0.0271 -3.4410  2.5690
  106OSM    C4S10831   2.274   2.303  10.067 -0.0724 -0.7082  0.6123
  106OSM    H4S10832   2.188   2.344  10.012  0.1130 -2.2575 -0.9140
  106OSM    C5S10833   2.364   2.237   9.996  0.4636 -0.7423 -0.4974
  106OSM    H5S10834   2.455   2.195  10.043 -0.7936 -1.5143  1.3223
  106OSM    C6S10835   2.365   2.216   9.845  0.4919 -0.4596 -0.1738
  106OSM    H6S10836   2.365   2.109   9.815 -1.1279  0.1740 -2.5609
  106OSM    H6T10837   2.460   2.264   9.814 -0.7160  2.6506  0.7691
  106OSM    C7S10838   2.263   2.291   9.747  0.2842  0.2059 -0.2068
  106OSM    H7S10839   2.273   2.400   9.767  0.7247 -0.0603  1.0858
  106OSM    H7T10840   2.157   2.259   9.760  0.0405  0.9284 -0.3956
  106OSM    C8S10841   2.298   2.252   9.598  0.2205  0.3054 -0.9808
  106OSM    H8S10842   2.294   2.142   9.585  3.6166  0.0623 -0.3319
  106OSM    H8T10843   2.396   2.286   9.560  0.6952 -0.9744 -0.9351
  106OSM    C9S10844   2.197   2.313   9.490 -0.7226 -0.4006 -0.0963
  106OSM    H9S10845   2.210   2.424   9.492  1.8717 -0.6193 -1.8739
  106OSM    H9T10846   2.095   2.283   9.522 -0.1729  0.0468  2.1402
  106OSM   C10S10847   2.223   2.269   9.344  0.0810  0.3279 -0.9759
  106OSM   H10S10848   2.196   2.165   9.315 -1.9638  0.7245 -0.5482
  106OSM   H10T10849   2.333   2.265   9.330  0.5228  1.2643  1.8203
  106OSM   C11S10850   2.175   2.354   9.231  0.7438 -0.1993 -0.3548
  106OSM   H11S10851   2.242   2.443   9.238  0.5898  0.0319 -1.8163
  106OSM   H11T10852   2.070   2.389   9.245  0.3560 -0.7810 -1.7555
  106OSM   C12S10853   2.174   2.279   9.092 -0.0564 -0.1009 -0.5973
  106OSM   H12S10854   2.109   2.189   9.099 -1.0347  0.4885 -1.9100
  106OSM   H12T10855   2.280   2.252   9.072  0.2473  1.0177 -0.5325
  106OSM   C13S10856   2.125   2.362   8.980 -0.3606 -0.2268  0.8519
  106OSM   H13S10857   2.170   2.463   8.964 -0.6238 -0.3072 -0.4681
  106OSM   H13T10858   2.017   2.385   8.994 -0.3257  0.0769  0.6319
  106OSM   C14S10859   2.129   2.304   8.831  0.0050  0.6845 -0.4063
  106OSM   H14S10860   2.080   2.205   8.836  0.4049  0.4591 -0.9193
  106OSM   H14T10861   2.237   2.298   8.805 -0.5133  0.1257 -2.5095
  106OSM   C15S10862   2.057   2.391   8.727  0.1699 -0.0785  0.7294
  106OSM   H15S10863   2.116   2.485   8.735  1.2753 -0.8253  1.3276
  106OSM   H15T10864   1.957   2.425   8.763 -0.9105 -1.7704 -0.6384
  106OSM   C16S10865   2.051   2.333   8.589  0.1524  0.0342 -0.5193
  106OSM   H16S10866   1.986   2.242   8.595 -1.1796  0.8456 -2.1958
  106OSM   H16T10867   2.153   2.289   8.580 -0.2974 -1.2419  0.3907
  106OSM   C17S10868   2.016   2.428   8.483 -0.0431  0.4100 -0.2985
  106OSM   H17S10869   2.055   2.395   8.384 -0.7675 -1.9485  0.1659
  106OSM   H17T10870   2.067   2.525   8.497  0.6006  0.1897 -1.0800
  106OSM   C18S10871   1.859   2.438   8.472 -0.5416 -0.1109 -0.0357
  106OSM   H18S10872   1.843   2.521   8.399 -1.2922 -1.5632 -1.5559
  106OSM   H18T10873   1.819   2.476   8.569 -0.4425  0.4708 -0.2204
  106OSM   H18U10874   1.802   2.352   8.431 -1.5698  1.2946 -1.6291
  106OSM    C1F10875   2.368   2.709  10.190 -0.2410 -0.1626  0.8936
  106OSM     OF10876   2.485   2.715  10.231  0.1585 -0.0932  0.4483
  106OSM    C2F10877   2.288   2.831  10.140  0.3097  0.3245  0.3942
  106OSM    H2F10878   2.346   2.918  10.178 -0.3077  0.6882  0.5199
  106OSM    H2G10879   2.180   2.823  10.165  0.2335 -1.2469 -0.3808
  106OSM    C3F10880   2.301   2.843   9.979  0.9288 -0.0810 -0.3854
  106OSM    H3F10881   2.266   2.747   9.937 -0.2539  0.6035 -1.0114
  106OSM    H3G10882   2.408   2.858   9.954  1.6252 -3.3346  0.4505
  106OSM    C4F10883   2.220   2.966   9.935 -0.3235 -0.2269  1.0322
  106OSM    H4F10884   2.274   3.057   9.966  1.0712 -0.1330 -1.5050
  106OSM    H4G10885   2.122   2.954   9.985 -1.1099  3.7739  0.6038
  106OSM    C5F10886   2.206   2.976   9.781  0.5954 -0.3636 -0.0681
  106OSM    H5F10887   2.155   3.070   9.753  1.3232  0.5275  1.4967
  106OSM    H5G10888   2.132   2.897   9.757 -1.4098  1.5893 -0.4566
  106OSM    C6F10889   2.333   2.940   9.712  0.4774 -0.4629 -0.6915
  106OSM    H6F10890   2.372   2.840   9.742  1.2577  0.6038  2.0317
  106OSM    H6G10891   2.413   3.014   9.736 -0.6506  0.0135  1.6793
  106OSM    C7F10892   2.319   2.945   9.561 -0.9752  0.1193  0.0728
  106OSM    H7F10893   2.248   2.867   9.527  0.1994 -0.6718 -0.6317
  106OSM    H7G10894   2.411   2.912   9.507 -0.1822 -0.2589  1.6366
  106OSM    C8F10895   2.291   3.089   9.513  0.0772  0.1516 -0.0914
  106OSM    H8F10896   2.372   3.152   9.554  0.1138 -0.9783  1.6283
  106OSM    H8G10897   2.192   3.120   9.554  0.1565  1.8963 -1.1732
  106OSM    C9F10898   2.282   3.093   9.367  0.0808 -0.4221 -0.3656
  106OSM    H9F10899   2.360   3.033   9.320  1.1750  0.6479  0.0430
  106OSM   C10F10900   2.222   3.173   9.278  0.2444  0.8464  0.2756
  106OSM   H10F10901   2.250   3.172   9.172 -1.3749 -1.0170 -0.1591
  106OSM   C11F10902   2.129   3.279   9.317 -0.5767  0.3223  0.1521
  106OSM   H11F10903   2.168   3.376   9.278  1.7383 -0.0873  1.3812
  106OSM   H11G10904   2.109   3.282   9.427 -1.0689  0.9538  0.0478
  106OSM   C12F10905   1.988   3.253   9.261  0.4016 -1.2310 -0.2383
  106OSM   H12F10906   1.932   3.346   9.286  0.8458 -1.0057 -0.0757
  106OSM   H12G10907   1.947   3.164   9.313 -3.4526 -0.4383 -1.7098
  106OSM   C13F10908   1.982   3.232   9.108 -0.8819 -0.9771  0.3089
  106OSM   H13F10909   2.021   3.138   9.064  2.2732  1.3834 -2.1562
  106OSM   H13G10910   2.044   3.310   9.058 -1.0221 -0.8252  0.3697
  106OSM   C14F10911   1.838   3.238   9.049  0.6888 -0.2718 -0.6791
  106OSM   H14F10912   1.790   3.322   9.104  0.9483 -0.9950  0.6791
  106OSM   H14G10913   1.775   3.153   9.080 -0.1786  0.2436 -1.0015
  106OSM   C15F10914   1.836   3.252   8.895 -0.5086  0.9236  0.7041
  106OSM   H15F10915   1.883   3.163   8.849 -0.5685  1.5706 -0.6349
  106OSM   H15G10916   1.898   3.329   8.843  0.0023 -0.6085 -1.0132
  106OSM   C16F10917   1.694   3.259   8.840  0.0060  0.9834 -0.5135
  106OSM   H16F10918   1.645   3.348   8.885 -2.7330 -0.2640 -0.9599
  106OSM   H16G10919   1.640   3.167   8.872 -0.6406  0.8541 -1.9582
  106OSM   C17F10920   1.678   3.265   8.687 -0.3132 -0.6247 -0.6307
  106OSM   H17F10921   1.740   3.186   8.641 -0.2123  0.1172 -1.7711
  106OSM   H17G10922   1.716   3.360   8.645 -0.0749 -1.4530 -2.3057
  106OSM   C18F10923   1.526   3.252   8.645 -0.0573  0.6335 -0.1112
  106OSM   H18F10924   1.518   3.293   8.542 -2.3355  1.7754  0.4944
  106OSM   H18G10925   1.462   3.313   8.713 -1.7914  0.0676 -1.1849
  106OSM   H18H10926   1.496   3.145   8.648  0.1757  0.5730  0.0207
  107OSM      N10927   3.390   6.452  11.332 -0.0285  0.0644  0.2234
  107OSM    C1510928   3.484   6.424  11.443 -0.2382 -0.3716  0.3958
  107OSM   H15A10929   3.427   6.387  11.527 -0.9896  1.0193  0.5269
  107OSM   H15B10930   3.537   6.514  11.470 -0.6727 -0.4226  1.4473
  107OSM   H15C10931   3.560   6.351  11.421  1.0487  0.5949  1.6278
  107OSM    C1410932   3.319   6.326  11.297 -0.4538 -0.6073  0.1962
  107OSM   H14A10933   3.284   6.275  11.386  0.0539 -0.0379  0.7264
  107OSM   H14B10934   3.381   6.259  11.239  2.5758  2.2391  0.0482
  107OSM   H14C10935   3.237   6.355  11.233  1.4059  0.6306 -1.7119
  107OSM    C1310936   3.288   6.544  11.377 -0.5054 -0.0099 -0.2572
  107OSM   H13A10937   3.235   6.512  11.466  0.7040  1.2559  0.9535
  107OSM   H13B10938   3.208   6.566  11.308 -2.1493 -1.0229  1.3051
  107OSM   H13C10939   3.326   6.643  11.400 -1.6990  0.3205  0.3083
  107OSM    C1210940   3.472   6.507  11.214 -0.3823 -0.0848  0.0103
  107OSM   H12A10941   3.563   6.449  11.206 -0.1340  0.2611  0.3296
  107OSM   H12B10942   3.506   6.603  11.250 -1.1014  0.2039 -0.0918
  107OSM    C1110943   3.408   6.532  11.076 -1.2637 -0.2077  0.0408
  107OSM   H11A10944   3.373   6.433  11.039  1.4139 -0.7153 -1.2623
  107OSM   H11B10945   3.487   6.559  11.003 -3.6963  1.0611 -2.2148
  107OSM      P10946   3.329   6.777  11.063 -0.0214 -0.3569 -0.0289
  107OSM    O1310947   3.204   6.853  11.070  0.0868  0.1673 -0.5241
  107OSM    O1410948   3.431   6.808  11.167  0.5788 -0.3596 -0.6340
  107OSM    O1110949   3.394   6.802  10.923 -0.0275 -0.2711  0.8806
  107OSM    O1210950   3.295   6.626  11.066 -0.2352  0.1071 -0.5601
  107OSM    C1S10951   3.362   6.726  10.804  0.3555  0.0613 -0.0511
  107OSM    H1S10952   3.260   6.683  10.812  0.4942  0.0643  1.8989
  107OSM    H1T10953   3.440   6.648  10.793  1.0024  0.8383 -1.0237
  107OSM     NF10954   3.322   6.728  10.555  0.6076 -0.5921 -0.0798
  107OSM    HNF10955   3.400   6.703  10.498  2.0233 -1.3887  2.1236
  107OSM    C2S10956   3.365   6.805  10.674 -0.0338 -0.4270 -0.4381
  107OSM    H2S10957   3.302   6.896  10.681 -0.2898 -0.5124 -1.5697
  107OSM    C3S10958   3.516   6.868  10.662 -0.3285 -0.1715  0.4685
  107OSM    H3S10959   3.594   6.789  10.651  0.7222  0.9865 -0.6666
  107OSM     O310960   3.555   6.954  10.771 -0.0478  0.4408 -0.0233
  107OSM    HO310961   3.495   6.920  10.839  0.0829  1.1664  0.4621
  107OSM    C4S10962   3.508   6.961  10.539 -0.1716  0.4143  0.7907
  107OSM    H4S10963   3.440   7.047  10.534 -0.5469  0.0096 -3.4271
  107OSM    C5S10964   3.586   6.948  10.434 -0.2118 -0.2354  0.2939
  107OSM    H5S10965   3.659   6.865  10.426  1.2956  1.1466 -0.7232
  107OSM    C6S10966   3.598   7.039  10.317 -0.6845 -0.6382 -0.1000
  107OSM    H6S10967   3.706   7.064  10.303 -1.0134  2.3374  2.1021
  107OSM    H6T10968   3.550   7.136  10.342  0.4702 -0.3713  1.1589
  107OSM    C7S10969   3.525   6.981  10.195 -0.5458  0.7297 -0.6732
  107OSM    H7S10970   3.426   6.945  10.230 -0.1129 -0.0060 -0.1828
  107OSM    H7T10971   3.570   6.886  10.157  0.1096  0.1840  1.4369
  107OSM    C8S10972   3.498   7.073  10.080  0.9029 -0.8241 -0.0575
  107OSM    H8S10973   3.585   7.136  10.053  0.6053  0.3226  1.5325
  107OSM    H8T10974   3.420   7.146  10.113 -1.1882 -2.3803 -1.4641
  107OSM    C9S10975   3.444   7.001   9.961  0.6445 -0.2624 -0.3343
  107OSM    H9S10976   3.344   6.966   9.994  0.8008 -0.6106 -0.2240
  107OSM    H9T10977   3.506   6.914   9.929 -0.7425 -1.9272  1.4299
  107OSM   C10S10978   3.430   7.093   9.842  0.8045 -0.5991 -0.2946
  107OSM   H10S10979   3.529   7.141   9.825 -0.6792  1.1047 -4.6102
  107OSM   H10T10980   3.360   7.174   9.871  1.5708  0.9341 -2.5885
  107OSM   C11S10981   3.378   7.023   9.718  0.2799  0.0304 -0.3852
  107OSM   H11S10982   3.275   6.981   9.723 -0.1584  1.2158  0.6891
  107OSM   H11T10983   3.453   6.945   9.694 -0.4848 -0.6783 -0.4999
  107OSM   C12S10984   3.404   7.116   9.597 -0.8059 -0.4537  0.4909
  107OSM   H12S10985   3.512   7.135   9.585 -1.0266 -0.3933 -1.5122
  107OSM   H12T10986   3.359   7.214   9.626  1.6086  0.6091  0.7188
  107OSM   C13S10987   3.355   7.040   9.470 -0.1431 -0.8327 -0.2020
  107OSM   H13S10988   3.248   7.017   9.488 -0.4951  1.7850  1.2497
  107OSM   H13T10989   3.418   6.949   9.466 -0.2616 -0.8986 -0.6320
  107OSM   C14S10990   3.406   7.124   9.351 -0.3084 -0.4048  0.2546
  107OSM   H14S10991   3.516   7.126   9.343 -0.4278  0.3416 -1.6258
  107OSM   H14T10992   3.362   7.226   9.353 -0.5619 -0.4259 -2.0595
  107OSM   C15S10993   3.350   7.058   9.224 -0.6215 -0.1066  0.1300
  107OSM   H15S10994   3.366   6.949   9.237 -0.2704 -0.1147 -0.3546
  107OSM   H15T10995   3.409   7.087   9.134 -2.1621  1.5074 -0.3908
  107OSM   C16S10996   3.203   7.091   9.194  0.0598 -0.2650 -0.9405
  107OSM   H16S10997   3.194   7.201   9.208  0.3492 -0.4499  0.8267
  107OSM   H16T10998   3.146   7.046   9.278  2.4934  2.0506  2.1194
  107OSM   C17S10999   3.155   7.047   9.064 -0.3115  0.2005 -0.6161
  107OSM   H17S11000   3.174   6.938   9.066 -0.6917  0.1225 -1.1842
  107OSM   H17T11001   3.219   7.084   8.981  1.6248 -0.0538  0.7248
  107OSM   C18S11002   3.010   7.073   9.019  0.5988 -0.4583 -0.1638
  107OSM   H18S11003   3.001   7.013   8.926  0.8911 -0.8672  0.0731
  107OSM   H18T11004   2.997   7.180   8.993  0.3948 -0.0512  1.5235
  107OSM   H18U11005   2.935   7.043   9.095  2.4471  1.6822  2.6064
  107OSM    C1F11006   3.201   6.680  10.535  0.2723 -0.0027 -0.5768
  107OSM     OF11007   3.112   6.710  10.609 -0.0484  0.2633 -1.1116
  107OSM    C2F11008   3.170   6.606  10.410 -0.7905 -0.0591  0.4980
  107OSM    H2F11009   3.231   6.513  10.414  0.0765  0.5108  0.5466
  107OSM    H2G11010   3.201   6.666  10.322 -0.6515 -2.4712 -1.1593
  107OSM    C3F11011   3.024   6.555  10.402  0.3851  0.1326 -0.3723
  107OSM    H3F11012   2.954   6.641  10.407  2.6330  1.9668  0.2104
  107OSM    H3G11013   2.998   6.505  10.498  0.4511  0.0064 -0.4218
  107OSM    C4F11014   2.996   6.478  10.270 -0.4515  0.3707 -0.2177
  107OSM    H4F11015   2.910   6.408  10.270 -0.2307  0.0993 -0.2855
  107OSM    H4G11016   3.077   6.403  10.259  1.0968  1.8455  0.9105
  107OSM    C5F11017   2.976   6.569  10.148  0.5190 -0.2159  0.2045
  107OSM    H5F11018   3.053   6.648  10.156  0.0021  0.1845  1.4070
  107OSM    H5G11019   2.878   6.619  10.166 -0.3619 -1.6319 -0.5291
  107OSM    C6F11020   2.967   6.493  10.013  0.0760 -1.2634 -0.3705
  107OSM    H6F11021   2.899   6.407  10.034  0.1654 -0.3099  4.1944
  107OSM    H6G11022   3.067   6.450   9.990  0.6745 -1.1858  2.0100
  107OSM    C7F11023   2.915   6.562   9.888 -0.1431  0.3980  0.4851
  107OSM    H7F11024   2.920   6.493   9.800  3.6758  0.6691  0.4120
  107OSM    H7G11025   2.990   6.642   9.872 -0.4738  0.7501  0.6913
  107OSM    C8F11026   2.768   6.614   9.887 -0.3388 -0.1237  1.3466
  107OSM    H8F11027   2.753   6.667   9.984 -2.2220 -1.0301  1.5822
  107OSM    H8G11028   2.692   6.534   9.871  1.4733 -1.5957 -0.1637
  107OSM    C9F11029   2.751   6.723   9.775  0.0614 -0.3687  0.1692
  107OSM    H9F11030   2.803   6.818   9.791  0.4658 -0.4518 -0.6222
  107OSM   C10F11031   2.679   6.710   9.661 -0.0399  0.4723  0.9410
  107OSM   H10F11032   2.671   6.801   9.601 -1.6170 -0.7235 -0.7029
  107OSM   C11F11033   2.608   6.590   9.603  1.4511  0.0933 -0.1908
  107OSM   H11F11034   2.577   6.513   9.676  0.1315  0.3171 -0.5084
  107OSM   H11G11035   2.675   6.535   9.534 -0.6081 -2.1288 -0.4595
  107OSM   C12F11036   2.485   6.627   9.515  0.4012  0.2102 -0.9082
  107OSM   H12F11037   2.504   6.683   9.422  0.8420 -0.2372 -1.0918
  107OSM   H12G11038   2.411   6.686   9.572  1.3764  1.0698 -0.5206
  107OSM   C13F11039   2.405   6.501   9.472  0.4298  0.3283  0.6671
  107OSM   H13F11040   2.413   6.421   9.549 -1.4327 -0.5235  0.0113
  107OSM   H13G11041   2.454   6.454   9.384 -0.6476  1.3436 -0.4913
  107OSM   C14F11042   2.253   6.530   9.455 -0.5704 -0.1142 -0.8325
  107OSM   H14F11043   2.229   6.634   9.424 -0.5208  0.3992  0.7638
  107OSM   H14G11044   2.217   6.531   9.560 -2.0545 -0.1563 -1.3301
  107OSM   C15F11045   2.170   6.425   9.380 -0.0407  0.3458  0.3681
  107OSM   H15F11046   2.059   6.433   9.384 -0.0994 -0.4972  0.6196
  107OSM   H15G11047   2.202   6.328   9.423  0.3731  0.1835 -0.3025
  107OSM   C16F11048   2.210   6.421   9.232 -0.3012  0.1303 -0.6656
  107OSM   H16F11049   2.306   6.366   9.221 -1.7230 -2.3465 -0.9455
  107OSM   H16G11050   2.218   6.526   9.195 -1.4040  1.2060  1.9779
  107OSM   C17F11051   2.100   6.380   9.130 -0.4870 -0.0785 -0.8844
  107OSM   H17F11052   2.022   6.458   9.144  0.3112  0.8280 -1.4390
  107OSM   H17G11053   2.064   6.276   9.145 -0.5741  0.2870  1.5355
  107OSM   C18F11054   2.155   6.395   8.993  0.3752  0.3585  0.1145
  107OSM   H18F11055   2.159   6.504   8.974  0.4079  0.4360  0.5646
  107OSM   H18G11056   2.082   6.351   8.922  1.0354  0.7520 -0.8177
  107OSM   H18H11057   2.256   6.351   8.976 -0.3899 -1.0130 -1.0684
  108OSM      N11058   0.098   4.176  11.154  0.1089  0.4027 -0.4066
  108OSM    C1511059   0.106   4.134  11.013 -0.0813 -0.3260  0.3590
  108OSM   H15A11060   0.146   4.036  10.993  0.5853  0.0288 -0.0878
  108OSM   H15B11061   0.170   4.204  10.960  1.4196 -0.6752  1.6706
  108OSM   H15C11062   0.012   4.145  10.960  1.1689  1.3730 -1.6326
  108OSM    C1411063  -0.012   4.103  11.224 -0.5470  0.2642 -0.1684
  108OSM   H14A11064  -0.104   4.107  11.168  0.0118 -1.5905 -1.2839
  108OSM   H14B11065  -0.037   4.157  11.314 -0.9668  2.1937 -1.4230
  108OSM   H14C11066   0.015   4.002  11.252  0.3876  0.3381 -0.7703
  108OSM    C1311067   0.227   4.153  11.217  0.2968 -0.3785 -0.3005
  108OSM   H13A11068   0.226   4.179  11.322  0.0051 -0.0465 -0.3848
  108OSM   H13B11069   0.302   4.221  11.180  1.4603 -0.3463  1.9910
  108OSM   H13C11070   0.263   4.053  11.203  2.1069  0.2838 -0.5372
  108OSM    C1211071   0.051   4.323  11.162 -0.4901 -0.0359 -0.2890
  108OSM   H12A11072   0.029   4.352  11.264 -2.5652  0.9776 -0.9962
  108OSM   H12B11073  -0.033   4.338  11.097 -1.2873  1.2352  0.9981
  108OSM    C1111074   0.150   4.425  11.105 -0.0479 -0.1793  0.7174
  108OSM   H11A11075   0.238   4.424  11.173  0.1071 -0.6705  0.5078
  108OSM   H11B11076   0.094   4.521  11.115 -0.2527 -0.1319 -0.7794
  108OSM      P11077   0.199   4.517  10.870  0.5974 -0.4933  0.0261
  108OSM    O1311078   0.088   4.622  10.889 -0.4018 -0.1477 -1.1129
  108OSM    O1411079   0.340   4.571  10.866  0.1792  0.1270  0.3618
  108OSM    O1111080   0.181   4.442  10.735 -0.0818  0.5800 -0.5863
  108OSM    O1211081   0.181   4.399  10.967 -0.1874  0.6131  0.0017
  108OSM    C1S11082   0.111   4.502  10.632  0.4772 -0.3621 -0.4567
  108OSM    H1S11083   0.150   4.602  10.603  3.0197 -1.2587 -0.2153
  108OSM    H1T11084   0.005   4.527  10.655  0.7285 -1.4855  2.0512
  108OSM     NF11085   0.034   4.467  10.384  0.7239  0.2911  0.4414
  108OSM    HNF11086  -0.056   4.430  10.361  0.9048 -0.0573  0.2808
  108OSM    C2S11087   0.102   4.407  10.507  0.1315  0.7615 -0.1519
  108OSM    H2S11088   0.206   4.379  10.481 -0.0957 -1.4923  1.1736
  108OSM    C3S11089   0.030   4.268  10.543 -0.4361  0.1921 -0.3468
  108OSM    H3S11090  -0.079   4.289  10.549 -0.2585  1.6060 -1.9425
  108OSM     O311091   0.070   4.207  10.668  0.0929  0.8931  0.4489
  108OSM    HO311092   0.121   4.275  10.713  2.1151 -0.7082  0.6430
  108OSM    C4S11093   0.052   4.171  10.428  0.3586 -0.4667 -0.3056
  108OSM    H4S11094   0.156   4.136  10.418  0.4982 -0.2845  0.4663
  108OSM    C5S11095  -0.045   4.121  10.350 -0.2462  0.1875  0.2180
  108OSM    H5S11096  -0.152   4.136  10.373 -0.0560  2.0951 -0.0202
  108OSM    C6S11097  -0.001   4.023  10.247  0.0165 -0.6117  0.1648
  108OSM    H6S11098  -0.082   3.947  10.252  0.5264 -1.1148  0.9083
  108OSM    H6T11099   0.101   3.981  10.264  0.2104 -1.3540 -2.6571
  108OSM    C7S11100  -0.011   4.081  10.107 -0.1476  0.0467 -0.2256
  108OSM    H7S11101   0.070   4.157  10.109 -1.5578  1.5392  0.5843
  108OSM    H7T11102  -0.104   4.140  10.092  0.6024  1.2363 -0.2873
  108OSM    C8S11103   0.017   3.984   9.990  0.5108 -0.4012  0.6157
  108OSM    H8S11104  -0.055   3.900   9.984  0.2588 -0.0767 -1.0101
  108OSM    H8T11105   0.121   3.948   9.998  0.5150 -0.3189  0.9649
  108OSM    C9S11106  -0.005   4.066   9.860 -0.7469 -0.0326  0.4594
  108OSM    H9S11107   0.063   4.153   9.842  1.2235 -1.7916 -0.8008
  108OSM    H9T11108  -0.110   4.103   9.859 -1.2312 -1.3862  1.0212
  108OSM   C10S11109   0.013   3.968   9.737 -0.2663  0.8032 -0.9483
  108OSM   H10S11110  -0.050   3.878   9.754 -0.1382  0.8453 -0.2110
  108OSM   H10T11111   0.117   3.929   9.734 -0.5708 -0.0758 -0.3265
  108OSM   C11S11112  -0.023   4.035   9.608  0.5493 -0.2002 -0.5810
  108OSM   H11S11113   0.060   4.109   9.599 -0.4297  1.3042  2.2165
  108OSM   H11T11114  -0.118   4.092   9.611  0.4336 -0.4534  0.6871
  108OSM   C12S11115  -0.011   3.941   9.486 -0.8134 -0.2138 -0.0569
  108OSM   H12S11116  -0.081   3.857   9.502  0.3379 -1.0573  0.6329
  108OSM   H12T11117   0.091   3.896   9.484  0.3466  2.2621  0.9966
  108OSM   C13S11118  -0.047   4.016   9.354  0.9603  0.1089 -0.2539
  108OSM   H13S11119   0.022   4.102   9.342  1.1086 -0.0579 -0.6311
  108OSM   H13T11120  -0.151   4.042   9.383  0.7007 -0.7131 -0.4234
  108OSM   C14S11121  -0.038   3.922   9.236 -0.3602  0.2257 -0.0443
  108OSM   H14S11122  -0.108   3.836   9.237 -2.5045  1.8975 -1.4308
  108OSM   H14T11123   0.066   3.884   9.233 -0.1440  0.8668 -1.2991
  108OSM   C15S11124  -0.072   4.010   9.108 -0.8176  0.4978  0.2816
  108OSM   H15S11125  -0.036   4.114   9.124 -1.5229  0.4662  2.1794
  108OSM   H15T11126  -0.183   4.019   9.107 -0.7269  2.1156  1.5068
  108OSM   C16S11127  -0.021   3.954   8.975  0.0504  0.4131  0.8924
  108OSM   H16S11128  -0.060   3.851   8.960 -0.5291  0.8608 -0.8910
  108OSM   H16T11129   0.090   3.957   8.978  0.0972 -1.3305  1.0806
  108OSM   C17S11130  -0.070   4.029   8.851 -0.4793 -0.2355  0.4730
  108OSM   H17S11131  -0.180   4.034   8.865 -0.5612  0.4088 -0.3947
  108OSM   H17T11132  -0.048   3.973   8.758  0.8027 -0.2204  0.7656
  108OSM   C18S11133  -0.023   4.174   8.846  1.1508  0.8539 -0.1063
  108OSM   H18S11134  -0.066   4.217   8.939  1.0321  1.0227 -0.2397
  108OSM   H18T11135  -0.065   4.232   8.761 -1.3607 -2.1448 -1.0091
  108OSM   H18U11136   0.088   4.179   8.846  1.2821 -1.5803  0.0783
  108OSM    C1F11137   0.082   4.585  10.334 -0.7827  0.2687  0.0949
  108OSM     OF11138   0.171   4.653  10.378  0.3122 -0.3610  0.2064
  108OSM    C2F11139   0.009   4.636  10.215 -0.1652  0.0044  0.4326
  108OSM    H2F11140   0.045   4.739  10.193 -0.2491 -0.2458 -0.9560
  108OSM    H2G11141  -0.100   4.624  10.228 -0.5158 -0.6356 -2.6821
  108OSM    C3F11142   0.051   4.557  10.084 -0.8945 -0.5206  0.7738
  108OSM    H3F11143   0.034   4.448  10.102  0.9603 -0.9379  0.1680
  108OSM    H3G11144   0.153   4.587  10.053 -0.3191 -0.4696  2.6109
  108OSM    C4F11145  -0.037   4.596   9.965 -0.7023  0.6497  0.3141
  108OSM    H4F11146  -0.024   4.697   9.921  1.1047 -0.3510 -1.5291
  108OSM    H4G11147  -0.138   4.595  10.012 -0.8687  1.6587 -0.0136
  108OSM    C5F11148  -0.047   4.493   9.855  0.1906 -0.3108  0.5021
  108OSM    H5F11149  -0.052   4.390   9.896 -4.9318 -0.1316  0.6832
  108OSM    H5G11150   0.046   4.505   9.795  0.8327 -0.7945  1.3849
  108OSM    C6F11151  -0.169   4.499   9.759  0.8728  0.0686 -0.4455
  108OSM    H6F11152  -0.166   4.603   9.722  0.3331 -0.0284 -0.7822
  108OSM    H6G11153  -0.255   4.475   9.824  0.5793  0.0160 -0.8484
  108OSM    C7F11154  -0.147   4.395   9.642  0.8283  0.0671 -1.0987
  108OSM    H7F11155  -0.130   4.298   9.693  1.9098 -0.0366 -1.6325
  108OSM    H7G11156  -0.056   4.407   9.579  1.6257 -1.8335 -0.3534
  108OSM    C8F11157  -0.272   4.402   9.548  0.0827 -0.0772  0.2734
  108OSM    H8F11158  -0.284   4.506   9.512  1.0547 -0.1647 -0.3199
  108OSM    H8G11159  -0.363   4.377   9.606  1.1435 -3.1860  0.6769
  108OSM    C9F11160  -0.259   4.310   9.436  0.0281 -0.0145  0.5769
  108OSM    H9F11161  -0.162   4.309   9.385  0.3791  0.0292  1.2411
  108OSM   C10F11162  -0.354   4.227   9.389  0.0894 -0.3820 -0.1179
  108OSM   H10F11163  -0.334   4.159   9.305 -0.7670 -1.2122  0.3348
  108OSM   C11F11164  -0.490   4.200   9.442  0.3733  0.9813 -0.4305
  108OSM   H11F11165  -0.559   4.243   9.366 -1.8329 -1.5911  0.0184
  108OSM   H11G11166  -0.508   4.251   9.539  0.8888 -0.4570  0.4416
  108OSM   C12F11167  -0.530   4.054   9.463 -0.3293  0.4016  0.3480
  108OSM   H12F11168  -0.560   4.026   9.360  0.7691 -1.4468  0.5262
  108OSM   H12G11169  -0.626   4.045   9.520  0.2894 -0.0633  1.3320
  108OSM   C13F11170  -0.418   3.959   9.511 -0.9057 -0.0908 -0.7824
  108OSM   H13F11171  -0.326   3.962   9.449 -1.5564  0.5450 -1.7120
  108OSM   H13G11172  -0.458   3.856   9.497 -1.8806  0.4197 -1.7719
  108OSM   C14F11173  -0.384   3.969   9.668  0.1624 -0.8417  0.0475
  108OSM   H14F11174  -0.334   4.067   9.682  3.7879 -2.6840  0.6891
  108OSM   H14G11175  -0.316   3.884   9.691 -1.0046 -2.0650 -0.9299
  108OSM   C15F11176  -0.512   3.957   9.763 -0.3006  0.3429  1.0080
  108OSM   H15F11177  -0.566   3.861   9.752  1.5047 -0.3868 -2.0320
  108OSM   H15G11178  -0.586   4.030   9.724  0.8672 -1.1995 -4.5586
  108OSM   C16F11179  -0.488   3.989   9.914 -0.7740 -0.1083  0.5815
  108OSM   H16F11180  -0.582   3.986   9.974  0.4989 -0.2004  2.6267
  108OSM   H16G11181  -0.456   4.096   9.920 -1.4709  0.0124  2.4296
  108OSM   C17F11182  -0.394   3.890   9.981  1.0089  0.8212 -0.1740
  108OSM   H17F11183  -0.293   3.895   9.935  1.4206 -0.2433  0.6084
  108OSM   H17G11184  -0.431   3.788   9.959  1.5001  0.6909 -0.4002
  108OSM   C18F11185  -0.389   3.914  10.135 -0.4240 -0.4474 -0.3514
  108OSM   H18F11186  -0.381   4.024  10.146 -2.6017 -0.2857 -0.2633
  108OSM   H18G11187  -0.296   3.872  10.178  0.9473  0.5253 -2.2691
  108OSM   H18H11188  -0.482   3.873  10.178 -0.7053  2.6864  2.2199
  109OSM      N11189   0.785   4.966  10.723 -0.4566  0.2161 -0.3779
  109OSM    C1511190   0.735   4.934  10.866 -0.2065 -0.4597  0.4388
  109OSM   H15A11191   0.717   5.024  10.922 -0.4885 -0.0182 -0.3435
  109OSM   H15B11192   0.801   4.864  10.914  0.9454  0.8443  0.7932
  109OSM   H15C11193   0.641   4.881  10.866 -0.1246 -0.6336  2.2561
  109OSM    C1411194   0.821   4.833  10.658 -0.8547  0.7639 -0.0441
  109OSM   H14A11195   0.888   4.770  10.714  0.7977  2.6800  0.1940
  109OSM   H14B11196   0.860   4.843  10.558 -0.3936 -3.1389 -0.3463
  109OSM   H14C11197   0.727   4.783  10.643 -0.4657  0.3713 -1.2011
  109OSM    C1311198   0.677   5.034  10.640 -0.1297  0.2980 -0.2519
  109OSM   H13A11199   0.587   4.976  10.652  1.4687 -1.6040  3.6717
  109OSM   H13B11200   0.712   5.039  10.538  0.4346  2.9108  0.0247
  109OSM   H13C11201   0.663   5.132  10.684  0.7919 -0.2460  1.2917
  109OSM    C1211202   0.898   5.050  10.738 -0.6747  0.0374  0.7296
  109OSM   H12A11203   0.977   5.010  10.799  0.0514 -0.4006 -0.4880
  109OSM   H12B11204   0.878   5.150  10.774  0.7834  0.4114  0.5052
  109OSM    C1111205   0.972   5.088  10.599  0.2463 -0.0814  0.3035
  109OSM   H11A11206   0.907   5.073  10.510  0.9548  1.2740 -0.4509
  109OSM   H11B11207   1.063   5.026  10.591 -0.1827 -0.6821  0.0222
  109OSM      P11208   0.904   5.336  10.613  0.1690  0.1209 -0.0016
  109OSM    O1311209   0.829   5.333  10.741 -0.1688 -0.7115 -0.0806
  109OSM    O1411210   0.961   5.464  10.582  0.0854 -0.0926 -0.4774
  109OSM    O1111211   0.801   5.288  10.503 -0.4500 -0.3798 -0.2414
  109OSM    O1211212   1.009   5.224  10.607  0.2896 -0.4432  0.2429
  109OSM    C1S11213   0.777   5.362  10.384 -0.3413  0.4557  0.2803
  109OSM    H1S11214   0.827   5.319  10.295 -0.6623  2.7493 -1.0618
  109OSM    H1T11215   0.832   5.459  10.390 -0.9285  0.8932 -1.2975
  109OSM     NF11216   0.624   5.413  10.207 -0.1552  0.7376  0.5386
  109OSM    HNF11217   0.593   5.505  10.185 -2.7509  0.3320  2.2048
  109OSM    C2S11218   0.630   5.370  10.346  0.2975 -0.1790  0.3564
  109OSM    H2S11219   0.585   5.269  10.356  4.2147 -1.8287  2.1256
  109OSM    C3S11220   0.546   5.457  10.441  0.0708  0.1577 -0.0416
  109OSM    H3S11221   0.585   5.560  10.452 -1.3343  0.7847 -0.7884
  109OSM     O311222   0.543   5.407  10.574 -0.2051  0.5956 -0.4144
  109OSM    HO311223   0.613   5.342  10.576  1.2700  2.1329  0.0345
  109OSM    C4S11224   0.404   5.462  10.384 -0.0445 -0.1203 -0.7131
  109OSM    H4S11225   0.350   5.369  10.404  1.8172 -0.9942  0.3460
  109OSM    C5S11226   0.347   5.566  10.326  0.0468 -0.5825 -0.6513
  109OSM    H5S11227   0.386   5.668  10.338 -0.3599 -0.1163 -3.0690
  109OSM    C6S11228   0.209   5.562  10.271  0.9595  0.4605 -0.1194
  109OSM    H6S11229   0.149   5.642  10.321  0.8377 -0.7034  1.6442
  109OSM    H6T11230   0.162   5.468  10.307  0.1725  0.3201 -1.5048
  109OSM    C7S11231   0.186   5.555  10.122  0.6370  0.0004  0.1195
  109OSM    H7S11232   0.219   5.647  10.069  0.5090 -1.0282 -1.7868
  109OSM    H7T11233   0.075   5.553  10.111  0.7119 -0.5318 -0.6405
  109OSM    C8S11234   0.237   5.435  10.038 -0.5568  0.7043 -0.5770
  109OSM    H8S11235   0.159   5.360  10.066  0.0978 -0.0555 -0.7572
  109OSM    H8T11236   0.333   5.403  10.086 -0.2909  1.4900 -0.5823
  109OSM    C9S11237   0.237   5.457   9.887  0.2286  0.1306 -0.0255
  109OSM    H9S11238   0.312   5.537   9.867  1.2324 -0.9196 -0.4763
  109OSM    H9T11239   0.139   5.499   9.855 -0.9861 -0.2062  3.0186
  109OSM   C10S11240   0.257   5.333   9.798  0.5598 -1.0849 -0.5588
  109OSM   H10S11241   0.182   5.257   9.828  0.2161 -1.6195 -2.6943
  109OSM   H10T11242   0.357   5.285   9.797  0.8683 -0.4484 -2.3277
  109OSM   C11S11243   0.224   5.370   9.654 -0.2069  0.4534 -0.1797
  109OSM   H11S11244   0.284   5.456   9.617  0.6833 -0.0343  0.1171
  109OSM   H11T11245   0.115   5.391   9.640 -0.5507 -0.1976  1.4925
  109OSM   C12S11246   0.251   5.256   9.560  0.2990 -0.0546 -0.1413
  109OSM   H12S11247   0.183   5.171   9.583 -1.2023  1.1174 -0.1906
  109OSM   H12T11248   0.360   5.234   9.568  0.0262 -0.5424  3.3639
  109OSM   C13S11249   0.218   5.297   9.415  0.3005  0.4670 -0.3175
  109OSM   H13S11250   0.271   5.391   9.390  0.6030  0.3700 -0.0330
  109OSM   H13T11251   0.109   5.320   9.413  0.3000  0.5090  0.2212
  109OSM   C14S11252   0.250   5.184   9.315 -0.3757 -0.1306 -0.0076
  109OSM   H14S11253   0.200   5.086   9.336  2.7452 -1.8248 -0.2603
  109OSM   H14T11254   0.357   5.160   9.328 -0.4742  0.1257  1.4002
  109OSM   C15S11255   0.202   5.220   9.174 -0.1500 -1.1612  0.1408
  109OSM   H15S11256   0.270   5.299   9.136 -0.4277 -1.3330 -0.7329
  109OSM   H15T11257   0.101   5.265   9.183  0.3656 -0.1150  0.8183
  109OSM   C16S11258   0.207   5.099   9.088  1.0487 -0.5887 -0.3195
  109OSM   H16S11259   0.163   5.119   8.988 -1.1341  0.2195  0.7545
  109OSM   H16T11260   0.153   5.015   9.136  1.0990 -0.5110 -0.1277
  109OSM   C17S11261   0.348   5.042   9.058  0.2874 -0.3025 -1.2839
  109OSM   H17S11262   0.376   4.977   9.144 -1.3312  0.9635  0.2682
  109OSM   H17T11263   0.419   5.127   9.068 -1.4448  0.8933  1.5472
  109OSM   C18S11264   0.367   4.971   8.927  0.2507 -0.2947 -0.2010
  109OSM   H18S11265   0.468   4.927   8.914 -0.9054 -2.6905 -1.3681
  109OSM   H18T11266   0.357   5.043   8.843 -1.4644 -0.9826 -0.5898
  109OSM   H18U11267   0.298   4.886   8.913  0.7511 -0.8335  0.5387
  109OSM    C1F11268   0.639   5.330  10.105  0.5968  0.8253 -0.0339
  109OSM     OF11269   0.668   5.212  10.121  0.8677 -0.0776 -0.0264
  109OSM    C2F11270   0.626   5.396   9.971  0.3247 -1.1976  0.7643
  109OSM    H2F11271   0.702   5.477   9.969 -0.4636 -0.4630  0.3633
  109OSM    H2G11272   0.523   5.434   9.962  0.1344 -1.9923 -0.6029
  109OSM    C3F11273   0.649   5.301   9.858 -0.4330 -0.2587  0.3851
  109OSM    H3F11274   0.578   5.216   9.863  0.6632 -1.1443  1.0932
  109OSM    H3G11275   0.748   5.253   9.874 -1.2613 -2.0470  0.2736
  109OSM    C4F11276   0.638   5.366   9.718  0.2335 -0.4718  0.1820
  109OSM    H4F11277   0.716   5.446   9.721  0.2372 -0.3860 -1.8308
  109OSM    H4G11278   0.544   5.424   9.706 -0.3277 -1.0768  1.6065
  109OSM    C5F11279   0.642   5.264   9.606  0.0823  0.0565  0.9590
  109OSM    H5F11280   0.551   5.201   9.604  1.8369 -2.5386  0.3165
  109OSM    H5G11281   0.727   5.195   9.625 -1.0458 -1.6703 -0.1525
  109OSM    C6F11282   0.662   5.338   9.474  0.2449  0.0279  0.1765
  109OSM    H6F11283   0.748   5.408   9.471  0.2368  0.0014 -0.7441
  109OSM    H6G11284   0.576   5.406   9.461 -0.5253 -0.5115  2.2019
  109OSM    C7F11285   0.676   5.251   9.343  0.2086 -0.1560  0.7812
  109OSM    H7F11286   0.612   5.166   9.373  0.8533 -0.6161  0.8700
  109OSM    H7G11287   0.771   5.195   9.330 -0.2691 -0.4065 -2.0345
  109OSM    C8F11288   0.622   5.321   9.221 -0.0548  0.2166 -0.1936
  109OSM    H8F11289   0.522   5.366   9.237 -0.5086 -1.4750  2.0068
  109OSM    H8G11290   0.617   5.240   9.145  1.2178 -0.3630  0.3149
  109OSM    C9F11291   0.712   5.432   9.174  0.2939  0.4226  0.1891
  109OSM    H9F11292   0.711   5.521   9.238 -0.3379  0.4608  0.1311
  109OSM   C10F11293   0.781   5.423   9.056 -0.6379 -0.2965 -0.6645
  109OSM   H10F11294   0.846   5.508   9.030  1.8635 -1.7436  0.6535
  109OSM   C11F11295   0.791   5.312   8.958 -0.5776  0.5470 -0.3746
  109OSM   H11F11296   0.764   5.212   8.999 -0.4848  0.4671 -0.5093
  109OSM   H11G11297   0.897   5.316   8.924 -0.2455 -0.4686  0.4884
  109OSM   C12F11298   0.688   5.324   8.845 -0.0892 -0.3835 -0.5618
  109OSM   H12F11299   0.584   5.349   8.874  0.9550  2.1995  1.1349
  109OSM   H12G11300   0.669   5.230   8.790 -1.9701 -0.6852  0.5477
  109OSM   C13F11301   0.735   5.426   8.738 -0.0620 -0.2997  0.0183
  109OSM   H13F11302   0.815   5.382   8.674 -1.7436 -1.5891 -1.2427
  109OSM   H13G11303   0.764   5.521   8.788 -1.7301  0.3319 -0.1834
  109OSM   C14F11304   0.621   5.449   8.637  0.0690 -0.3637  0.0994
  109OSM   H14F11305   0.543   5.515   8.681  1.1754  1.3186 -0.4227
  109OSM   H14G11306   0.568   5.354   8.617 -0.5015  0.2477 -1.3448
  109OSM   C15F11307   0.658   5.509   8.501  0.3892  0.1019 -0.3771
  109OSM   H15F11308   0.727   5.441   8.447 -0.5791 -0.6637 -0.6540
  109OSM   H15G11309   0.702   5.610   8.520  0.5217  0.0722 -0.5266
  109OSM   C16F11310   0.537   5.547   8.408  0.7709 -0.2327  0.2380
  109OSM   H16F11311   0.488   5.632   8.458  0.7474  1.7398 -2.9742
  109OSM   H16G11312   0.459   5.467   8.400  0.6274 -0.4133  2.9648
  109OSM   C17F11313   0.573   5.598   8.267  0.1848 -0.1687  0.6614
  109OSM   H17F11314   0.486   5.578   8.199  0.1300  1.3467  0.2741
  109OSM   H17G11315   0.653   5.537   8.220  0.1391  1.7027 -1.9477
  109OSM   C18F11316   0.625   5.745   8.265 -0.1284  0.2080 -0.2615
  109OSM   H18F11317   0.674   5.763   8.166  1.2026 -0.0450  0.3332
  109OSM   H18G11318   0.704   5.770   8.339  2.8533 -2.2042 -2.4838
  109OSM   H18H11319   0.545   5.821   8.272  0.0118  0.3032  0.3460
  110OSM      N11320   2.035   4.550  11.246 -0.5673 -0.2903  0.7127
  110OSM    C1511321   1.984   4.409  11.244 -0.5927 -0.0544  0.6654
  110OSM   H15A11322   2.026   4.360  11.157 -3.0297  0.5035 -0.8781
  110OSM   H15B11323   1.877   4.414  11.232 -0.7089 -0.7434  1.3710
  110OSM   H15C11324   2.027   4.356  11.327  1.0594 -2.3077 -1.5453
  110OSM    C1411325   1.945   4.622  11.345  0.1458  0.8712  0.3707
  110OSM   H14A11326   1.953   4.728  11.327 -0.1707  1.1932  2.0507
  110OSM   H14B11327   1.969   4.600  11.448 -0.0122  0.1899  0.2606
  110OSM   H14C11328   1.840   4.611  11.324  0.1021  0.8607  0.5914
  110OSM    C1311329   2.178   4.550  11.309  0.0990 -0.3854 -0.0789
  110OSM   H13A11330   2.204   4.654  11.322 -0.7218 -0.0315 -1.2002
  110OSM   H13B11331   2.253   4.501  11.248  0.8158 -0.4540  0.8444
  110OSM   H13C11332   2.172   4.503  11.406 -0.9909 -0.9190 -0.3918
  110OSM    C1211333   2.035   4.613  11.108 -0.4559  0.3735 -0.1925
  110OSM   H12A11334   2.087   4.550  11.037  0.3814  1.3831 -0.5017
  110OSM   H12B11335   2.102   4.698  11.113 -0.8355  0.7310 -1.0451
  110OSM    C1111336   1.907   4.661  11.038  0.3966 -0.3193 -0.2145
  110OSM   H11A11337   1.858   4.725  11.114 -1.1749 -1.2895 -0.3976
  110OSM   H11B11338   1.844   4.573  11.013  0.4003  0.5213 -3.4508
  110OSM      P11339   1.982   4.880  10.914  0.3067  0.0521 -0.1589
  110OSM    O1311340   1.854   4.952  10.937  0.3206  0.6989 -0.0675
  110OSM    O1411341   2.101   4.915  10.994  0.0075 -0.2138  0.5369
  110OSM    O1111342   2.033   4.889  10.763 -0.1956  0.6887 -0.3033
  110OSM    O1211343   1.950   4.728  10.917  0.3154  0.1903  0.2274
  110OSM    C1S11344   1.970   4.818  10.659  0.5098  0.7451  0.0783
  110OSM    H1S11345   1.906   4.895  10.610  0.2546 -0.3214 -1.2997
  110OSM    H1T11346   1.894   4.742  10.686 -0.1757  0.6908 -1.8654
  110OSM     NF11347   1.999   4.706  10.441 -0.1418  0.4345  1.0960
  110OSM    HNF11348   1.977   4.609  10.448 -0.6984  0.4887  0.2071
  110OSM    C2S11349   2.071   4.754  10.555 -0.4485  0.2513 -0.4876
  110OSM    H2S11350   2.134   4.834  10.512 -1.6299  1.6932  0.4114
  110OSM    C3S11351   2.163   4.646  10.628 -0.5296  0.6361  0.2206
  110OSM    H3S11352   2.094   4.572  10.673  2.5162 -1.5881  1.4026
  110OSM     O311353   2.234   4.678  10.748 -0.0919  0.2267  0.2673
  110OSM    HO311354   2.205   4.767  10.771  3.9839  1.3993  1.2027
  110OSM    C4S11355   2.254   4.581  10.530  0.9221  0.8639  0.0320
  110OSM    H4S11356   2.328   4.646  10.481 -0.5926  1.8826 -0.9244
  110OSM    C5S11357   2.253   4.448  10.499 -0.2966  0.0323  0.1556
  110OSM    H5S11358   2.179   4.384  10.549  0.1149 -0.4967  0.0947
  110OSM    C6S11359   2.343   4.395  10.385  0.7449 -0.0545  0.6374
  110OSM    H6S11360   2.449   4.395  10.418  1.0913 -2.4915 -0.3848
  110OSM    H6T11361   2.334   4.461  10.297  0.3349  1.8159  2.0547
  110OSM    C7S11362   2.293   4.258  10.329 -0.3040 -0.2939  0.2546
  110OSM    H7S11363   2.184   4.263  10.310  0.0292 -2.3629 -2.4224
  110OSM    H7T11364   2.301   4.172  10.398  1.8328 -0.9461 -0.7513
  110OSM    C8S11365   2.366   4.230  10.202 -0.5964 -0.2620  0.4343
  110OSM    H8S11366   2.341   4.310  10.129 -0.9713 -2.1724 -1.6115
  110OSM    H8T11367   2.315   4.141  10.160  0.0252 -1.0237  1.2785
  110OSM    C9S11368   2.522   4.219  10.211  0.3549  0.0203 -0.1753
  110OSM    H9S11369   2.538   4.154  10.300 -0.2378 -1.2723 -1.0043
  110OSM    H9T11370   2.555   4.324  10.227 -1.3262  0.5724 -0.1698
  110OSM   C10S11371   2.603   4.162  10.087  0.0219 -0.3967  0.1100
  110OSM   H10S11372   2.710   4.179  10.110  0.0291 -0.5221  0.1682
  110OSM   H10T11373   2.574   4.223   9.999  0.1196 -0.1477  0.2479
  110OSM   C11S11374   2.585   4.011  10.053  0.0862 -0.4926 -0.3968
  110OSM   H11S11375   2.479   3.986  10.034  1.0239 -3.5122 -2.0569
  110OSM   H11T11376   2.606   3.942  10.138  1.6729  1.3959  0.7788
  110OSM   C12S11377   2.664   3.960   9.932 -0.0705  0.5199  0.7491
  110OSM   H12S11378   2.632   3.855   9.914  1.2446  0.1561  0.5430
  110OSM   H12T11379   2.770   3.965   9.963  0.4090  0.4914 -0.8543
  110OSM   C13S11380   2.667   4.047   9.804  0.6342 -0.0240 -0.8941
  110OSM   H13S11381   2.740   4.127   9.831  0.2508 -0.8756  2.9479
  110OSM   H13T11382   2.567   4.093   9.790 -0.1821 -1.6801 -0.6486
  110OSM   C14S11383   2.696   3.975   9.678 -0.1132 -0.2613  0.5663
  110OSM   H14S11384   2.609   3.909   9.655  0.3454 -0.7925  0.3221
  110OSM   H14T11385   2.786   3.911   9.682  1.4117  1.8459  0.4417
  110OSM   C15S11386   2.697   4.068   9.550 -0.9320 -0.4339  0.2109
  110OSM   H15S11387   2.767   4.151   9.571 -1.1182 -0.6045  1.5518
  110OSM   H15T11388   2.592   4.100   9.529 -0.3943 -0.1561 -2.2230
  110OSM   C16S11389   2.731   3.989   9.414  0.1045 -0.4230  0.3472
  110OSM   H16S11390   2.689   4.055   9.335 -1.3897 -1.8903 -0.1133
  110OSM   H16T11391   2.682   3.889   9.415 -3.0493  1.0847  0.3602
  110OSM   C17S11392   2.879   3.965   9.400 -0.8465  0.2720 -0.2857
  110OSM   H17S11393   2.915   3.914   9.492 -0.2845  1.5017  0.1874
  110OSM   H17T11394   2.934   4.061   9.393  0.6983 -0.4666  1.3205
  110OSM   C18S11395   2.922   3.878   9.285  0.3583 -0.3526 -0.2114
  110OSM   H18S11396   3.032   3.877   9.275  0.3851 -0.3363  0.1062
  110OSM   H18T11397   2.881   3.923   9.192 -0.9921  0.4079  0.7314
  110OSM   H18U11398   2.879   3.777   9.298  3.0437 -1.3975  0.7492
  110OSM    C1F11399   1.947   4.783  10.348 -0.0326 -0.2050  0.6839
  110OSM     OF11400   1.957   4.905  10.353 -0.3045  0.0161 -0.3419
  110OSM    C2F11401   1.868   4.709  10.233 -0.1185  0.1966 -1.2497
  110OSM    H2F11402   1.762   4.697  10.264 -0.6416  0.1277 -3.0067
  110OSM    H2G11403   1.912   4.607  10.230  0.0833  0.2231  0.3249
  110OSM    C3F11404   1.863   4.763  10.085 -0.4202 -0.2990 -0.3694
  110OSM    H3F11405   1.967   4.775  10.048 -0.3738 -0.7961 -0.4018
  110OSM    H3G11406   1.817   4.864  10.082 -0.4370 -0.2355  1.4738
  110OSM    C4F11407   1.793   4.679   9.984  0.0839  0.1562  0.3167
  110OSM    H4F11408   1.684   4.660   9.999 -0.2629  2.2699  0.5858
  110OSM    H4G11409   1.842   4.579   9.977  0.4327  0.4473 -1.6903
  110OSM    C5F11410   1.800   4.728   9.837 -0.0058 -0.4566 -0.9044
  110OSM    H5F11411   1.904   4.755   9.811  0.3612 -0.5941  0.3875
  110OSM    H5G11412   1.734   4.817   9.842  3.2411  1.9802  0.8705
  110OSM    C6F11413   1.745   4.640   9.733 -0.2215 -0.0248 -0.3107
  110OSM    H6F11414   1.642   4.607   9.759 -0.8926  1.1642 -1.3600
  110OSM    H6G11415   1.819   4.558   9.733  1.3335  1.3350  1.4052
  110OSM    C7F11416   1.743   4.692   9.586 -0.3604 -0.2740 -0.5432
  110OSM    H7F11417   1.822   4.769   9.586  1.3046 -1.8741  2.4137
  110OSM    H7G11418   1.647   4.746   9.574  0.0913  0.2385 -1.9024
  110OSM    C8F11419   1.770   4.593   9.478  0.2795  0.7461  0.1812
  110OSM    H8F11420   1.702   4.506   9.486  0.8977  0.4111  2.2609
  110OSM    H8G11421   1.866   4.543   9.504  0.0066 -1.0864 -2.2143
  110OSM    C9F11422   1.778   4.651   9.334 -0.2625 -0.4639 -0.2825
  110OSM    H9F11423   1.703   4.725   9.301  0.8335  1.2632  1.0362
  110OSM   C10F11424   1.871   4.616   9.241 -0.0440 -0.1451  1.1487
  110OSM   H10F11425   1.873   4.658   9.139 -0.7637 -1.9492  0.3823
  110OSM   C11F11426   1.968   4.501   9.268  0.1905 -0.5341  0.2448
  110OSM   H11F11427   1.913   4.415   9.313  1.3122 -0.5434  1.6301
  110OSM   H11G11428   2.037   4.538   9.347  1.0807  1.0025 -1.2281
  110OSM   C12F11429   2.049   4.466   9.138  0.4289 -0.0785  0.3817
  110OSM   H12F11430   2.141   4.411   9.164 -0.6464 -1.8255  0.5537
  110OSM   H12G11431   2.088   4.552   9.079 -0.4542  1.1134  1.4736
  110OSM   C13F11432   1.970   4.394   9.031 -0.4514 -0.0752 -0.0026
  110OSM   H13F11433   1.886   4.457   8.995 -0.7672  1.2169  2.8674
  110OSM   H13G11434   1.930   4.300   9.075  2.0699 -1.2142 -0.0338
  110OSM   C14F11435   2.050   4.368   8.913  0.1367  0.1973  0.6980
  110OSM   H14F11436   2.146   4.329   8.953 -0.6236 -2.4613  0.0329
  110OSM   H14G11437   2.050   4.457   8.846  0.5463 -0.0088  0.4193
  110OSM   C15F11438   1.984   4.247   8.831  0.2565  0.0433 -0.8486
  110OSM   H15F11439   1.984   4.161   8.901  1.7730  0.5730 -0.1687
  110OSM   H15G11440   2.064   4.222   8.758 -0.5100  1.2897 -2.1271
  110OSM   C16F11441   1.846   4.284   8.771 -0.3759 -1.2284  0.4513
  110OSM   H16F11442   1.769   4.307   8.848 -1.8403 -2.0495 -0.7388
  110OSM   H16G11443   1.805   4.201   8.710 -0.5014 -0.4786 -0.4905
  110OSM   C17F11444   1.844   4.411   8.677 -0.8293 -0.4221  0.9643
  110OSM   H17F11445   1.939   4.427   8.623 -1.0127  1.0505  1.0598
  110OSM   H17G11446   1.844   4.507   8.733  4.5937  0.3483 -0.1123
  110OSM   C18F11447   1.718   4.417   8.584 -0.6276 -0.1291  0.1830
  110OSM   H18F11448   1.727   4.349   8.497  0.5217  0.2554 -0.0109
  110OSM   H18G11449   1.711   4.519   8.539 -2.6063 -0.3563 -0.0677
  110OSM   H18H11450   1.631   4.384   8.644 -0.3394 -1.8262 -0.2969
  111OSM      N11451   2.957   1.541  11.236  0.2033  0.4121 -0.5710
  111OSM    C1511452   3.090   1.603  11.278 -0.0001 -0.2507 -0.0712
  111OSM   H15A11453   3.167   1.529  11.289 -0.6024 -1.6455 -4.4862
  111OSM   H15B11454   3.079   1.644  11.378  0.2032  0.1331 -0.2052
  111OSM   H15C11455   3.110   1.687  11.214 -3.4173 -1.2918 -2.6701
  111OSM    C1411456   2.919   1.449  11.346  0.3686 -0.2831 -0.3985
  111OSM   H14A11457   2.899   1.501  11.438  1.0078  2.2281 -1.6415
  111OSM   H14B11458   2.992   1.371  11.362 -1.5317 -1.9205  0.6680
  111OSM   H14C11459   2.825   1.400  11.323  1.4036 -1.9368 -1.1861
  111OSM    C1311460   2.851   1.642  11.234  0.0815 -0.1628  0.2381
  111OSM   H13A11461   2.846   1.696  11.328 -1.5586  0.2888 -0.0886
  111OSM   H13B11462   2.760   1.598  11.196 -1.2615  1.7842  1.0948
  111OSM   H13C11463   2.862   1.713  11.154  0.0051  0.1910  0.5445
  111OSM    C1211464   2.965   1.460  11.115 -0.2767 -0.3099  0.6470
  111OSM   H12A11465   2.869   1.410  11.113  0.9253 -2.6367 -0.2581
  111OSM   H12B11466   3.044   1.387  11.114 -1.8372 -2.0091  0.1775
  111OSM    C1111467   2.976   1.549  10.982 -0.1510  0.8249 -0.3299
  111OSM   H11A11468   2.886   1.610  10.957 -0.3830  0.6392  0.0520
  111OSM   H11B11469   2.971   1.470  10.904  0.6288 -1.8972  2.3037
  111OSM      P11470   3.127   1.756  10.928 -0.4505 -0.1677  0.0173
  111OSM    O1311471   3.099   1.852  11.039  0.2985  0.5076 -0.4249
  111OSM    O1411472   3.263   1.765  10.872 -0.1002  0.7440  0.8090
  111OSM    O1111473   3.028   1.784  10.810 -0.3797 -0.5408 -0.2045
  111OSM    O1211474   3.099   1.613  10.961 -0.0709  0.4962 -1.1549
  111OSM    C1S11475   3.063   1.715  10.679 -0.3051 -0.4279  0.4477
  111OSM    H1S11476   3.045   1.606  10.688 -1.2880 -0.3909 -0.9044
  111OSM    H1T11477   3.172   1.720  10.659 -0.6537  0.0650 -1.4697
  111OSM     NF11478   3.033   1.728  10.418 -0.8916  0.2816 -0.0411
  111OSM    HNF11479   3.084   1.789  10.359  0.1594  0.3820  0.9571
  111OSM    C2S11480   2.986   1.782  10.549  0.6680  0.5868 -0.4045
  111OSM    H2S11481   2.880   1.753  10.557  0.7386  0.3620 -0.2882
  111OSM    C3S11482   3.000   1.942  10.559 -0.1831  0.5284 -0.6517
  111OSM    H3S11483   3.104   1.964  10.527  0.0995  0.0565 -0.0760
  111OSM     O311484   2.982   1.998  10.686  0.1170  0.0936  0.0111
  111OSM    HO311485   2.996   1.924  10.745 -0.0978  0.7078  0.8317
  111OSM    C4S11486   2.918   2.013  10.456 -0.4772  0.1275 -0.4619
  111OSM    H4S11487   2.969   2.025  10.360  0.0864 -0.2886 -0.2178
  111OSM    C5S11488   2.788   2.047  10.469 -0.6162 -0.6944  0.2704
  111OSM    H5S11489   2.729   2.016  10.557 -0.3896  0.9468  1.0177
  111OSM    C6S11490   2.702   2.127  10.363  0.5835  0.0572  0.0328
  111OSM    H6S11491   2.680   2.234  10.385  0.2300  0.0539 -0.3091
  111OSM    H6T11492   2.606   2.073  10.369  0.1449  0.7298 -0.8152
  111OSM    C7S11493   2.744   2.121  10.217 -0.8289  0.0910 -0.0274
  111OSM    H7S11494   2.834   2.184  10.203 -0.1528 -0.2997  2.3114
  111OSM    H7T11495   2.665   2.173  10.158 -0.4151 -0.9832 -1.5660
  111OSM    C8S11496   2.752   1.980  10.156  0.3334  0.0448 -0.1240
  111OSM    H8S11497   2.649   1.942  10.144  0.2876 -0.5251  1.9405
  111OSM    H8T11498   2.806   1.912  10.225 -3.5584 -1.0374  1.9855
  111OSM    C9S11499   2.804   1.975  10.007  0.7884 -0.5464  0.2758
  111OSM    H9S11500   2.816   1.874   9.962  0.1402 -0.4379 -0.1489
  111OSM    H9T11501   2.899   2.031  10.000  0.2470  0.2139 -1.3621
  111OSM   C10S11502   2.708   2.046   9.916 -0.9442 -0.2896  0.1666
  111OSM   H10S11503   2.682   2.147   9.954 -0.3326 -0.7717  1.9071
  111OSM   H10T11504   2.613   1.988   9.924 -2.1204  1.6037  0.2860
  111OSM   C11S11505   2.754   2.047   9.772  0.4501  0.2156 -0.5379
  111OSM   H11S11506   2.798   1.945   9.756  0.7789  0.2501  0.1443
  111OSM   H11T11507   2.841   2.116   9.772 -1.1522  2.2806  0.3732
  111OSM   C12S11508   2.650   2.086   9.672 -0.1101 -0.1687  0.2123
  111OSM   H12S11509   2.613   2.186   9.702 -1.8580 -0.5253 -0.6586
  111OSM   H12T11510   2.570   2.009   9.685 -1.5778  1.2670 -0.0570
  111OSM   C13S11511   2.709   2.093   9.530 -0.1487  0.1704  0.3801
  111OSM   H13S11512   2.752   1.994   9.505 -0.1287 -0.0123  1.1237
  111OSM   H13T11513   2.779   2.179   9.531 -0.0544  0.2983 -4.3582
  111OSM   C14S11514   2.612   2.138   9.419 -0.8330  0.2409 -0.6992
  111OSM   H14S11515   2.573   2.239   9.443  0.0043  0.7796 -1.5936
  111OSM   H14T11516   2.526   2.067   9.421 -0.7151  0.1249  0.5900
  111OSM   C15S11517   2.683   2.129   9.287  0.1135 -0.0456  0.2149
  111OSM   H15S11518   2.712   2.022   9.282  0.7842  0.1756 -0.8456
  111OSM   H15T11519   2.775   2.191   9.293 -1.7887  2.8620  0.1567
  111OSM   C16S11520   2.591   2.175   9.175  0.0610  0.5936  0.8558
  111OSM   H16S11521   2.564   2.282   9.176  2.1481  1.1776 -0.3947
  111OSM   H16T11522   2.500   2.112   9.188 -0.2926  1.3125  1.8893
  111OSM   C17S11523   2.643   2.141   9.039  0.4141  0.4106 -0.5531
  111OSM   H17S11524   2.560   2.161   8.968  0.3177  1.0924 -0.2457
  111OSM   H17T11525   2.644   2.030   9.047  1.5382  0.4436 -0.1430
  111OSM   C18S11526   2.781   2.183   9.001 -0.0417 -0.0371 -0.2474
  111OSM   H18S11527   2.839   2.225   9.086  1.0314 -1.1538 -0.4098
  111OSM   H18T11528   2.785   2.265   8.925 -0.6229  1.2245  1.0614
  111OSM   H18U11529   2.840   2.104   8.951 -0.6133  1.0060 -2.6265
  111OSM    C1F11530   3.007   1.608  10.367  0.2380  0.6808 -0.8843
  111OSM     OF11531   2.963   1.516  10.440 -0.0228  0.4027  0.5737
  111OSM    C2F11532   3.041   1.582  10.223 -0.5493 -0.5183  0.2297
  111OSM    H2F11533   3.054   1.473  10.205  2.8059  0.1397 -1.7527
  111OSM    H2G11534   3.139   1.625  10.196 -0.4307  0.5144  2.2957
  111OSM    C3F11535   2.932   1.641  10.137 -0.3598 -0.0926  0.3333
  111OSM    H3F11536   2.983   1.662  10.040 -0.1917  1.4328  0.7448
  111OSM    H3G11537   2.902   1.742  10.173 -0.7736  0.7398 -2.2090
  111OSM    C4F11538   2.816   1.551  10.118 -0.6728 -0.0005  0.9240
  111OSM    H4F11539   2.763   1.537  10.214 -0.2677  1.2439  1.3308
  111OSM    H4G11540   2.848   1.448  10.088 -1.1675  0.7171 -2.3190
  111OSM    C5F11541   2.713   1.598  10.015  0.0340 -0.1439  0.1415
  111OSM    H5F11542   2.660   1.686  10.056 -1.0931 -0.7296 -0.0616
  111OSM    H5G11543   2.640   1.515  10.016  2.1516 -2.0419  0.2131
  111OSM    C6F11544   2.766   1.606   9.868 -0.0836  0.1885  0.1687
  111OSM    H6F11545   2.816   1.509   9.844  4.5485  2.0012  1.8382
  111OSM    H6G11546   2.848   1.679   9.852 -2.1321  2.0331 -2.3492
  111OSM    C7F11547   2.658   1.652   9.771 -0.5592  0.4017  0.1645
  111OSM    H7F11548   2.608   1.744   9.809 -0.5704 -0.6173  2.7476
  111OSM    H7G11549   2.583   1.572   9.757 -1.5006  1.1521  0.8689
  111OSM    C8F11550   2.716   1.680   9.634 -0.5582 -1.1005 -0.6040
  111OSM    H8F11551   2.793   1.759   9.637  0.1442 -1.7673 -0.9801
  111OSM    H8G11552   2.637   1.731   9.576  0.9203  0.4999 -1.2332
  111OSM    C9F11553   2.764   1.550   9.577  0.1078  0.2205 -0.4628
  111OSM    H9F11554   2.738   1.460   9.635  1.2686 -0.0246 -0.2937
  111OSM   C10F11555   2.814   1.544   9.453  0.6094  0.7387 -0.9485
  111OSM   H10F11556   2.855   1.450   9.414 -1.2582 -0.6389  0.2674
  111OSM   C11F11557   2.824   1.662   9.362 -0.0047 -0.9803 -0.0826
  111OSM   H11F11558   2.912   1.654   9.295  0.8330  1.6461  0.6318
  111OSM   H11G11559   2.826   1.761   9.414 -0.0835  0.0347 -1.9741
  111OSM   C12F11560   2.708   1.667   9.261  0.1685 -0.2096 -0.3374
  111OSM   H12F11561   2.719   1.758   9.198 -1.4561  0.5522  0.4469
  111OSM   H12G11562   2.610   1.652   9.311  0.9397 -2.4691  0.5279
  111OSM   C13F11563   2.711   1.558   9.152 -0.1795 -0.1647 -0.0916
  111OSM   H13F11564   2.706   1.460   9.204  1.0042  1.0654  2.4468
  111OSM   H13G11565   2.810   1.571   9.105 -0.2634 -3.4731 -1.2657
  111OSM   C14F11566   2.614   1.577   9.042 -0.6999  0.4958  0.3717
  111OSM   H14F11567   2.630   1.684   9.017 -0.4531  0.7493  1.5683
  111OSM   H14G11568   2.512   1.555   9.079 -0.9150 -0.2857 -0.6735
  111OSM   C15F11569   2.644   1.495   8.912  0.2620 -0.2004  0.6488
  111OSM   H15F11570   2.659   1.387   8.934  0.0427 -0.2193  0.7060
  111OSM   H15G11571   2.742   1.512   8.863  0.4507 -2.3019  0.2640
  111OSM   C16F11572   2.538   1.514   8.800 -0.3214 -0.2990 -0.2972
  111OSM   H16F11573   2.545   1.615   8.755  1.8529 -0.7337 -0.9705
  111OSM   H16G11574   2.446   1.501   8.861 -0.0403  0.0004  0.1952
  111OSM   C17F11575   2.546   1.396   8.698  0.4434  0.7276 -1.0603
  111OSM   H17F11576   2.547   1.297   8.749  0.7968  0.4618 -1.5763
  111OSM   H17G11577   2.644   1.401   8.644 -0.0208 -0.4978 -2.0423
  111OSM   C18F11578   2.444   1.411   8.584 -0.5777 -1.1539  0.4838
  111OSM   H18F11579   2.348   1.385   8.634 -0.3985  0.1165  1.5190
  111OSM   H18G11580   2.454   1.333   8.505  0.9309 -1.0820  0.5885
  111OSM   H18H11581   2.444   1.512   8.539 -1.5411 -1.7723 -0.9503
  112OSM      N11582   3.297   5.658  11.028  0.5223 -0.0048  0.2185
  112OSM    C1511583   3.215   5.554  11.109 -0.6219 -0.5115 -0.3371
  112OSM   H15A11584   3.246   5.451  11.097 -1.5216 -0.8658  0.2997
  112OSM   H15B11585   3.114   5.554  11.070 -0.8407  1.5656  0.1731
  112OSM   H15C11586   3.223   5.576  11.215  1.6650 -0.2535 -0.5590
  112OSM    C1411587   3.258   5.794  11.075  0.0604  0.1223  0.5237
  112OSM   H14A11588   3.298   5.874  11.014  1.7502 -2.7937 -2.3620
  112OSM   H14B11589   3.295   5.807  11.176  3.5510 -1.5516 -0.4361
  112OSM   H14C11590   3.152   5.805  11.061  0.2133 -0.0425 -0.7978
  112OSM    C1311591   3.440   5.637  11.070 -0.2320  0.5730  0.8164
  112OSM   H13A11592   3.460   5.627  11.175  0.9929  0.9606  0.6270
  112OSM   H13B11593   3.503   5.711  11.022 -2.4461  0.7069 -2.0130
  112OSM   H13C11594   3.469   5.542  11.029  1.7186  3.1412 -4.2464
  112OSM    C1211595   3.285   5.636  10.877 -0.0785  0.2850 -0.7078
  112OSM   H12A11596   3.315   5.536  10.847  1.0721  0.6603 -0.8184
  112OSM   H12B11597   3.360   5.702  10.838  0.1570  0.1105 -0.5496
  112OSM    C1111598   3.152   5.665  10.806 -0.2626  0.1983  0.4378
  112OSM   H11A11599   3.168   5.647  10.698 -0.1766  1.3822  0.2546
  112OSM   H11B11600   3.132   5.773  10.819  1.3006  0.7385 -1.4642
  112OSM      P11601   3.006   5.434  10.814  0.0860 -0.3175  0.0362
  112OSM    O1311602   3.121   5.380  10.738  0.0240 -0.0399 -0.1867
  112OSM    O1411603   2.965   5.369  10.941  0.4168  0.3214 -0.5747
  112OSM    O1111604   2.888   5.450  10.716  0.0502  0.2609  0.3361
  112OSM    O1211605   3.042   5.586  10.842  0.7094  0.5207  0.0003
  112OSM    C1S11606   2.866   5.566  10.627  0.5074  0.2235  0.8768
  112OSM    H1S11607   2.956   5.622  10.596 -0.6344  0.2418 -2.6130
  112OSM    H1T11608   2.797   5.646  10.662  0.9351  0.8595  0.2694
  112OSM     NF11609   2.808   5.602  10.385 -0.1325  0.3681 -0.0420
  112OSM    HNF11610   2.733   5.667  10.374 -1.6077 -1.1667  0.8326
  112OSM    C2S11611   2.798   5.507  10.494 -0.5097 -0.1422  0.5315
  112OSM    H2S11612   2.864   5.418  10.482 -0.7213 -0.1526 -0.5750
  112OSM    C3S11613   2.651   5.466  10.518 -0.3677 -0.1013  0.0256
  112OSM    H3S11614   2.600   5.564  10.529 -1.8027 -0.8104 -0.1914
  112OSM     O311615   2.635   5.384  10.633  0.2555  0.1218 -0.2623
  112OSM    HO311616   2.724   5.389  10.670  0.3881  1.3936 -0.7077
  112OSM    C4S11617   2.617   5.385  10.396  1.1820  0.0267 -0.6599
  112OSM    H4S11618   2.660   5.286  10.416  1.0807  0.6014  2.6579
  112OSM    C5S11619   2.538   5.427  10.292 -0.3346 -0.2154  0.5108
  112OSM    H5S11620   2.513   5.533  10.277 -0.8976 -0.5773 -1.1117
  112OSM    C6S11621   2.496   5.342  10.174  0.5780  0.5134  0.4775
  112OSM    H6S11622   2.548   5.245  10.184  1.6928  0.8755 -1.6047
  112OSM    H6T11623   2.527   5.386  10.077 -0.2195 -2.3978 -1.1339
  112OSM    C7S11624   2.345   5.332  10.165 -0.0305  0.0969 -0.4518
  112OSM    H7S11625   2.292   5.430  10.167  0.1645  0.1784  3.7968
  112OSM    H7T11626   2.306   5.298  10.263 -2.3274  0.4389 -1.2050
  112OSM    C8S11627   2.286   5.227  10.060  0.3349  0.0986  0.3077
  112OSM    H8S11628   2.177   5.216  10.077  0.2302 -0.2961 -0.6059
  112OSM    H8T11629   2.341   5.131  10.068  1.2181  0.6678  1.2389
  112OSM    C9S11630   2.307   5.270   9.914 -0.0540  0.3272  0.3580
  112OSM    H9S11631   2.411   5.305   9.897 -0.3458  0.5447 -1.0486
  112OSM    H9T11632   2.247   5.361   9.894  2.3143  1.6064 -1.1867
  112OSM   C10S11633   2.273   5.152   9.827  0.3252  0.2186  0.6322
  112OSM   H10S11634   2.176   5.109   9.859  0.4893 -1.0446 -0.5160
  112OSM   H10T11635   2.347   5.072   9.849 -1.1475 -1.2121  0.4983
  112OSM   C11S11636   2.269   5.195   9.686  0.7138  0.1021 -0.8667
  112OSM   H11S11637   2.375   5.207   9.655  0.7453 -1.0134 -1.2003
  112OSM   H11T11638   2.209   5.286   9.666 -1.0383 -0.9956 -0.6930
  112OSM   C12S11639   2.215   5.074   9.602  0.3804  0.5323 -0.3806
  112OSM   H12S11640   2.108   5.060   9.627  0.2144  0.8672 -0.8920
  112OSM   H12T11641   2.283   4.989   9.625 -1.8696 -1.1054  0.3504
  112OSM   C13S11642   2.232   5.107   9.449 -0.1314 -0.0577  0.5514
  112OSM   H13S11643   2.334   5.132   9.412 -0.4058 -1.6315 -1.3198
  112OSM   H13T11644   2.169   5.198   9.439 -1.6735 -1.1786 -0.1043
  112OSM   C14S11645   2.181   4.998   9.354 -0.0045  0.3290  0.4395
  112OSM   H14S11646   2.075   4.973   9.377 -0.2285  0.0285 -0.8639
  112OSM   H14T11647   2.231   4.902   9.379  0.0897 -0.3669 -2.2112
  112OSM   C15S11648   2.192   5.031   9.208  0.4120  0.2722  0.2299
  112OSM   H15S11649   2.295   5.047   9.168 -0.2250 -0.0647 -1.6260
  112OSM   H15T11650   2.142   5.128   9.187  0.2210 -0.3764 -2.5180
  112OSM   C16S11651   2.140   4.925   9.108  0.1336  0.4087 -0.4929
  112OSM   H16S11652   2.051   4.977   9.068 -1.6426 -1.0701  1.3841
  112OSM   H16T11653   2.106   4.833   9.160 -0.2990  0.5819 -0.4695
  112OSM   C17S11654   2.228   4.888   8.997 -0.0952  0.2682  0.1411
  112OSM   H17S11655   2.311   4.825   9.036  1.2352  1.7389 -0.2335
  112OSM   H17T11656   2.273   4.978   8.949 -1.8153  1.3034  0.4257
  112OSM   C18S11657   2.145   4.816   8.886  0.5148  0.5249  0.2481
  112OSM   H18S11658   2.203   4.767   8.805 -1.4491  2.5639 -2.5033
  112OSM   H18T11659   2.072   4.888   8.843  1.3940  0.0513 -2.1268
  112OSM   H18U11660   2.082   4.736   8.931  1.2472 -1.2436 -1.7569
  112OSM    C1F11661   2.927   5.641  10.338 -0.4149 -0.5224 -0.0624
  112OSM     OF11662   3.024   5.566  10.339 -0.6060  0.2750 -0.2805
  112OSM    C2F11663   2.949   5.787  10.293  0.2419  1.1051  0.1562
  112OSM    H2F11664   2.996   5.843  10.377  0.0306  1.7251 -0.1306
  112OSM    H2G11665   2.851   5.838  10.280 -0.6870 -0.8226 -0.4455
  112OSM    C3F11666   3.044   5.799  10.166 -0.0864 -0.0692  0.6015
  112OSM    H3F11667   3.116   5.714  10.165 -1.3545 -1.1822 -0.6699
  112OSM    H3G11668   3.102   5.893  10.177  1.4996 -0.9056 -0.3371
  112OSM    C4F11669   2.969   5.793  10.033  0.8989 -0.0766 -0.1812
  112OSM    H4F11670   2.889   5.870  10.028  1.3258  0.3292 -0.8918
  112OSM    H4G11671   2.928   5.690  10.028  1.3547 -0.2442 -0.6220
  112OSM    C5F11672   3.063   5.808   9.914  0.0800 -0.2720 -0.2887
  112OSM    H5F11673   3.133   5.723   9.909 -0.5863 -0.7021 -3.9136
  112OSM    H5G11674   3.118   5.905   9.918 -2.1157  1.0315 -0.6156
  112OSM    C6F11675   2.988   5.807   9.780 -1.2774  0.2833  0.0272
  112OSM    H6F11676   2.949   5.704   9.772  0.1920 -0.3446  0.6350
  112OSM    H6G11677   3.059   5.805   9.695 -0.5407 -1.4226  0.6721
  112OSM    C7F11678   2.885   5.916   9.764  0.0374 -0.2614  0.8319
  112OSM    H7F11679   2.933   6.012   9.791  0.6809  0.0674 -1.4139
  112OSM    H7G11680   2.802   5.904   9.837 -2.0719  0.6215 -1.3817
  112OSM    C8F11681   2.818   5.917   9.625  0.8319 -0.3704  0.0409
  112OSM    H8F11682   2.771   5.817   9.608 -1.4423  1.0021 -2.1836
  112OSM    H8G11683   2.893   5.922   9.544 -0.3300 -1.0990 -1.1076
  112OSM    C9F11684   2.711   6.023   9.610 -1.1451 -0.7483 -0.1579
  112OSM    H9F11685   2.643   6.021   9.697 -0.7065 -1.5522  0.1764
  112OSM   C10F11686   2.694   6.105   9.509 -0.6382 -0.3747  0.0046
  112OSM   H10F11687   2.608   6.173   9.508  0.8997  1.6177  0.2703
  112OSM   C11F11688   2.769   6.121   9.377  0.5279 -0.4287 -0.1767
  112OSM   H11F11689   2.715   6.083   9.287 -0.7518 -1.2998  0.9390
  112OSM   H11G11690   2.866   6.069   9.391  0.8046  0.0825 -0.1989
  112OSM   C12F11691   2.782   6.274   9.355  0.4946 -0.3108 -0.5003
  112OSM   H12F11692   2.865   6.311   9.419 -0.5138  2.0193 -0.5131
  112OSM   H12G11693   2.690   6.331   9.376  1.3416  0.6121  0.7787
  112OSM   C13F11694   2.821   6.298   9.208 -0.4260  0.2390 -0.9313
  112OSM   H13F11695   2.917   6.247   9.188 -0.5383  0.7223 -2.7905
  112OSM   H13G11696   2.834   6.408   9.196 -2.2558  0.6933  0.9980
  112OSM   C14F11697   2.721   6.261   9.101 -0.7496  0.1951  0.2743
  112OSM   H14F11698   2.709   6.151   9.106 -0.9401  0.2691  1.5414
  112OSM   H14G11699   2.765   6.274   9.000 -1.8299 -0.4228 -0.2855
  112OSM   C15F11700   2.575   6.319   9.106  0.0112  0.0131  0.5294
  112OSM   H15F11701   2.527   6.279   9.198 -2.1834 -0.2946 -0.7106
  112OSM   H15G11702   2.502   6.282   9.031  0.5325  0.9598 -0.4514
  112OSM   C16F11703   2.568   6.474   9.090 -0.2452 -1.0237 -0.0791
  112OSM   H16F11704   2.600   6.515   9.188 -0.5680 -0.4090 -0.2363
  112OSM   H16G11705   2.467   6.512   9.067 -0.1197 -2.2911 -2.8948
  112OSM   C17F11706   2.667   6.530   8.981  0.2515  0.8750  0.7075
  112OSM   H17F11707   2.615   6.485   8.894  0.7097  0.4653  0.6460
  112OSM   H17G11708   2.769   6.486   8.983 -0.7475 -1.4861  0.4267
  112OSM   C18F11709   2.660   6.687   8.965  0.8089 -0.4904  0.3803
  112OSM   H18F11710   2.560   6.727   8.939 -0.0075 -1.8614  1.2832
  112OSM   H18G11711   2.742   6.715   8.896  0.5921 -2.2142 -0.6138
  112OSM   H18H11712   2.688   6.718   9.068 -2.2711  0.6002  0.9380
  113OSM      N11713   0.434   1.926  11.105 -0.4163  0.2429 -0.5353
  113OSM    C1511714   0.471   1.786  11.062 -0.0484 -0.4573 -0.4895
  113OSM   H15A11715   0.535   1.747  11.140  1.2270  1.3196 -0.6210
  113OSM   H15B11716   0.528   1.792  10.971 -0.4250  2.0553 -0.5866
  113OSM   H15C11717   0.384   1.724  11.044  1.0834 -1.4815 -2.4601
  113OSM    C1411718   0.348   1.913  11.230 -0.4580  0.1816  0.4990
  113OSM   H14A11719   0.339   2.006  11.285 -0.4921 -0.6285  1.8773
  113OSM   H14B11720   0.393   1.840  11.295  0.5446  0.9063  0.6291
  113OSM   H14C11721   0.246   1.885  11.207 -0.0359 -1.5300  0.6675
  113OSM    C1311722   0.553   2.002  11.148  0.1378 -0.1013  0.1738
  113OSM   H13A11723   0.516   2.092  11.195 -4.2318 -1.4533 -0.4354
  113OSM   H13B11724   0.612   2.014  11.058 -0.2212  0.2996 -0.0086
  113OSM   H13C11725   0.613   1.955  11.225 -0.8448 -0.4723  0.7249
  113OSM    C1211726   0.366   1.983  10.989 -0.2654 -0.4551  0.3980
  113OSM   H12A11727   0.308   2.070  11.018  0.3893  0.4134 -0.8629
  113OSM   H12B11728   0.289   1.918  10.952 -1.7054  1.0146  0.7321
  113OSM    C1111729   0.458   2.023  10.864 -0.2640 -0.0273 -0.2253
  113OSM   H11A11730   0.384   2.036  10.782 -2.0950 -0.7151  1.2541
  113OSM   H11B11731   0.507   1.926  10.842 -1.4517 -0.6079 -0.3492
  113OSM      P11732   0.464   2.272  10.949 -0.1014  0.0952  0.0622
  113OSM    O1311733   0.378   2.253  11.067 -0.4739 -0.9237 -0.1452
  113OSM    O1411734   0.568   2.375  10.961  0.0477  0.4509  0.3971
  113OSM    O1111735   0.370   2.321  10.835  0.2160  0.5998 -0.1971
  113OSM    O1211736   0.539   2.141  10.893  0.2114 -0.3587 -0.1283
  113OSM    C1S11737   0.437   2.383  10.725 -0.1131 -0.7841 -0.9084
  113OSM    H1S11738   0.473   2.307  10.653  0.5519  1.2449 -2.7583
  113OSM    H1T11739   0.531   2.437  10.748  0.8164 -1.7679 -2.3304
  113OSM     NF11740   0.397   2.546  10.536 -0.2694 -0.4253  0.1217
  113OSM    HNF11741   0.418   2.644  10.533  0.6367 -0.5750  1.3005
  113OSM    C2S11742   0.339   2.490  10.663  0.3671 -0.6288 -0.4839
  113OSM    H2S11743   0.240   2.443  10.646 -0.7788  1.4891  0.1722
  113OSM    C3S11744   0.303   2.598  10.775 -0.0053  0.9665  0.3193
  113OSM    H3S11745   0.398   2.646  10.807  0.3660  0.8677 -0.6062
  113OSM     O311746   0.236   2.546  10.887 -0.4833  0.4486  0.6621
  113OSM    HO311747   0.253   2.452  10.875  0.0071  0.5608  0.4207
  113OSM    C4S11748   0.207   2.702  10.715 -1.5912 -0.4073 -0.2580
  113OSM    H4S11749   0.121   2.651  10.669 -2.5964  1.6889 -0.7632
  113OSM    C5S11750   0.216   2.835  10.709 -0.0844  0.1889  0.6637
  113OSM    H5S11751   0.294   2.888  10.766 -0.8963 -0.6095  2.5595
  113OSM    C6S11752   0.114   2.930  10.648  0.1360  0.3116 -0.2954
  113OSM    H6S11753   0.118   3.024  10.706  2.0284  0.2983 -0.3637
  113OSM    H6T11754   0.008   2.898  10.653  0.6822 -1.4114  0.5457
  113OSM    C7S11755   0.147   2.972  10.504 -0.7185 -0.3024 -0.3882
  113OSM    H7S11756   0.129   2.885  10.438  3.1578 -1.1702 -0.4327
  113OSM    H7T11757   0.255   2.996  10.503 -0.7888  0.0314 -0.1577
  113OSM    C8S11758   0.071   3.101  10.453 -0.4609  0.1027 -0.6063
  113OSM    H8S11759   0.089   3.175  10.534 -1.6779 -0.4524  0.1910
  113OSM    H8T11760  -0.034   3.066  10.442 -0.1144 -1.5742  1.1503
  113OSM    C9S11761   0.123   3.159  10.326 -0.3736 -0.3109  0.6318
  113OSM    H9S11762   0.228   3.195  10.329 -0.5740  0.5594 -1.7488
  113OSM    H9T11763   0.058   3.246  10.303  1.8034  1.1114 -0.3114
  113OSM   C10S11764   0.106   3.059  10.205 -0.6980 -0.6428 -0.3621
  113OSM   H10S11765   0.019   2.997  10.234  0.3229 -1.7647  0.3343
  113OSM   H10T11766   0.199   2.998  10.203 -0.0021  0.4008 -0.0314
  113OSM   C11S11767   0.086   3.129  10.071  0.2657 -0.7069 -1.2114
  113OSM   H11S11768   0.162   3.210  10.069 -2.1630  1.7530  0.8143
  113OSM   H11T11769  -0.014   3.178  10.067  0.0395 -1.1993 -1.6411
  113OSM   C12S11770   0.094   3.048   9.941 -0.8476 -0.5447 -0.3487
  113OSM   H12S11771   0.013   2.972   9.945  0.4697 -1.8922  1.2881
  113OSM   H12T11772   0.190   2.993   9.931  0.8800  2.4476 -0.9236
  113OSM   C13S11773   0.076   3.147   9.829 -0.4056  0.3499  0.5482
  113OSM   H13S11774   0.164   3.215   9.827 -0.2742  0.1662 -0.1795
  113OSM   H13T11775  -0.020   3.203   9.840 -1.6434 -1.6207  0.0641
  113OSM   C14S11776   0.074   3.069   9.694  0.6616 -1.2687  0.1430
  113OSM   H14S11777  -0.007   2.993   9.703 -1.7811  1.1418 -0.6430
  113OSM   H14T11778   0.173   3.020   9.681  1.6146  0.3275  1.2655
  113OSM   C15S11779   0.040   3.159   9.573  0.0363  0.2856 -0.2522
  113OSM   H15S11780   0.098   3.251   9.593 -1.4767  0.7833  2.0766
  113OSM   H15T11781  -0.063   3.199   9.581  0.7047  1.9390  0.3345
  113OSM   C16S11782   0.070   3.104   9.428 -0.6632  0.0745 -0.1056
  113OSM   H16S11783  -0.002   3.022   9.408  0.6441 -0.7097 -1.7232
  113OSM   H16T11784   0.171   3.061   9.410 -0.3588  0.3855  0.8391
  113OSM   C17S11785   0.022   3.203   9.319 -0.3082 -0.0432  0.7541
  113OSM   H17S11786   0.072   3.300   9.337  0.9113 -0.7835  1.3915
  113OSM   H17T11787  -0.088   3.209   9.336 -0.1840  0.4805  1.3739
  113OSM   C18S11788   0.059   3.160   9.179 -0.0832 -0.0023 -0.1551
  113OSM   H18S11789   0.169   3.153   9.161 -0.1083 -2.6683  0.5754
  113OSM   H18T11790   0.040   3.229   9.093  2.3915  0.5066 -0.3378
  113OSM   H18U11791   0.027   3.056   9.157 -1.4039  0.3676  0.0053
  113OSM    C1F11792   0.434   2.474  10.433  0.4577 -0.5157  0.4978
  113OSM     OF11793   0.413   2.350  10.421 -0.1816  0.4382  0.6381
  113OSM    C2F11794   0.494   2.552  10.319  0.3430 -0.0568  0.6303
  113OSM    H2F11795   0.570   2.487  10.271 -0.0356 -0.6242  0.7892
  113OSM    H2G11796   0.539   2.647  10.353  0.0022  0.1958  0.3833
  113OSM    C3F11797   0.381   2.589  10.216  0.5252  0.4938 -0.3340
  113OSM    H3F11798   0.291   2.620  10.273  0.7143  0.5124 -0.0465
  113OSM    H3G11799   0.353   2.499  10.157 -0.2616 -0.5777  1.6385
  113OSM    C4F11800   0.418   2.710  10.128 -0.4715  0.2955  0.0336
  113OSM    H4F11801   0.513   2.693  10.072 -0.8679  1.3358 -0.9981
  113OSM    H4G11802   0.445   2.798  10.191  1.2175 -0.6617  0.6947
  113OSM    C5F11803   0.320   2.749  10.017  0.3612 -0.7944  0.7516
  113OSM    H5F11804   0.291   2.855  10.031  0.7469 -0.3826 -1.2895
  113OSM    H5G11805   0.222   2.699  10.031 -0.7974  1.1619 -0.1039
  113OSM    C6F11806   0.371   2.738   9.866 -0.2910  0.5437  0.1116
  113OSM    H6F11807   0.466   2.794   9.857 -0.0386  0.1064  0.0480
  113OSM    H6G11808   0.298   2.784   9.796 -0.3429  0.9667  0.4367
  113OSM    C7F11809   0.388   2.587   9.830 -0.4285  0.0331  0.4790
  113OSM    H7F11810   0.289   2.537   9.819 -0.1546  0.0825 -2.8716
  113OSM    H7G11811   0.453   2.540   9.908  2.1011  2.0587 -0.3367
  113OSM    C8F11812   0.465   2.569   9.699 -0.0980  0.8424  0.3593
  113OSM    H8F11813   0.495   2.462   9.706 -2.3857  0.3490  4.4962
  113OSM    H8G11814   0.554   2.633   9.718  1.8415 -1.7002  0.0464
  113OSM    C9F11815   0.393   2.610   9.571 -0.1257 -0.3180 -1.3351
  113OSM    H9F11816   0.341   2.707   9.579 -0.2351 -0.6259  3.2159
  113OSM   C10F11817   0.395   2.548   9.452  0.1364 -0.5246  0.1170
  113OSM   H10F11818   0.331   2.595   9.376 -0.0825  1.1834  1.3016
  113OSM   C11F11819   0.469   2.422   9.410  0.0927  0.3743 -0.0703
  113OSM   H11F11820   0.396   2.341   9.387 -0.7443  1.2075 -0.3927
  113OSM   H11G11821   0.537   2.385   9.489  2.2359  1.5513 -1.3293
  113OSM   C12F11822   0.551   2.439   9.280 -0.2235  0.4969  0.0990
  113OSM   H12F11823   0.633   2.514   9.287 -0.4425  0.8193 -0.7152
  113OSM   H12G11824   0.475   2.483   9.212  1.1574  1.8913 -0.5762
  113OSM   C13F11825   0.609   2.312   9.217  0.1640  1.0200  0.2788
  113OSM   H13F11826   0.532   2.249   9.168  2.7688 -1.1177 -1.1598
  113OSM   H13G11827   0.659   2.259   9.300  0.7286 -1.5543 -1.6550
  113OSM   C14F11828   0.727   2.325   9.118  0.5795 -0.1254  0.7109
  113OSM   H14F11829   0.758   2.224   9.083  1.5874 -0.5809  2.8800
  113OSM   H14G11830   0.809   2.369   9.178 -0.3612  1.3176  0.9696
  113OSM   C15F11831   0.697   2.420   9.003  0.2465 -0.4692 -0.0453
  113OSM   H15F11832   0.787   2.448   8.944  1.2866 -1.3273  1.0970
  113OSM   H15G11833   0.645   2.509   9.044  0.8298  0.7465 -1.8520
  113OSM   C16F11834   0.587   2.353   8.915 -0.1220 -1.2337  0.5910
  113OSM   H16F11835   0.482   2.359   8.950  0.1911 -0.7506  1.4684
  113OSM   H16G11836   0.619   2.248   8.905 -1.7820 -1.9814  2.6442
  113OSM   C17F11837   0.592   2.414   8.775 -0.2734 -0.0657 -0.4835
  113OSM   H17F11838   0.695   2.417   8.735 -0.3070 -0.0795 -0.5708
  113OSM   H17G11839   0.558   2.520   8.785 -5.0848 -1.4756 -0.3280
  113OSM   C18F11840   0.505   2.346   8.665  0.0045  0.5355 -0.5390
  113OSM   H18F11841   0.559   2.264   8.613  0.3476 -0.8266  1.8996
  113OSM   H18G11842   0.456   2.413   8.591 -2.1954 -0.4443  0.0162
  113OSM   H18H11843   0.425   2.290   8.717  2.9214 -2.3613  1.0265
  114OSM      N11844   2.126   5.318  11.386 -0.1137 -0.6656  0.2974
  114OSM    C1511845   2.172   5.384  11.515 -0.4121  0.0948  0.5731
  114OSM   H15A11846   2.244   5.459  11.489 -0.6558 -0.4598 -1.8554
  114OSM   H15B11847   2.207   5.303  11.577 -1.5733 -0.5419  0.4148
  114OSM   H15C11848   2.093   5.450  11.550  0.0304  0.1851  1.4001
  114OSM    C1411849   2.064   5.186  11.422  0.7565 -0.1165  0.4284
  114OSM   H14A11850   1.972   5.205  11.475 -0.6989  0.0941 -2.1218
  114OSM   H14B11851   2.137   5.120  11.465 -0.5283 -1.3908  0.7074
  114OSM   H14C11852   2.027   5.127  11.339  2.1717 -1.4391  0.7178
  114OSM    C1311853   2.028   5.408  11.314 -0.3255 -0.2487  0.4119
  114OSM   H13A11854   2.052   5.513  11.304  0.0329 -0.6343 -3.8125
  114OSM   H13B11855   1.936   5.406  11.371  0.4776 -1.8597  1.6955
  114OSM   H13C11856   1.993   5.365  11.221  0.9252 -1.2532  0.3931
  114OSM    C1211857   2.241   5.296  11.287 -0.0724 -0.3674 -0.4156
  114OSM   H12A11858   2.316   5.240  11.341 -1.5314 -1.3884  0.5837
  114OSM   H12B11859   2.292   5.389  11.269 -0.1034 -0.7403 -2.5675
  114OSM    C1111860   2.199   5.246  11.145 -0.0251  0.2993  0.1677
  114OSM   H11A11861   2.115   5.174  11.154 -0.3120  0.6007 -0.1026
  114OSM   H11B11862   2.273   5.190  11.084 -1.9867  0.4567 -2.4132
  114OSM      P11863   2.283   5.451  11.020  0.2465 -0.1561  0.4013
  114OSM    O1311864   2.218   5.581  10.988  0.4479  0.3972 -0.0437
  114OSM    O1411865   2.394   5.449  11.121 -0.1452  0.2215  0.1943
  114OSM    O1111866   2.337   5.390  10.894 -0.0729 -0.3520 -0.1571
  114OSM    O1211867   2.162   5.348  11.054 -0.2734  0.2670  0.5157
  114OSM    C1S11868   2.265   5.415  10.766  0.3498  0.0980 -0.5657
  114OSM    H1S11869   2.254   5.524  10.748 -0.0706  0.3129  0.8861
  114OSM    H1T11870   2.163   5.378  10.790  0.5662 -0.0346  0.1776
  114OSM     NF11871   2.216   5.377  10.536 -0.6817  0.3947  0.3231
  114OSM    HNF11872   2.137   5.321  10.510 -0.3211  0.3824 -0.7275
  114OSM    C2S11873   2.305   5.334  10.644  0.0658 -0.2050  0.5331
  114OSM    H2S11874   2.408   5.365  10.618 -0.0338 -0.5021 -0.2233
  114OSM    C3S11875   2.290   5.178  10.680 -0.3709 -0.3686 -0.3812
  114OSM    H3S11876   2.181   5.158  10.691 -0.2854 -0.0573  1.2243
  114OSM     O311877   2.350   5.143  10.806 -0.1113 -0.3619 -0.0624
  114OSM    HO311878   2.359   5.230  10.846 -2.0925 -0.2095  0.1430
  114OSM    C4S11879   2.343   5.098  10.558  0.9770  0.0036  0.2387
  114OSM    H4S11880   2.272   5.102  10.475  2.0657  0.7288 -0.6722
  114OSM    C5S11881   2.466   5.050  10.531 -0.2293 -0.0825 -0.0040
  114OSM    H5S11882   2.540   5.056  10.612 -0.4639  0.7493  0.1558
  114OSM    C6S11883   2.499   4.969  10.409 -0.3385 -0.3906  0.0877
  114OSM    H6S11884   2.573   4.890  10.436 -0.3082 -0.3129  0.2320
  114OSM    H6T11885   2.550   5.028  10.330 -0.8708  1.0786  0.8393
  114OSM    C7S11886   2.389   4.895  10.332  0.6520 -0.3017  0.1899
  114OSM    H7S11887   2.317   4.974  10.302  1.5396  0.1540 -0.7740
  114OSM    H7T11888   2.338   4.831  10.407 -1.2323  0.5854 -0.3026
  114OSM    C8S11889   2.436   4.825  10.209 -0.8492 -0.1965  0.0701
  114OSM    H8S11890   2.515   4.751  10.232 -0.7634  0.7651  3.0277
  114OSM    H8T11891   2.460   4.898  10.128  0.4410 -0.7586 -0.0687
  114OSM    C9S11892   2.309   4.764  10.134 -0.1543 -0.6139 -0.4064
  114OSM    H9S11893   2.224   4.836  10.137 -0.0118 -0.4706  0.1921
  114OSM    H9T11894   2.266   4.677  10.188 -0.7154  0.3719  0.7575
  114OSM   C10S11895   2.337   4.708   9.987 -0.2792 -0.2646  0.3543
  114OSM   H10S11896   2.411   4.625   9.986 -0.4881 -0.4509  0.4012
  114OSM   H10T11897   2.382   4.785   9.921 -1.6764 -0.3976 -0.7793
  114OSM   C11S11898   2.210   4.655   9.916 -0.5925 -0.2887  0.2535
  114OSM   H11S11899   2.152   4.741   9.876  1.2955  1.1376  0.4926
  114OSM   H11T11900   2.142   4.608   9.990  0.4834  0.6111  1.8347
  114OSM   C12S11901   2.241   4.557   9.798 -0.1481 -0.5272  0.0444
  114OSM   H12S11902   2.148   4.541   9.739 -0.5115  0.4031  0.3505
  114OSM   H12T11903   2.263   4.462   9.851 -2.3229 -2.2905 -2.1189
  114OSM   C13S11904   2.345   4.600   9.699  0.0910  0.1802 -0.0758
  114OSM   H13S11905   2.420   4.675   9.734 -1.5608  1.8893 -0.1295
  114OSM   H13T11906   2.300   4.650   9.610  0.2903  0.6322  0.0728
  114OSM   C14S11907   2.411   4.475   9.637 -0.0557 -0.4258 -0.0970
  114OSM   H14S11908   2.342   4.399   9.594 -2.2932  0.3533  1.9900
  114OSM   H14T11909   2.470   4.421   9.715 -1.3076 -1.5216  0.1259
  114OSM   C15S11910   2.506   4.499   9.516  0.4980 -0.1087  0.8088
  114OSM   H15S11911   2.586   4.423   9.528  0.4423 -0.4423 -0.7917
  114OSM   H15T11912   2.558   4.597   9.513  2.4613 -1.1662 -0.5169
  114OSM   C16S11913   2.442   4.465   9.383  0.2502  0.1925 -0.0529
  114OSM   H16S11914   2.338   4.505   9.375 -0.1574 -0.8917 -0.3885
  114OSM   H16T11915   2.422   4.360   9.350 -0.8047  0.4816 -0.3648
  114OSM   C17S11916   2.512   4.537   9.264  0.1087 -0.5111 -0.3453
  114OSM   H17S11917   2.481   4.499   9.164  1.0242  0.3255 -0.9486
  114OSM   H17T11918   2.619   4.509   9.259 -0.2542 -1.9298 -0.5354
  114OSM   C18S11919   2.487   4.686   9.251  0.5824  0.0474 -0.0330
  114OSM   H18S11920   2.554   4.748   9.316  2.4113 -0.3638 -1.4886
  114OSM   H18T11921   2.383   4.719   9.271  0.8347  2.1016 -1.9443
  114OSM   H18U11922   2.507   4.726   9.149 -1.0178 -0.9728 -0.7569
  114OSM    C1F11923   2.217   5.506  10.487 -0.0524 -0.3043  0.0810
  114OSM     OF11924   2.290   5.599  10.525 -0.1875  0.0205 -0.1408
  114OSM    C2F11925   2.108   5.536  10.394  0.5046 -0.1505  0.3892
  114OSM    H2F11926   2.009   5.535  10.443 -0.5680  1.5760 -1.6727
  114OSM    H2G11927   2.112   5.448  10.326 -0.8781 -0.5740  0.8307
  114OSM    C3F11928   2.128   5.673  10.313 -0.1935  0.1312 -1.0836
  114OSM    H3F11929   2.237   5.680  10.294 -0.0712 -0.9266 -0.7930
  114OSM    H3G11930   2.112   5.747  10.394 -1.9640 -0.6908 -0.6560
  114OSM    C4F11931   2.049   5.703  10.181  0.3901 -0.8043 -0.3196
  114OSM    H4F11932   2.092   5.797  10.141  1.7773 -0.4935  1.8087
  114OSM    H4G11933   1.940   5.709  10.199  0.9420  1.6636  2.5905
  114OSM    C5F11934   2.082   5.606  10.071  0.0608 -0.8732  0.2554
  114OSM    H5F11935   2.056   5.502  10.100 -4.3208  0.3322  0.9209
  114OSM    H5G11936   2.190   5.605  10.042  0.2003 -1.7014  0.7889
  114OSM    C6F11937   1.998   5.630   9.942 -0.2130  0.2979  0.6289
  114OSM    H6F11938   2.017   5.735   9.911 -0.4437  0.6148  1.5332
  114OSM    H6G11939   1.887   5.621   9.952 -0.5992  0.2624 -3.0713
  114OSM    C7F11940   2.039   5.529   9.837  0.9047  0.3056  0.1941
  114OSM    H7F11941   2.029   5.426   9.877 -1.7689  1.4404  2.6120
  114OSM    H7G11942   2.143   5.552   9.803  0.0392 -0.7573 -3.3880
  114OSM    C8F11943   1.937   5.535   9.714  0.0821 -0.3384  0.0563
  114OSM    H8F11944   1.837   5.563   9.754  0.8269 -1.2433  2.6574
  114OSM    H8G11945   1.926   5.446   9.649 -0.8499 -0.3333  0.1985
  114OSM    C9F11946   1.976   5.652   9.633 -0.8832 -0.4795 -0.3058
  114OSM    H9F11947   2.049   5.711   9.690 -2.2070  1.1310 -0.2154
  114OSM   C10F11948   1.941   5.693   9.516 -1.0344 -1.1045 -0.0251
  114OSM   H10F11949   1.980   5.789   9.477  0.0925 -1.3092  0.5828
  114OSM   C11F11950   1.849   5.635   9.421  1.1487 -0.0798  0.4194
  114OSM   H11F11951   1.762   5.704   9.428  0.7240 -0.3773 -1.6006
  114OSM   H11G11952   1.800   5.542   9.458 -1.2521  0.1853 -1.9436
  114OSM   C12F11953   1.899   5.620   9.278 -0.8058  0.0016 -0.5233
  114OSM   H12F11954   1.910   5.716   9.223  0.0162 -1.4841 -2.9752
  114OSM   H12G11955   1.819   5.571   9.219 -0.2777 -2.6605  0.8884
  114OSM   C13F11956   2.026   5.532   9.269  1.3506 -0.1852 -0.2598
  114OSM   H13F11957   1.993   5.438   9.318 -1.1793  0.4678 -0.6574
  114OSM   H13G11958   2.110   5.573   9.328  0.6250 -1.5858  1.7914
  114OSM   C14F11959   2.060   5.520   9.122  0.6865 -0.3972 -0.0848
  114OSM   H14F11960   2.082   5.622   9.085  2.0437 -1.0735 -1.1980
  114OSM   H14G11961   1.975   5.480   9.062  1.6517 -2.5601 -0.0489
  114OSM   C15F11962   2.197   5.450   9.093  0.1430 -0.2810 -0.9163
  114OSM   H15F11963   2.203   5.355   9.150  0.4121 -0.1823 -0.7789
  114OSM   H15G11964   2.289   5.502   9.128 -1.0340  1.5158 -0.4153
  114OSM   C16F11965   2.234   5.424   8.946 -0.4687 -0.1342  0.3622
  114OSM   H16F11966   2.345   5.429   8.943 -0.4623 -0.3626  0.1635
  114OSM   H16G11967   2.192   5.516   8.900  0.1434  0.9886  2.0056
  114OSM   C17F11968   2.173   5.298   8.881 -0.7372  0.5987 -0.5697
  114OSM   H17F11969   2.062   5.293   8.885 -0.6997  0.0953 -0.0736
  114OSM   H17G11970   2.206   5.207   8.936  3.2048  2.6088  0.6229
  114OSM   C18F11971   2.224   5.285   8.731  0.1059  0.4295  0.1189
  114OSM   H18F11972   2.198   5.182   8.701  0.5308 -0.0411  1.3076
  114OSM   H18G11973   2.335   5.286   8.732  0.1031  0.8764  1.6265
  114OSM   H18H11974   2.182   5.370   8.674  1.6372  1.3513  0.3370
  115OSM      N11975   6.476   5.182  11.350  0.1762 -0.1253  0.5051
  115OSM    C1511976   6.598   5.175  11.268  0.5000  0.0421 -0.2546
  115OSM   H15A11977   6.655   5.084  11.282  1.0120  0.4581  0.3832
  115OSM   H15B11978   6.655   5.267  11.278  1.3016 -0.6122  1.3345
  115OSM   H15C11979   6.569   5.169  11.164  0.0109  0.5716 -0.1494
  115OSM    C1411980   6.517   5.162  11.500  0.1645 -0.6346  0.7484
  115OSM   H14A11981   6.584   5.078  11.512 -1.3400 -1.8005  1.1062
  115OSM   H14B11982   6.433   5.155  11.568 -2.7401 -1.0094 -2.7688
  115OSM   H14C11983   6.580   5.243  11.534  0.7622 -1.3341  1.3446
  115OSM    C1311984   6.408   5.315  11.329 -0.1920  0.2894 -0.1825
  115OSM   H13A11985   6.462   5.400  11.367 -1.8218  1.1647  0.1814
  115OSM   H13B11986   6.311   5.325  11.373  0.3262 -1.3697  1.4072
  115OSM   H13C11987   6.389   5.334  11.224  0.3001 -0.1179 -0.3490
  115OSM    C1211988   6.374   5.076  11.311 -0.6328  0.9156 -0.9523
  115OSM   H12A11989   6.299   5.068  11.388  2.1098 -1.4867  1.5837
  115OSM   H12B11990   6.429   4.984  11.318 -2.0713  0.2516  2.9787
  115OSM    C1111991   6.305   5.086  11.175 -0.4051  0.6192 -0.3189
  115OSM   H11A11992   6.244   5.179  11.169  2.9898  2.8714 -1.0172
  115OSM   H11B11993   6.228   5.005  11.174 -0.7628  0.9493  0.0000
  115OSM      P11994   6.398   4.955  10.964 -0.2629  0.1996  0.0890
  115OSM    O1311995   6.474   4.998  10.846 -0.1073  0.5924 -0.1862
  115OSM    O1411996   6.459   4.845  11.045  0.3443 -0.0038 -0.9355
  115OSM    O1111997   6.253   4.917  10.924  0.5248 -0.1565  0.1939
  115OSM    O1211998   6.396   5.079  11.064  0.1728 -0.4625  0.2190
  115OSM    C1S11999   6.174   4.992  10.832  0.6053 -0.0050  0.3396
  115OSM    H1S12000   6.229   5.077  10.786 -1.3175  0.7869 -0.5384
  115OSM    H1T12001   6.084   5.040  10.874 -0.6258 -0.6465 -1.4925
  115OSM     NF12002   6.074   4.979  10.603  0.9704 -0.0019 -0.2184
  115OSM    HNF12003   5.976   4.999  10.598  1.0711  0.2168 -1.4856
  115OSM    C2S12004   6.127   4.897  10.713  0.1278 -0.3092 -0.0610
  115OSM    H2S12005   6.221   4.844  10.687 -0.2229 -1.1104  0.2674
  115OSM    C3S12006   6.023   4.800  10.765  0.4306 -0.7043 -0.7652
  115OSM    H3S12007   5.948   4.872  10.804 -0.7838 -2.5846  0.4413
  115OSM     O312008   6.076   4.723  10.876 -0.2158  0.9336 -0.9097
  115OSM    HO312009   6.151   4.776  10.905  1.5769 -1.7011 -0.6073
  115OSM    C4S12010   5.967   4.711  10.656  0.4131  0.4896 -0.4145
  115OSM    H4S12011   6.043   4.660  10.594 -1.3525 -2.8371  0.0480
  115OSM    C5S12012   5.840   4.679  10.632 -1.2369  0.8845 -0.4154
  115OSM    H5S12013   5.771   4.711  10.712 -1.2547  1.7643 -0.7724
  115OSM    C6S12014   5.777   4.585  10.534 -0.5651 -1.1006  0.3143
  115OSM    H6S12015   5.724   4.645  10.457  0.1406  0.6187  1.1394
  115OSM    H6T12016   5.703   4.518  10.583  0.1278 -1.0045  1.5112
  115OSM    C7S12017   5.880   4.510  10.452 -0.1350 -0.4028  0.1689
  115OSM    H7S12018   5.937   4.439  10.516 -2.0868 -1.1927  1.0695
  115OSM    H7T12019   5.947   4.584  10.404 -1.4525  1.4376  1.0875
  115OSM    C8S12020   5.820   4.437  10.331 -0.1632  0.6103  0.2013
  115OSM    H8S12021   5.726   4.385  10.361 -0.1918 -0.1138 -1.0959
  115OSM    H8T12022   5.890   4.353  10.309 -1.1357 -0.1307 -0.1094
  115OSM    C9S12023   5.780   4.521  10.208 -0.7014 -0.2272 -0.2635
  115OSM    H9S12024   5.871   4.577  10.180 -1.5228  1.7479  0.8541
  115OSM    H9T12025   5.696   4.582  10.248 -2.8995 -2.2997 -1.5559
  115OSM   C10S12026   5.722   4.433  10.093 -0.3704  0.4803 -0.3226
  115OSM   H10S12027   5.639   4.371  10.133  0.9323 -2.5953 -2.2444
  115OSM   H10T12028   5.800   4.369  10.047  0.4415  1.2453 -0.0294
  115OSM   C11S12029   5.677   4.530   9.984  0.0136  0.1664 -0.6682
  115OSM   H11S12030   5.768   4.584   9.953 -0.6784  0.8000 -1.6318
  115OSM   H11T12031   5.593   4.596  10.013  1.0040  1.4268 -0.6254
  115OSM   C12S12032   5.625   4.434   9.877  0.3893  0.1011 -0.2850
  115OSM   H12S12033   5.556   4.362   9.927  0.0922  0.6438  0.0908
  115OSM   H12T12034   5.705   4.371   9.832  0.5763  0.6406 -0.7124
  115OSM   C13S12035   5.548   4.501   9.761 -0.4602 -0.6816 -0.0591
  115OSM   H13S12036   5.612   4.563   9.695  0.4670  1.1068  2.4385
  115OSM   H13T12037   5.469   4.571   9.797 -0.7514 -1.7868  1.4715
  115OSM   C14S12038   5.469   4.406   9.680  0.9672 -0.1979  0.1948
  115OSM   H14S12039   5.387   4.371   9.745 -1.3029  1.0189 -1.9356
  115OSM   H14T12040   5.533   4.323   9.644  2.2358  0.2815  1.3012
  115OSM   C15S12041   5.394   4.466   9.567 -0.5693 -0.1211 -0.1768
  115OSM   H15S12042   5.373   4.573   9.589  0.8386  0.2345 -0.5540
  115OSM   H15T12043   5.291   4.422   9.566 -0.5377 -0.2223  0.4583
  115OSM   C16S12044   5.451   4.429   9.427  0.5207  1.1419  0.2888
  115OSM   H16S12045   5.400   4.484   9.346  1.8037  0.6338 -0.8759
  115OSM   H16T12046   5.446   4.318   9.415 -2.8408  1.0232  1.9544
  115OSM   C17S12047   5.597   4.463   9.410  1.4142  0.5408  0.0743
  115OSM   H17S12048   5.656   4.401   9.480 -2.2974 -1.8919  1.1879
  115OSM   H17T12049   5.605   4.571   9.433 -1.3144  1.4803 -2.9475
  115OSM   C18S12050   5.633   4.447   9.259  0.2774 -0.1206 -0.7909
  115OSM   H18S12051   5.744   4.440   9.252  0.5376  0.6578  2.1128
  115OSM   H18T12052   5.606   4.536   9.199  1.8030  1.2726  0.5629
  115OSM   H18U12053   5.600   4.348   9.220  0.5413 -0.1783 -0.8735
  115OSM    C1F12054   6.159   5.040  10.519  0.9711 -0.5292 -0.3702
  115OSM     OF12055   6.267   4.988  10.502 -0.6064 -0.4237  0.6306
  115OSM    C2F12056   6.114   5.165  10.446  0.6577  0.9150 -0.0136
  115OSM    H2F12057   6.175   5.251  10.484  1.2679 -0.2963  1.7994
  115OSM    H2G12058   6.009   5.185  10.474  0.7791 -0.0435  1.1480
  115OSM    C3F12059   6.128   5.149  10.296 -0.2675  0.7410 -0.5229
  115OSM    H3F12060   6.069   5.062  10.262 -0.8271  0.2493  1.6221
  115OSM    H3G12061   6.233   5.150  10.258 -0.4325  2.1951 -0.9868
  115OSM    C4F12062   6.065   5.271  10.226 -0.3361 -0.3522 -0.2200
  115OSM    H4F12063   6.123   5.359  10.260 -0.4006 -0.0348 -0.9173
  115OSM    H4G12064   5.960   5.301  10.247  0.0183  1.0486 -0.4272
  115OSM    C5F12065   6.089   5.277  10.074 -0.1720  0.1978 -0.7727
  115OSM    H5F12066   6.191   5.235  10.065  0.8643  2.6081 -0.7661
  115OSM    H5G12067   6.087   5.383  10.040 -2.0147 -0.0038 -1.3316
  115OSM    C6F12068   5.975   5.211   9.992  1.1174  1.1038  0.6454
  115OSM    H6F12069   5.880   5.254  10.030  1.3647  3.5905 -1.3847
  115OSM    H6G12070   5.959   5.102  10.005  2.0379  1.1733  2.6406
  115OSM    C7F12071   5.984   5.257   9.848  0.1653 -0.4706  0.3313
  115OSM    H7F12072   6.077   5.213   9.804 -1.0212 -1.4381 -1.2637
  115OSM    H7G12073   5.983   5.368   9.845 -1.8158 -0.5057 -1.0531
  115OSM    C8F12074   5.870   5.217   9.755  0.3392 -0.2651 -0.3451
  115OSM    H8F12075   5.781   5.273   9.791  0.1829 -0.0657 -1.0394
  115OSM    H8G12076   5.845   5.111   9.778 -2.3657  0.3300 -0.3660
  115OSM    C9F12077   5.912   5.231   9.613  0.2428 -0.0044  0.1112
  115OSM    H9F12078   6.014   5.201   9.583  0.0817 -0.3279 -0.1048
  115OSM   C10F12079   5.848   5.322   9.533  0.2761 -0.5737  0.6336
  115OSM   H10F12080   5.907   5.336   9.441  1.0486  0.5715  1.2941
  115OSM   C11F12081   5.728   5.401   9.560 -0.4964 -0.2915 -0.2271
  115OSM   H11F12082   5.664   5.360   9.640 -3.8660  0.5330 -2.4035
  115OSM   H11G12083   5.657   5.400   9.474 -2.2601 -0.5051  1.2191
  115OSM   C12F12084   5.775   5.547   9.604 -0.4143 -0.1190  0.8710
  115OSM   H12F12085   5.829   5.597   9.521  0.3233 -0.1535  1.3246
  115OSM   H12G12086   5.841   5.542   9.693 -0.0136 -0.1354  0.5790
  115OSM   C13F12087   5.655   5.633   9.644  0.0995 -0.2617 -0.1319
  115OSM   H13F12088   5.572   5.621   9.571 -0.2723 -0.1353  0.2742
  115OSM   H13G12089   5.689   5.738   9.637  0.0129 -0.3741 -2.9127
  115OSM   C14F12090   5.602   5.604   9.788 -0.1627 -0.2472 -0.1985
  115OSM   H14F12091   5.581   5.497   9.805 -2.4139 -0.0096 -1.3138
  115OSM   H14G12092   5.506   5.660   9.789  0.8449  1.5063  0.2982
  115OSM   C15F12093   5.688   5.655   9.905  0.2103  0.2313  0.1976
  115OSM   H15F12094   5.714   5.761   9.884 -0.5879  0.3517 -0.2339
  115OSM   H15G12095   5.779   5.595   9.921 -1.9398 -3.0013  0.8425
  115OSM   C16F12096   5.600   5.666  10.038 -0.1763 -0.0824 -0.4882
  115OSM   H16F12097   5.545   5.570  10.050  0.8961 -0.3213  2.8237
  115OSM   H16G12098   5.525   5.745  10.015 -0.2235  0.0745  0.2222
  115OSM   C17F12099   5.686   5.709  10.155  0.3709 -0.2421 -0.1461
  115OSM   H17F12100   5.736   5.806  10.131  0.9726 -0.5197 -0.0178
  115OSM   H17G12101   5.753   5.623  10.175 -0.8346 -0.8831  1.2197
  115OSM   C18F12102   5.613   5.738  10.287 -0.3679  0.5921 -0.2160
  115OSM   H18F12103   5.540   5.817  10.259  2.0708  1.8230 -3.4375
  115OSM   H18G12104   5.691   5.770  10.360 -0.2440  0.1908 -0.1715
  115OSM   H18H12105   5.555   5.650  10.321 -0.0574  0.2102 -0.6617
  116OSM      N12106   2.582   0.783  10.945  0.4076  0.0855 -0.1740
  116OSM    C1512107   2.640   0.814  11.080  0.5662  0.2831 -0.6086
  116OSM   H15A12108   2.657   0.728  11.143  3.2180  0.1351 -1.5020
  116OSM   H15B12109   2.578   0.875  11.145 -1.5334  0.1469 -2.4237
  116OSM   H15C12110   2.731   0.870  11.069 -0.4765  1.8788 -1.3331
  116OSM    C1412111   2.672   0.678  10.882 -0.0249 -0.5411 -0.7834
  116OSM   H14A12112   2.774   0.710  10.867 -0.0004 -1.3172 -2.3360
  116OSM   H14B12113   2.636   0.647  10.785 -2.8551 -1.2522  0.4265
  116OSM   H14C12114   2.665   0.586  10.939 -1.1508 -1.1288 -1.8438
  116OSM    C1312115   2.444   0.731  10.966 -0.8154 -0.1671  0.6267
  116OSM   H13A12116   2.444   0.644  11.029  1.0920 -2.7651 -2.7622
  116OSM   H13B12117   2.403   0.700  10.871  0.7313 -1.2700  0.3114
  116OSM   H13C12118   2.382   0.808  11.010  0.7994  1.3229  0.3622
  116OSM    C1212119   2.575   0.907  10.847  0.4753 -0.2335  0.7777
  116OSM   H12A12120   2.525   0.879  10.756 -0.1105  0.5509  0.8558
  116OSM   H12B12121   2.675   0.928  10.812 -0.0221 -0.3795 -0.7484
  116OSM    C1112122   2.506   1.042  10.897 -0.0399 -0.0396 -0.3640
  116OSM   H11A12123   2.405   1.005  10.926  0.1792 -1.8557 -1.8774
  116OSM   H11B12124   2.498   1.127  10.826  1.4062  0.1229 -0.3608
  116OSM      P12125   2.710   1.166  11.006  0.2426  0.3547  0.2758
  116OSM    O1312126   2.728   1.230  11.135  0.0822  0.1430 -0.1571
  116OSM    O1412127   2.820   1.074  10.981  0.7729  0.1321  0.0548
  116OSM    O1112128   2.708   1.268  10.890 -0.2935  0.0424  0.1352
  116OSM    O1212129   2.571   1.087  11.016  0.2634 -0.6090 -0.4648
  116OSM    C1S12130   2.782   1.256  10.766 -0.1993  0.3297 -0.6477
  116OSM    H1S12131   2.786   1.149  10.737  0.9208  0.9567 -2.8829
  116OSM    H1T12132   2.888   1.286  10.781 -0.6726  1.0968  1.3558
  116OSM     NF12133   2.758   1.310  10.527 -0.5919 -0.4240 -0.2687
  116OSM    HNF12134   2.819   1.384  10.499 -0.0363 -1.0751 -0.8069
  116OSM    C2S12135   2.699   1.333  10.662  0.3387  0.4433 -0.2486
  116OSM    H2S12136   2.593   1.300  10.662  0.9445 -1.5730  0.1925
  116OSM    C3S12137   2.690   1.487  10.695  0.1788  0.8314  0.3272
  116OSM    H3S12138   2.791   1.533  10.682 -0.9627  3.4186  0.2394
  116OSM     O312139   2.649   1.521  10.829  1.0928 -0.1401  0.3011
  116OSM    HO312140   2.649   1.432  10.864 -0.6525 -0.4761 -0.4743
  116OSM    C4S12141   2.592   1.553  10.596  0.5168 -0.1708 -0.0191
  116OSM    H4S12142   2.498   1.499  10.581  1.0703 -1.4210  0.9035
  116OSM    C5S12143   2.593   1.682  10.552 -0.3423  0.4527  0.5809
  116OSM    H5S12144   2.681   1.741  10.581 -0.9474  1.7692 -0.1933
  116OSM    C6S12145   2.490   1.750  10.471  0.4461  0.2394  0.3428
  116OSM    H6S12146   2.490   1.857  10.502 -0.8834  1.0706 -2.2991
  116OSM    H6T12147   2.384   1.720  10.487  0.9198 -2.4164 -1.2706
  116OSM    C7S12148   2.515   1.756  10.315  0.1277 -0.2622 -0.5063
  116OSM    H7S12149   2.543   1.652  10.289 -1.8562 -0.5208 -1.7467
  116OSM    H7T12150   2.607   1.817  10.303 -0.2220  0.2604 -0.5369
  116OSM    C8S12151   2.403   1.821  10.231 -0.1911  0.5059 -0.1049
  116OSM    H8S12152   2.412   1.931  10.226  1.3211  0.4664  1.2538
  116OSM    H8T12153   2.317   1.809  10.299 -0.5954 -0.5097 -0.7817
  116OSM    C9S12154   2.379   1.771  10.094  0.1038  0.0282  0.1349
  116OSM    H9S12155   2.391   1.661  10.092 -1.4357 -0.1311 -1.6258
  116OSM    H9T12156   2.464   1.816  10.037 -0.3323 -1.3004 -1.5835
  116OSM   C10S12157   2.236   1.798  10.039  0.5249  0.2581 -0.1982
  116OSM   H10S12158   2.218   1.907  10.032  2.8350  0.7616  0.9715
  116OSM   H10T12159   2.158   1.752  10.103  1.8456 -0.7758  0.7193
  116OSM   C11S12160   2.214   1.726   9.902 -0.6567  0.6369 -0.4456
  116OSM   H11S12161   2.104   1.713   9.905 -0.3163 -2.2438  1.6972
  116OSM   H11T12162   2.258   1.624   9.906 -0.5481  0.7344  1.0751
  116OSM   C12S12163   2.284   1.807   9.791 -0.0315  0.1377 -0.3546
  116OSM   H12S12164   2.393   1.819   9.810  0.6619 -3.0097 -2.1091
  116OSM   H12T12165   2.246   1.911   9.795 -0.8962 -0.1221 -1.6364
  116OSM   C13S12166   2.279   1.739   9.659  0.2846 -0.0660  0.4474
  116OSM   H13S12167   2.172   1.713   9.644 -0.1332  1.5226  0.5740
  116OSM   H13T12168   2.341   1.647   9.659 -0.2908 -0.4674 -1.6812
  116OSM   C14S12169   2.333   1.829   9.546 -0.0604  0.3522  0.3903
  116OSM   H14S12170   2.443   1.841   9.558 -0.3409  0.7961  2.5660
  116OSM   H14T12171   2.283   1.928   9.548 -0.7199  0.0148  0.7024
  116OSM   C15S12172   2.308   1.759   9.403 -0.3470 -0.2192 -0.0875
  116OSM   H15S12173   2.199   1.744   9.387 -0.2882 -1.6810  0.8027
  116OSM   H15T12174   2.345   1.655   9.395 -0.0002 -0.2496  1.6196
  116OSM   C16S12175   2.367   1.843   9.286  0.0839  0.2764 -0.0033
  116OSM   H16S12176   2.478   1.857   9.282  0.3477 -1.4091  0.9294
  116OSM   H16T12177   2.318   1.942   9.292  0.8457  0.5692  1.9297
  116OSM   C17S12178   2.311   1.794   9.152  0.7080  0.5865 -0.4939
  116OSM   H17S12179   2.219   1.733   9.161  0.1531  1.3516 -0.9518
  116OSM   H17T12180   2.372   1.721   9.093  0.0581  0.5886 -1.1681
  116OSM   C18S12181   2.282   1.911   9.055 -0.1211  0.1763 -0.4425
  116OSM   H18S12182   2.267   1.863   8.956 -0.5481 -0.4411 -0.0862
  116OSM   H18T12183   2.376   1.970   9.054  0.7915 -1.0859  2.4049
  116OSM   H18U12184   2.198   1.970   9.096  1.4684 -0.3628  3.8751
  116OSM    C1F12185   2.742   1.198  10.455  0.4543  0.2553  0.1371
  116OSM     OF12186   2.687   1.096  10.501 -0.1629 -0.1293 -0.6660
  116OSM    C2F12187   2.795   1.207  10.309 -0.6244  0.4825  0.2168
  116OSM    H2F12188   2.898   1.246  10.326 -1.0425  1.6545  0.1066
  116OSM    H2G12189   2.726   1.278  10.258  0.1314  0.8498 -0.3131
  116OSM    C3F12190   2.792   1.070  10.227  0.3367 -1.4366 -0.4772
  116OSM    H3F12191   2.687   1.049  10.199 -1.1520  1.4144  2.5803
  116OSM    H3G12192   2.825   0.982  10.286 -0.5213 -0.4853  1.4896
  116OSM    C4F12193   2.874   1.082  10.095 -0.4094  0.3798 -0.6741
  116OSM    H4F12194   2.913   0.979  10.081 -0.4134  0.1539  0.8827
  116OSM    H4G12195   2.972   1.131  10.110 -0.8352  1.8812 -2.5851
  116OSM    C5F12196   2.800   1.131   9.966 -0.4776  0.3624 -0.7834
  116OSM    H5F12197   2.782   1.239   9.984 -1.6342 -0.0914  0.8904
  116OSM    H5G12198   2.696   1.091   9.966 -0.5370  0.4737  2.0034
  116OSM    C6F12199   2.865   1.114   9.826 -0.1316 -0.3596 -0.1759
  116OSM    H6F12200   2.840   1.015   9.782 -1.0313 -1.0336  1.7973
  116OSM    H6G12201   2.975   1.105   9.839 -0.5843 -2.2544  2.8564
  116OSM    C7F12202   2.844   1.213   9.720  0.5519 -0.7795  0.6031
  116OSM    H7F12203   2.884   1.314   9.744 -0.4223 -0.2131 -0.1252
  116OSM    H7G12204   2.733   1.224   9.717  0.7456  1.3304 -0.1908
  116OSM    C8F12205   2.904   1.182   9.577 -0.5869 -0.0934 -0.0119
  116OSM    H8F12206   3.013   1.173   9.596 -0.6530  0.1080  0.4464
  116OSM    H8G12207   2.891   1.269   9.509 -0.9012 -1.5095 -1.8358
  116OSM    C9F12208   2.863   1.052   9.510 -0.1484  0.4296 -0.2501
  116OSM    H9F12209   2.868   0.964   9.576  0.1926 -0.0463 -0.8988
  116OSM   C10F12210   2.818   1.035   9.383 -0.0811  0.3777 -0.3876
  116OSM   H10F12211   2.788   0.933   9.357 -3.2227  1.1706 -0.0713
  116OSM   C11F12212   2.813   1.148   9.277 -0.0457 -0.4613 -0.1438
  116OSM   H11F12213   2.911   1.146   9.224 -0.3148 -1.7999 -0.5950
  116OSM   H11G12214   2.815   1.249   9.324  4.3170  0.5557 -2.2905
  116OSM   C12F12215   2.685   1.132   9.194 -0.7238 -0.2944 -0.0908
  116OSM   H12F12216   2.659   1.232   9.152  0.0985 -0.2450 -0.4820
  116OSM   H12G12217   2.597   1.095   9.251 -0.3674 -1.7826 -0.4884
  116OSM   C13F12218   2.702   1.038   9.070  0.2016  0.2005 -0.5531
  116OSM   H13F12219   2.722   0.935   9.108  0.3278  0.6244  0.5338
  116OSM   H13G12220   2.790   1.063   9.008  1.6843 -0.6750  1.1526
  116OSM   C14F12221   2.586   1.028   8.961  0.1459 -0.7640  0.1480
  116OSM   H14F12222   2.549   1.129   8.933 -2.1149 -1.1549  1.5875
  116OSM   H14G12223   2.498   0.976   9.005  1.7180 -2.0110  1.8780
  116OSM   C15F12224   2.638   0.955   8.836  0.1683  0.2469 -0.1891
  116OSM   H15F12225   2.661   0.848   8.859  1.2339  0.0083 -2.2139
  116OSM   H15G12226   2.727   1.005   8.792 -0.3726  0.3579 -1.1715
  116OSM   C16F12227   2.537   0.953   8.718 -0.0847  0.0666  0.0203
  116OSM   H16F12228   2.526   1.061   8.691  1.3673  0.2593  0.1518
  116OSM   H16G12229   2.441   0.908   8.751 -0.2852  0.2599 -0.2922
  116OSM   C17F12230   2.586   0.872   8.587 -0.1197 -0.1733 -0.2171
  116OSM   H17F12231   2.504   0.864   8.512 -1.1220  2.2279  0.5695
  116OSM   H17G12232   2.607   0.768   8.621 -3.6831 -0.2671  2.0148
  116OSM   C18F12233   2.702   0.935   8.510  0.4465 -0.0560 -0.7152
  116OSM   H18F12234   2.734   0.866   8.428  2.3039  1.4894 -1.3377
  116OSM   H18G12235   2.791   0.961   8.572 -0.5550 -1.4606  1.3651
  116OSM   H18H12236   2.661   1.023   8.457  0.3053  1.9656  2.6234
  117OSM      N12237   6.756   2.315  11.195  0.1281 -0.0253 -0.1175
  117OSM    C1512238   6.616   2.287  11.153 -1.1382  0.2987  0.2949
  117OSM   H15A12239   6.561   2.234  11.229  0.6433 -2.3079 -0.1817
  117OSM   H15B12240   6.611   2.215  11.073  1.5012  0.5648 -0.1593
  117OSM   H15C12241   6.567   2.378  11.119 -1.3302 -0.7887 -2.4820
  117OSM    C1412242   6.746   2.398  11.322  0.6967 -0.3701  0.4163
  117OSM   H14A12243   6.846   2.418  11.358  0.8511  2.3044 -1.3614
  117OSM   H14B12244   6.686   2.353  11.399  1.7103 -0.4630  1.1677
  117OSM   H14C12245   6.697   2.493  11.306  0.2941 -0.8715 -1.4827
  117OSM    C1312246   6.818   2.184  11.234 -0.2315  0.0943  0.3091
  117OSM   H13A12247   6.810   2.115  11.152 -2.6751 -0.0391  0.6228
  117OSM   H13B12248   6.759   2.143  11.315 -0.8205 -0.4689 -0.4005
  117OSM   H13C12249   6.920   2.199  11.267  0.4796  0.6455 -2.0872
  117OSM    C1212250   6.839   2.361  11.079 -0.2137 -0.2800 -0.6422
  117OSM   H12A12251   6.944   2.343  11.097 -0.4421  1.8748  3.4135
  117OSM   H12B12252   6.811   2.463  11.061  1.4811  0.5274  1.1882
  117OSM    C1112253   6.809   2.287  10.948  0.3463  0.7134 -0.2292
  117OSM   H11A12254   6.868   2.330  10.864  1.2041 -1.4387 -0.7630
  117OSM   H11B12255   6.704   2.309  10.916 -0.0691  1.9263  1.8863
  117OSM      P12256   6.736   2.049  10.858 -0.1290 -0.0701  0.1243
  117OSM    O1312257   6.775   1.903  10.878  0.1605 -0.4738 -0.7075
  117OSM    O1412258   6.594   2.074  10.885  0.4319 -0.2187  0.2433
  117OSM    O1112259   6.775   2.094  10.707  0.4260 -0.2309 -0.6997
  117OSM    O1212260   6.816   2.142  10.950 -0.3113 -0.0644  0.2903
  117OSM    C1S12261   6.913   2.098  10.665  0.2420 -0.9613 -0.6330
  117OSM    H1S12262   6.970   2.011  10.704  0.6474 -1.1422 -1.6147
  117OSM    H1T12263   6.949   2.194  10.710  0.3425  0.1416 -3.0171
  117OSM     NF12264   7.060   2.093  10.474  0.6420  0.4084  0.3081
  117OSM    HNF12265   7.098   2.173  10.429 -0.7077  1.1867  0.5279
  117OSM    C2S12266   6.921   2.095  10.513 -0.1376 -0.6489 -0.1891
  117OSM    H2S12267   6.874   2.003  10.474  1.4142 -0.9937 -1.3001
  117OSM    C3S12268   6.852   2.229  10.462 -0.6688  0.0659 -0.3222
  117OSM    H3S12269   6.909   2.316  10.503 -1.4482  0.1342  0.6231
  117OSM     O312270   6.724   2.252  10.504 -0.3546 -0.4361 -0.2642
  117OSM    HO312271   6.729   2.194  10.581  1.0647 -0.8116 -0.6372
  117OSM    C4S12272   6.860   2.247  10.316 -0.0941  0.6357 -0.1176
  117OSM    H4S12273   6.956   2.295  10.291  0.7961 -0.4467  1.1826
  117OSM    C5S12274   6.769   2.216  10.221 -0.1723 -0.1512  0.4875
  117OSM    H5S12275   6.672   2.173  10.248 -0.5726  1.2690  1.3773
  117OSM    C6S12276   6.782   2.238  10.071  0.0084  0.2060 -0.4073
  117OSM    H6S12277   6.706   2.309  10.031  0.9517  0.6736 -1.3919
  117OSM    H6T12278   6.758   2.143  10.019 -1.1810  0.0092  0.4830
  117OSM    C7S12279   6.922   2.290  10.028 -0.2609 -0.3537 -0.2184
  117OSM    H7S12280   6.958   2.376  10.088  1.6529 -1.5099  0.3002
  117OSM    H7T12281   6.910   2.325   9.923 -1.0343  1.1343  0.3507
  117OSM    C8S12282   7.022   2.176  10.020  0.2549  0.0487 -0.3141
  117OSM    H8S12283   6.992   2.101   9.944  0.7802  0.1432 -0.6218
  117OSM    H8T12284   7.032   2.137  10.123  1.3140  4.3393  1.3311
  117OSM    C9S12285   7.155   2.233   9.976 -0.0734  0.2250  0.8733
  117OSM    H9S12286   7.208   2.301  10.046  0.1003 -2.4590  3.4120
  117OSM    H9T12287   7.149   2.285   9.878  1.9186 -0.6935  0.2520
  117OSM   C10S12288   7.261   2.120   9.953 -0.2546 -0.4724 -0.3784
  117OSM   H10S12289   7.211   2.046   9.887 -0.8573  1.0266 -1.6142
  117OSM   H10T12290   7.287   2.064  10.046 -1.1303 -0.3482 -0.0607
  117OSM   C11S12291   7.381   2.173   9.875  0.1481 -0.3096  0.3218
  117OSM   H11S12292   7.361   2.211   9.772  1.6133  0.9816  0.4860
  117OSM   H11T12293   7.448   2.085   9.867  0.2607 -0.2891  1.0581
  117OSM   C12S12294   7.463   2.283   9.948 -0.7902 -0.1736  0.4616
  117OSM   H12S12295   7.404   2.377   9.957  0.5812  0.9215 -1.6024
  117OSM   H12T12296   7.545   2.316   9.881 -2.9082  3.9873 -0.2491
  117OSM   C13S12297   7.522   2.233  10.082 -0.2861  0.0024  0.0080
  117OSM   H13S12298   7.563   2.130  10.070 -2.4630 -1.2196  2.5205
  117OSM   H13T12299   7.433   2.237  10.148  0.9293  0.0653  1.6737
  117OSM   C14S12300   7.623   2.328  10.142  0.2972  0.0118 -0.1831
  117OSM   H14S12301   7.581   2.431  10.151  2.6391  0.8036  2.5064
  117OSM   H14T12302   7.709   2.340  10.073 -1.1003  2.3086 -1.6053
  117OSM   C15S12303   7.672   2.288  10.284  1.0103 -0.2761 -0.1516
  117OSM   H15S12304   7.760   2.354  10.296 -0.8249  2.0937  0.7000
  117OSM   H15T12305   7.703   2.181  10.278  1.1532 -0.5628  4.4041
  117OSM   C16S12306   7.568   2.315  10.398 -0.1629 -0.4520  0.7085
  117OSM   H16S12307   7.470   2.295  10.351  0.5826  0.4706 -1.3079
  117OSM   H16T12308   7.582   2.419  10.436  0.2478 -0.4788  0.6388
  117OSM   C17S12309   7.579   2.227  10.520 -0.7968  0.0633 -0.8386
  117OSM   H17S12310   7.593   2.124  10.480 -3.9265 -1.1923  1.0510
  117OSM   H17T12311   7.487   2.209  10.581  0.6388  3.3615  2.4713
  117OSM   C18S12312   7.680   2.277  10.614  0.2492  0.2078 -0.2610
  117OSM   H18S12313   7.778   2.275  10.561  0.2400  1.9402 -0.3620
  117OSM   H18T12314   7.682   2.209  10.702  0.3684 -0.0749 -0.4790
  117OSM   H18U12315   7.664   2.384  10.638  1.4671  0.4636 -0.5449
  117OSM    C1F12316   7.140   1.991  10.492  0.3996 -0.3057  0.2225
  117OSM     OF12317   7.085   1.887  10.524 -0.3900 -0.4829  0.6200
  117OSM    C2F12318   7.285   2.010  10.480 -0.1554  0.4350 -0.4700
  117OSM    H2F12319   7.319   2.074  10.563 -0.8513  0.4441 -0.1871
  117OSM    H2G12320   7.315   2.067  10.389  1.9097  1.1045  0.6021
  117OSM    C3F12321   7.367   1.881  10.499 -0.0429 -0.5684 -0.6769
  117OSM    H3F12322   7.333   1.846  10.599  2.4427 -2.3654 -0.4187
  117OSM    H3G12323   7.475   1.908  10.510 -0.0180 -0.5571 -0.9654
  117OSM    C4F12324   7.357   1.787  10.381  0.2495 -0.2567  0.0939
  117OSM    H4F12325   7.258   1.737  10.386  0.8970 -1.4664  1.0789
  117OSM    H4G12326   7.431   1.705  10.388  0.3642 -0.3397 -1.9146
  117OSM    C5F12327   7.360   1.850  10.241  0.0198 -0.1042  0.0083
  117OSM    H5F12328   7.454   1.911  10.237  0.5835 -1.0030 -0.6067
  117OSM    H5G12329   7.270   1.914  10.227 -0.4929 -1.4331 -3.1633
  117OSM    C6F12330   7.359   1.748  10.133  0.6016  0.4078 -0.8071
  117OSM    H6F12331   7.262   1.696  10.122 -0.2482  1.8972 -0.3751
  117OSM    H6G12332   7.437   1.672  10.155  3.2177  3.1669 -0.2330
  117OSM    C7F12333   7.412   1.807   9.994  0.0268  0.1853  0.5650
  117OSM    H7F12334   7.511   1.859   9.994  0.4532 -0.6008  1.6228
  117OSM    H7G12335   7.341   1.885   9.962 -1.0910 -0.9381  0.2652
  117OSM    C8F12336   7.423   1.697   9.883  0.0399  0.5808 -1.0034
  117OSM    H8F12337   7.324   1.657   9.851  0.6201 -1.7155 -0.0059
  117OSM    H8G12338   7.467   1.609   9.934  0.7146  3.2024  3.1796
  117OSM    C9F12339   7.508   1.727   9.764 -0.8191  0.2743  0.0228
  117OSM    H9F12340   7.616   1.718   9.783 -1.0322  1.2331  1.8442
  117OSM   C10F12341   7.465   1.776   9.648 -0.1240  0.1563 -0.5612
  117OSM   H10F12342   7.540   1.799   9.571  0.0409  0.2805 -0.3614
  117OSM   C11F12343   7.325   1.811   9.599 -0.0874 -0.3677  0.4595
  117OSM   H11F12344   7.249   1.785   9.676  0.0149  0.7270  0.9428
  117OSM   H11G12345   7.308   1.748   9.509  1.5939  1.9404 -1.5515
  117OSM   C12F12346   7.325   1.956   9.553  1.0811 -0.0298 -0.4529
  117OSM   H12F12347   7.412   1.984   9.490  0.5291  0.0237 -1.2118
  117OSM   H12G12348   7.323   2.025   9.640  0.0013 -0.2839 -0.2670
  117OSM   C13F12349   7.194   1.990   9.475 -0.0946  0.3298 -0.5302
  117OSM   H13F12350   7.190   2.101   9.470  3.3608  0.5154 -0.1030
  117OSM   H13G12351   7.105   1.969   9.538  0.1368  0.4793 -0.1547
  117OSM   C14F12352   7.187   1.921   9.331 -0.3475 -0.1009 -0.8323
  117OSM   H14F12353   7.192   1.814   9.360 -2.2040  0.0194  0.0268
  117OSM   H14G12354   7.287   1.941   9.289  0.0026  2.0608  0.9017
  117OSM   C15F12355   7.054   1.940   9.251 -0.3721  0.1147  0.1307
  117OSM   H15F12356   7.044   2.046   9.219 -0.4394 -0.2504 -1.0884
  117OSM   H15G12357   6.984   1.914   9.333  0.8127  0.4882  1.2777
  117OSM   C16F12358   7.045   1.850   9.131 -0.0537  1.0035 -0.4514
  117OSM   H16F12359   6.948   1.867   9.081  0.6266  0.8499 -1.8631
  117OSM   H16G12360   7.050   1.750   9.179  1.5199  2.1977  2.0247
  117OSM   C17F12361   7.146   1.868   9.012  0.5810 -0.7862  0.3118
  117OSM   H17F12362   7.119   1.810   8.921  0.2046 -1.7828  1.0464
  117OSM   H17G12363   7.246   1.829   9.040  0.7725 -0.7054 -0.2482
  117OSM   C18F12364   7.169   2.016   8.964 -0.2811  0.0026 -1.0262
  117OSM   H18F12365   7.092   2.048   8.891 -1.3577 -1.1388 -0.4119
  117OSM   H18G12366   7.268   2.009   8.916  1.3043 -0.0892  2.1014
  117OSM   H18H12367   7.176   2.092   9.045 -0.1227 -0.6841 -0.3809
  118OSM      N12368   0.048   3.247  11.050  0.3763 -0.1048 -0.3358
  118OSM    C1512369   0.049   3.129  10.968 -0.9099 -0.1357  0.0358
  118OSM   H15A12370  -0.039   3.117  10.906 -2.4113  2.2894  1.6343
  118OSM   H15B12371   0.052   3.038  11.026  1.4230  0.3571  0.7341
  118OSM   H15C12372   0.128   3.134  10.894 -2.5105  0.2610 -1.6896
  118OSM    C1412373  -0.074   3.248  11.137 -0.1845 -0.8533 -0.2212
  118OSM   H14A12374  -0.074   3.178  11.219 -1.3360  0.1980  0.7051
  118OSM   H14B12375  -0.164   3.231  11.079  0.2753 -1.3194 -0.8060
  118OSM   H14C12376  -0.074   3.347  11.181  2.3122 -0.6572 -0.5595
  118OSM    C1312377   0.161   3.230  11.152  0.6570 -0.7285 -0.0493
  118OSM   H13A12378   0.158   3.311  11.222 -0.2926 -1.5523  0.8714
  118OSM   H13B12379   0.254   3.242  11.097  0.6404  0.7345  0.2320
  118OSM   H13C12380   0.158   3.134  11.200  0.4813 -0.5387  0.3166
  118OSM    C1212381   0.052   3.375  10.975 -0.4426  0.1486  0.4929
  118OSM   H12A12382   0.057   3.461  11.041  0.3459  0.9264 -0.5743
  118OSM   H12B12383  -0.044   3.382  10.926  0.0267 -1.4820 -0.6834
  118OSM    C1112384   0.167   3.411  10.872  0.2267  0.8923  0.2024
  118OSM   H11A12385   0.160   3.515  10.833 -0.2229  0.9216  0.3525
  118OSM   H11B12386   0.148   3.351  10.780  2.2843 -2.8044  2.0910
  118OSM      P12387   0.356   3.515  11.013  0.2304  0.4298  0.0993
  118OSM    O1312388   0.248   3.568  11.096 -0.3158 -0.2428  0.7270
  118OSM    O1412389   0.488   3.475  11.073  0.2650 -0.1426 -0.4500
  118OSM    O1112390   0.380   3.622  10.907 -0.2150 -0.2263  0.6184
  118OSM    O1212391   0.300   3.391  10.925  0.1219 -0.0669 -0.2545
  118OSM    C1S12392   0.462   3.590  10.792  0.2747  0.0610 -0.5195
  118OSM    H1S12393   0.510   3.490  10.798  0.3396  0.1958  1.9642
  118OSM    H1T12394   0.533   3.673  10.775 -1.3744  1.2028 -2.0376
  118OSM     NF12395   0.471   3.527  10.553 -0.5473 -0.0429 -0.6380
  118OSM    HNF12396   0.515   3.590  10.491  2.4318  1.3464  2.7009
  118OSM    C2S12397   0.387   3.583  10.659 -0.7138  0.6376  0.3162
  118OSM    H2S12398   0.310   3.506  10.678  0.9006 -0.3970  2.8990
  118OSM    C3S12399   0.323   3.721  10.623  0.0318 -0.5742 -0.5003
  118OSM    H3S12400   0.402   3.792  10.592 -0.7492 -0.2010 -1.6762
  118OSM     O312401   0.255   3.790  10.727 -0.0168 -0.1804 -0.0385
  118OSM    HO312402   0.289   3.760  10.812  1.2192  0.3702 -0.3225
  118OSM    C4S12403   0.230   3.704  10.508 -0.1381 -0.0176  0.1538
  118OSM    H4S12404   0.285   3.684  10.415 -0.4979 -1.8863  0.3281
  118OSM    C5S12405   0.099   3.687  10.517  0.0148  0.6796  0.2092
  118OSM    H5S12406   0.052   3.689  10.616  2.3694 -3.8838  1.5777
  118OSM    C6S12407   0.015   3.665  10.390 -0.0303 -0.0981 -0.1920
  118OSM    H6S12408   0.040   3.750  10.323  1.6722  1.3862  2.2451
  118OSM    H6T12409  -0.095   3.673  10.407  0.1075 -0.4213  0.8366
  118OSM    C7S12410   0.031   3.519  10.335  0.4045  0.2796  0.2361
  118OSM    H7S12411  -0.019   3.446  10.403  1.4318 -1.3454 -0.7275
  118OSM    H7T12412   0.139   3.494  10.336  0.3011 -0.2026  2.4251
  118OSM    C8S12413  -0.011   3.500  10.187 -0.0935  0.1059 -0.6556
  118OSM    H8S12414   0.026   3.402  10.151 -0.4913  0.4239 -1.9700
  118OSM    H8T12415   0.042   3.568  10.116 -1.4629  0.3668 -1.4373
  118OSM    C9S12416  -0.161   3.508  10.170 -0.0327 -0.4244 -0.6203
  118OSM    H9S12417  -0.185   3.616  10.174  0.0975 -0.4787  2.3361
  118OSM    H9T12418  -0.206   3.454  10.256  0.8038  1.6958  1.1757
  118OSM   C10S12419  -0.218   3.468  10.034  0.1726  0.3460 -0.2554
  118OSM   H10S12420  -0.326   3.492  10.039  0.1399  0.5997 -1.9481
  118OSM   H10T12421  -0.207   3.358  10.021  0.1401  0.4208 -0.9543
  118OSM   C11S12422  -0.160   3.544   9.913 -0.2055 -0.1305  0.6794
  118OSM   H11S12423  -0.055   3.517   9.889 -0.5645  2.2368 -4.1383
  118OSM   H11T12424  -0.166   3.649   9.947 -0.5080  0.3921 -0.9283
  118OSM   C12S12425  -0.230   3.531   9.773  0.5481  0.6688 -0.6780
  118OSM   H12S12426  -0.339   3.552   9.772 -0.2228 -2.9666 -0.3793
  118OSM   H12T12427  -0.220   3.423   9.748 -0.8446 -0.0425  1.6386
  118OSM   C13S12428  -0.170   3.602   9.649  0.1950 -0.4069  0.7613
  118OSM   H13S12429  -0.059   3.609   9.647  0.1335  0.4093  0.1078
  118OSM   H13T12430  -0.214   3.703   9.633 -1.4600 -1.3771 -1.1102
  118OSM   C14S12431  -0.207   3.513   9.527 -0.7117 -0.7989 -0.2289
  118OSM   H14S12432  -0.313   3.487   9.548  0.0697 -3.0916  1.0011
  118OSM   H14T12433  -0.148   3.420   9.529  0.9485  0.2519  0.4338
  118OSM   C15S12434  -0.214   3.586   9.390 -0.1849 -0.2895 -0.8066
  118OSM   H15S12435  -0.115   3.628   9.363 -0.9587  1.3221 -1.2454
  118OSM   H15T12436  -0.279   3.676   9.394  0.6258  0.2891 -0.5823
  118OSM   C16S12437  -0.267   3.488   9.276 -0.0914 -0.6744 -0.7031
  118OSM   H16S12438  -0.369   3.461   9.311 -0.1564  1.3971  0.7504
  118OSM   H16T12439  -0.202   3.398   9.283  0.6614 -0.0640  0.2963
  118OSM   C17S12440  -0.255   3.537   9.136 -0.2002  0.1943 -0.6114
  118OSM   H17S12441  -0.303   3.637   9.141 -0.3657  0.0589  0.4642
  118OSM   H17T12442  -0.307   3.470   9.064  1.5347 -2.6909  0.7553
  118OSM   C18S12443  -0.111   3.536   9.078 -1.0080  0.4169 -0.3369
  118OSM   H18S12444  -0.041   3.606   9.128 -0.9560  0.7474 -0.8749
  118OSM   H18T12445  -0.096   3.553   8.969  0.7381  0.2949 -0.1297
  118OSM   H18U12446  -0.074   3.436   9.109  2.3273  1.4696 -0.6487
  118OSM    C1F12447   0.499   3.392  10.557  0.5472 -0.0315  1.2906
  118OSM     OF12448   0.450   3.314  10.642 -0.7115 -0.0582 -0.0119
  118OSM    C2F12449   0.600   3.330  10.466  0.0926 -0.6249 -0.1981
  118OSM    H2F12450   0.687   3.317  10.534 -0.0922  0.3052  0.2360
  118OSM    H2G12451   0.625   3.397  10.380 -0.1808 -0.2518  0.0115
  118OSM    C3F12452   0.546   3.195  10.419 -0.6060  1.3714 -0.4869
  118OSM    H3F12453   0.442   3.203  10.381 -1.6011  0.5955  1.9245
  118OSM    H3G12454   0.544   3.120  10.501  0.1776  2.2384  0.3367
  118OSM    C4F12455   0.633   3.129  10.312 -0.5241 -0.1434  0.5173
  118OSM    H4F12456   0.580   3.033  10.297  0.7693 -0.7582 -0.2422
  118OSM    H4G12457   0.733   3.101  10.352  0.7722  0.5283 -2.1018
  118OSM    C5F12458   0.649   3.198  10.178  0.0489  0.8779  0.3955
  118OSM    H5F12459   0.748   3.163  10.141  0.3582  1.6087  0.5209
  118OSM    H5G12460   0.662   3.308  10.180 -2.0967  1.1900 -1.0709
  118OSM    C6F12461   0.533   3.164  10.080  0.2789 -0.1128 -0.4330
  118OSM    H6F12462   0.437   3.207  10.114  0.3250  0.7596 -1.3793
  118OSM    H6G12463   0.523   3.054  10.080 -1.2982  0.0146  0.5910
  118OSM    C7F12464   0.562   3.210   9.940 -0.6639 -0.2338 -0.0938
  118OSM    H7F12465   0.670   3.202   9.916 -0.6191  2.0049 -0.7717
  118OSM    H7G12466   0.543   3.319   9.953 -0.1233 -0.3007  1.3144
  118OSM    C8F12467   0.465   3.144   9.833 -0.7076 -0.4001 -0.6652
  118OSM    H8F12468   0.359   3.119   9.853 -0.2176 -0.6054  1.8187
  118OSM    H8G12469   0.521   3.048   9.818 -1.0967 -0.4959 -1.5572
  118OSM    C9F12470   0.482   3.228   9.710 -0.1319 -0.1926  0.5202
  118OSM    H9F12471   0.399   3.299   9.695  1.5550  2.0510  1.4506
  118OSM   C10F12472   0.565   3.202   9.608  0.6911  0.3951  0.2958
  118OSM   H10F12473   0.591   3.288   9.545 -1.3730  0.6433 -0.2320
  118OSM   C11F12474   0.670   3.097   9.619  0.0317 -0.0822  0.3200
  118OSM   H11F12475   0.700   3.064   9.721  0.6924 -1.7594 -0.4015
  118OSM   H11G12476   0.756   3.151   9.576  0.5972  0.2701  1.8475
  118OSM   C12F12477   0.639   2.972   9.540  0.0288 -0.1148  0.0754
  118OSM   H12F12478   0.536   2.943   9.572  0.1238  1.8435  2.3238
  118OSM   H12G12479   0.715   2.893   9.556  0.6217  0.3619 -0.3621
  118OSM   C13F12480   0.625   3.011   9.394  0.2873  0.5880  0.6321
  118OSM   H13F12481   0.724   2.988   9.349 -0.9650 -0.4882 -1.6392
  118OSM   H13G12482   0.603   3.119   9.375  0.6442  0.4445 -0.6616
  118OSM   C14F12483   0.521   2.923   9.324 -0.0537  0.4059  0.2784
  118OSM   H14F12484   0.422   2.942   9.370 -0.8218 -0.0447 -1.1493
  118OSM   H14G12485   0.532   2.816   9.353  0.4360  0.7524  1.4019
  118OSM   C15F12486   0.502   2.942   9.171 -0.4217 -0.2362 -0.2727
  118OSM   H15F12487   0.597   2.918   9.119 -0.4964  0.3153 -0.6679
  118OSM   H15G12488   0.472   3.046   9.145 -1.0232 -0.5001 -0.6570
  118OSM   C16F12489   0.384   2.854   9.128  0.0872  1.1461  0.2420
  118OSM   H16F12490   0.295   2.883   9.188 -0.0253  1.2035  0.0495
  118OSM   H16G12491   0.408   2.747   9.147 -4.2740 -0.0790 -0.4941
  118OSM   C17F12492   0.349   2.870   8.981  0.7215 -0.6466  0.6412
  118OSM   H17F12493   0.349   2.978   8.952 -3.7571 -0.8605 -0.5126
  118OSM   H17G12494   0.250   2.827   8.954  1.1336 -1.0193 -0.2895
  118OSM   C18F12495   0.448   2.801   8.892  0.4072 -0.2637 -0.1820
  118OSM   H18F12496   0.459   2.693   8.914  5.1101  0.6070  2.3694
  118OSM   H18G12497   0.543   2.858   8.900  0.3510  0.0998 -1.7785
  118OSM   H18H12498   0.408   2.814   8.789 -0.3189 -1.1909 -0.0224
  119OSM      N12499   1.007   2.588  11.184 -0.4812  0.7066  0.3660
  119OSM    C1512500   1.135   2.588  11.256 -0.0360 -0.2545 -0.2193
  119OSM   H15A12501   1.145   2.674  11.322 -0.2132 -1.7466  1.7839
  119OSM   H15B12502   1.216   2.591  11.185 -1.6648 -0.2057 -2.1155
  119OSM   H15C12503   1.151   2.504  11.322 -3.0229  0.1384  1.0981
  119OSM    C1412504   0.900   2.598  11.291 -0.4573 -0.0711  1.0827
  119OSM   H14A12505   0.894   2.503  11.341 -1.5526 -0.2433  0.6275
  119OSM   H14B12506   0.803   2.621  11.249 -0.6511 -2.4518  0.1506
  119OSM   H14C12507   0.923   2.674  11.365  4.5524  0.0335 -0.3619
  119OSM    C1312508   0.994   2.708  11.095 -0.0935 -0.2194 -0.3802
  119OSM   H13A12509   1.015   2.804  11.140  2.9706 -0.8936 -0.2669
  119OSM   H13B12510   0.896   2.720  11.051  1.0135 -0.0412 -2.8396
  119OSM   H13C12511   1.063   2.702  11.012  1.2129  0.6957  0.6245
  119OSM    C1212512   1.004   2.459  11.096  0.9681  0.2017 -0.6213
  119OSM   H12A12513   0.904   2.454  11.056  0.2391 -3.1241  1.3887
  119OSM   H12B12514   1.015   2.375  11.163  0.1484 -0.1618 -0.9331
  119OSM    C1112515   1.097   2.454  10.977 -0.7778 -0.2001  0.5049
  119OSM   H11A12516   1.058   2.522  10.898  0.1838  2.4424  2.2348
  119OSM   H11B12517   1.077   2.354  10.935  1.0354 -1.4973  2.5618
  119OSM      P12518   1.319   2.575  10.912  0.0615  0.3295 -0.0741
  119OSM    O1312519   1.225   2.661  10.834 -0.3439  0.2363  0.0683
  119OSM    O1412520   1.411   2.647  11.008 -0.2910 -0.3154 -0.0573
  119OSM    O1112521   1.396   2.481  10.808 -0.3101  0.4570  0.1609
  119OSM    O1212522   1.236   2.474  11.003 -0.1328 -0.0176  0.3991
  119OSM    C1S12523   1.394   2.339  10.808 -0.3148  0.3208 -0.2303
  119OSM    H1S12524   1.311   2.301  10.870  0.9420 -3.1981 -0.6216
  119OSM    H1T12525   1.492   2.290  10.828 -0.1828  0.8829  0.5323
  119OSM     NF12526   1.319   2.146  10.668 -0.4956  0.2337 -0.1825
  119OSM    HNF12527   1.381   2.088  10.616 -0.2353  0.7969 -0.5050
  119OSM    C2S12528   1.355   2.286  10.669 -0.0407 -0.1989  0.3191
  119OSM    H2S12529   1.259   2.335  10.640 -0.3170 -1.0683 -0.2717
  119OSM    C3S12530   1.469   2.335  10.569  0.0446 -0.3926 -0.1070
  119OSM    H3S12531   1.560   2.285  10.608  0.0226  0.9095  1.6365
  119OSM     O312532   1.491   2.480  10.559  0.4948 -1.0979 -0.0121
  119OSM    HO312533   1.446   2.512  10.637 -0.4677 -1.5865 -0.3710
  119OSM    C4S12534   1.441   2.281  10.432 -0.3780  0.2022 -0.3932
  119OSM    H4S12535   1.518   2.212  10.394  0.0750 -0.4400  1.6491
  119OSM    C5S12536   1.343   2.307  10.341 -0.1957 -0.1950 -0.6359
  119OSM    H5S12537   1.265   2.380  10.368  1.0795  0.2461  1.9488
  119OSM    C6S12538   1.327   2.257  10.204  0.5316  0.1954  0.1359
  119OSM    H6S12539   1.225   2.276  10.165  0.6233 -2.3353 -1.4708
  119OSM    H6T12540   1.338   2.147  10.196 -1.0417  0.0506 -0.1803
  119OSM    C7S12541   1.426   2.314  10.100 -0.2857 -0.1995  0.1748
  119OSM    H7S12542   1.533   2.299  10.128 -0.0801 -1.3986 -1.2236
  119OSM    H7T12543   1.408   2.423  10.093  1.1762 -0.0261 -1.0497
  119OSM    C8S12544   1.386   2.284   9.961  0.1531 -0.2605 -0.6583
  119OSM    H8S12545   1.275   2.281   9.957 -0.0650  1.4005  2.6662
  119OSM    H8T12546   1.396   2.176   9.935 -3.2841 -0.9038  0.4290
  119OSM    C9S12547   1.457   2.370   9.855 -0.2333  0.7115  0.5581
  119OSM    H9S12548   1.567   2.371   9.867 -0.1102 -2.8441  0.3143
  119OSM    H9T12549   1.419   2.474   9.864 -0.5335  0.7088 -0.5869
  119OSM   C10S12550   1.439   2.315   9.710 -0.2332 -0.1391 -1.0119
  119OSM   H10S12551   1.329   2.307   9.695  0.0393 -0.1741 -3.0401
  119OSM   H10T12552   1.489   2.216   9.705  0.1722 -0.1227  1.6255
  119OSM   C11S12553   1.507   2.402   9.603 -0.0123  0.5104 -0.4329
  119OSM   H11S12554   1.618   2.395   9.602 -0.0461  0.0229 -1.8099
  119OSM   H11T12555   1.487   2.506   9.639 -1.2816 -0.2179  1.0259
  119OSM   C12S12556   1.446   2.372   9.465  0.2894  0.4013  0.1002
  119OSM   H12S12557   1.335   2.366   9.475  0.3077  0.3785  0.2916
  119OSM   H12T12558   1.474   2.273   9.422  1.8677  1.3177 -1.0463
  119OSM   C13S12559   1.491   2.472   9.363 -0.2283 -0.2724 -0.2647
  119OSM   H13S12560   1.601   2.462   9.349  0.3125  2.0412  1.9058
  119OSM   H13T12561   1.459   2.570   9.404 -2.9645 -0.8328 -0.9355
  119OSM   C14S12562   1.426   2.444   9.219 -0.5316 -0.0809  0.7090
  119OSM   H14S12563   1.317   2.446   9.238 -0.4457  0.7217  1.1471
  119OSM   H14T12564   1.457   2.354   9.162 -0.3614  0.0339  0.6187
  119OSM   C15S12565   1.451   2.546   9.117 -0.4934  0.6556 -0.3685
  119OSM   H15S12566   1.558   2.537   9.086  0.0821 -0.7029  1.8884
  119OSM   H15T12567   1.419   2.643   9.160 -3.2331 -1.5429  2.8010
  119OSM   C16S12568   1.369   2.518   8.991  0.1731 -0.2243 -0.2213
  119OSM   H16S12569   1.260   2.521   9.012 -0.3842 -0.1517 -2.8898
  119OSM   H16T12570   1.387   2.415   8.953  0.1750 -1.2108  2.3786
  119OSM   C17S12571   1.409   2.614   8.875 -0.0152  1.1083  0.0244
  119OSM   H17S12572   1.378   2.570   8.777  0.4162  0.6658  0.0851
  119OSM   H17T12573   1.519   2.629   8.876  0.0662  1.2353 -3.8635
  119OSM   C18S12574   1.334   2.752   8.892 -0.0250 -0.5204  0.4367
  119OSM   H18S12575   1.381   2.822   8.964  0.1635  0.5764 -0.7284
  119OSM   H18T12576   1.226   2.744   8.912  0.2013 -1.1642  1.4162
  119OSM   H18U12577   1.339   2.806   8.795 -3.0428  0.0723  0.5860
  119OSM    C1F12578   1.219   2.093  10.739 -0.6574  0.7990  0.3315
  119OSM     OF12579   1.133   2.167  10.790 -0.8769 -0.3386 -0.6182
  119OSM    C2F12580   1.225   1.939  10.766  0.1165 -0.5791 -0.7895
  119OSM    H2F12581   1.238   1.927  10.876 -1.2329  0.9601 -0.4342
  119OSM    H2G12582   1.313   1.904  10.708  1.0411  1.9196 -0.9402
  119OSM    C3F12583   1.096   1.861  10.709  0.9721  0.4866 -0.1288
  119OSM    H3F12584   1.004   1.910  10.747 -0.7407 -0.9115 -2.3661
  119OSM    H3G12585   1.112   1.757  10.743  0.4941  0.8570  1.2307
  119OSM    C4F12586   1.084   1.856  10.553  0.6852 -0.0633 -0.0271
  119OSM    H4F12587   1.176   1.819  10.504  1.0467 -1.3101  1.5458
  119OSM    H4G12588   1.071   1.962  10.521  2.6749 -0.0618 -0.8627
  119OSM    C5F12589   0.974   1.759  10.499  0.4865  0.1002  0.0330
  119OSM    H5F12590   0.873   1.806  10.502  1.6139  2.5807  0.4612
  119OSM    H5G12591   0.980   1.659  10.547  1.4876  0.5798  0.9305
  119OSM    C6F12592   1.002   1.715  10.351 -0.4682  0.5842 -0.7407
  119OSM    H6F12593   0.919   1.646  10.325 -2.5266  2.7228 -0.0578
  119OSM    H6G12594   1.095   1.657  10.334  0.2497  1.1333  1.1670
  119OSM    C7F12595   0.993   1.831  10.252  0.6618  0.3776  0.2904
  119OSM    H7F12596   1.076   1.904  10.254  1.5442 -0.5140  5.2674
  119OSM    H7G12597   0.907   1.894  10.282  0.4383  0.0776  0.2923
  119OSM    C8F12598   0.970   1.788  10.105 -0.2266 -0.4878 -0.4881
  119OSM    H8F12599   0.929   1.883  10.062 -1.6017 -0.4027  0.9796
  119OSM    H8G12600   0.892   1.710  10.096 -0.7755  0.0648 -0.5703
  119OSM    C9F12601   1.107   1.750  10.035  1.2527  0.2906  0.9266
  119OSM    H9F12602   1.182   1.710  10.104  0.2907 -2.0223  0.7164
  119OSM   C10F12603   1.159   1.780   9.915 -0.4724 -0.6334  0.3518
  119OSM   H10F12604   1.255   1.737   9.883 -0.6740 -0.8313  0.0029
  119OSM   C11F12605   1.088   1.870   9.805  0.0067 -0.4897 -0.5096
  119OSM   H11F12606   0.979   1.856   9.821  0.1418 -2.1409 -0.9455
  119OSM   H11G12607   1.114   1.822   9.708  1.0382 -0.0245 -0.4696
  119OSM   C12F12608   1.126   2.020   9.805 -1.1795  0.0314 -0.6658
  119OSM   H12F12609   1.234   2.019   9.780 -1.2049 -0.9540 -0.7521
  119OSM   H12G12610   1.120   2.055   9.910  1.0206  0.1065 -0.5507
  119OSM   C13F12611   1.040   2.111   9.725 -0.2106 -0.3389 -0.3491
  119OSM   H13F12612   1.078   2.215   9.740 -1.8656 -0.0085  1.7377
  119OSM   H13G12613   0.932   2.114   9.752  0.3470  2.9476  1.9348
  119OSM   C14F12614   1.055   2.085   9.574  0.2890 -0.3615  0.3791
  119OSM   H14F12615   1.025   1.983   9.540 -0.0064 -1.2930  3.3594
  119OSM   H14G12616   1.158   2.096   9.533  0.3217  1.1603  0.8647
  119OSM   C15F12617   0.952   2.174   9.494  0.2241 -0.0870 -0.5338
  119OSM   H15F12618   0.944   2.281   9.522 -0.6545 -0.6620  1.5017
  119OSM   H15G12619   0.852   2.134   9.524  0.9444 -1.8527 -0.4483
  119OSM   C16F12620   0.964   2.157   9.337  0.1575  0.1205 -0.1467
  119OSM   H16F12621   0.865   2.179   9.290 -0.4319  0.0091  1.0081
  119OSM   H16G12622   0.993   2.053   9.316  0.0196  0.0208  0.1465
  119OSM   C17F12623   1.059   2.255   9.274 -0.7195  0.0979  0.5601
  119OSM   H17F12624   1.163   2.247   9.313  0.5655 -1.9473 -3.1271
  119OSM   H17G12625   1.039   2.358   9.311 -0.2690  0.5767 -0.5223
  119OSM   C18F12626   1.066   2.257   9.124  0.3505 -0.6085 -0.1779
  119OSM   H18F12627   0.995   2.323   9.068  0.1009 -2.8763 -2.6321
  119OSM   H18G12628   1.060   2.150   9.094  0.9411 -0.5232 -0.6031
  119OSM   H18H12629   1.163   2.304   9.097  0.8383 -1.7831 -0.4798
  120OSM      N12630   0.197   5.969  10.941 -0.3682 -0.2351  0.3221
  120OSM    C1512631   0.283   5.852  10.915  0.0475 -0.1530  0.2634
  120OSM   H15A12632   0.243   5.763  10.960  1.4286 -1.1196 -0.3704
  120OSM   H15B12633   0.375   5.881  10.963  0.0474  0.5225 -0.1432
  120OSM   H15C12634   0.310   5.830  10.812  1.8844 -1.4957  1.0139
  120OSM    C1412635   0.076   5.963  10.853 -0.1018 -0.4423 -0.5879
  120OSM   H14A12636   0.006   6.043  10.874 -0.8054 -1.0521 -0.5705
  120OSM   H14B12637   0.035   5.864  10.868 -0.4099  0.0589  2.0337
  120OSM   H14C12638   0.116   5.970  10.753 -0.4311  0.6068 -0.6486
  120OSM    C1312639   0.145   5.967  11.084 -0.6484 -0.4238 -0.0938
  120OSM   H13A12640   0.069   6.042  11.102 -0.4031  0.2267 -1.7027
  120OSM   H13B12641   0.227   6.001  11.147  0.0183 -2.0312 -0.0712
  120OSM   H13C12642   0.099   5.873  11.109 -1.2096  0.1593  1.1109
  120OSM    C1212643   0.273   6.100  10.905  0.6658  0.1399 -0.1330
  120OSM   H12A12644   0.349   6.122  10.979 -0.6629 -1.2350  1.6767
  120OSM   H12B12645   0.208   6.186  10.913  0.4537 -0.0793  0.5115
  120OSM    C1112646   0.334   6.120  10.774  0.2631  0.1463  0.1686
  120OSM   H11A12647   0.388   6.027  10.748 -2.4642 -1.6065  0.6172
  120OSM   H11B12648   0.422   6.188  10.769  0.3075  0.0407 -0.5720
  120OSM      P12649   0.202   6.273  10.624  0.2280 -0.2243 -0.1054
  120OSM    O1312650   0.089   6.259  10.533 -0.0567 -0.5619  0.0892
  120OSM    O1412651   0.178   6.361  10.745 -0.4782  0.6826 -0.4645
  120OSM    O1112652   0.337   6.320  10.549 -0.3397  0.2617 -0.1068
  120OSM    O1212653   0.238   6.134  10.671 -0.0016 -0.6753  0.7357
  120OSM    C1S12654   0.337   6.451  10.488  0.1467 -0.2564  0.0045
  120OSM    H1S12655   0.394   6.531  10.539 -1.4077  1.0386 -0.2376
  120OSM    H1T12656   0.238   6.495  10.461 -0.2458 -0.1559  1.5568
  120OSM     NF12657   0.442   6.581  10.301  0.3122  0.4828 -0.5565
  120OSM    HNF12658   0.392   6.608  10.219 -0.0345  0.1266 -0.4666
  120OSM    C2S12659   0.392   6.447  10.342 -0.5725 -0.5937  0.0330
  120OSM    H2S12660   0.483   6.384  10.353  0.8466  1.4566  0.2393
  120OSM    C3S12661   0.290   6.389  10.242 -0.4231 -0.9840  0.0631
  120OSM    H3S12662   0.203   6.458  10.242  0.7056  0.4948 -1.4508
  120OSM     O312663   0.229   6.265  10.267 -0.1437  0.4984  0.3660
  120OSM    HO312664   0.222   6.258  10.362 -1.2452  0.0424  0.2531
  120OSM    C4S12665   0.345   6.387  10.096 -0.6875 -0.2916  0.4153
  120OSM    H4S12666   0.439   6.332  10.081 -1.2837 -1.7204  1.8344
  120OSM    C5S12667   0.297   6.457   9.988 -0.7658 -0.3297 -0.5206
  120OSM    H5S12668   0.214   6.525  10.012  0.1507  0.2713  0.9687
  120OSM    C6S12669   0.361   6.451   9.848  0.7308  0.3860  0.1320
  120OSM    H6S12670   0.446   6.380   9.853 -0.5340 -1.2427 -0.7135
  120OSM    H6T12671   0.402   6.549   9.818  1.2395 -0.7523 -3.0717
  120OSM    C7S12672   0.263   6.394   9.732  0.4182 -0.1770 -0.0137
  120OSM    H7S12673   0.200   6.472   9.682 -0.4533 -0.4018  0.7256
  120OSM    H7T12674   0.194   6.317   9.771 -1.6703  1.6808  0.0607
  120OSM    C8S12675   0.343   6.325   9.623  0.1319  0.6195 -0.0525
  120OSM    H8S12676   0.404   6.240   9.659  1.3968  1.7396  0.5076
  120OSM    H8T12677   0.411   6.401   9.578 -0.6806  0.2116 -2.0364
  120OSM    C9S12678   0.242   6.280   9.507  0.4102 -0.7234 -0.0942
  120OSM    H9S12679   0.204   6.368   9.452  2.4067 -0.4218 -1.0645
  120OSM    H9T12680   0.163   6.216   9.552 -0.6470 -1.0935 -2.3869
  120OSM   C10S12681   0.319   6.192   9.405 -0.3587  0.1075  0.5735
  120OSM   H10S12682   0.347   6.096   9.453  2.5555  0.9530  0.6279
  120OSM   H10T12683   0.414   6.245   9.382 -1.2012  1.8887  1.1367
  120OSM   C11S12684   0.238   6.149   9.286  0.9641 -0.2189  0.0577
  120OSM   H11S12685   0.151   6.102   9.336  0.7418  0.0167 -0.1107
  120OSM   H11T12686   0.283   6.063   9.231  0.0808 -0.4806 -0.2646
  120OSM   C12S12687   0.194   6.257   9.183 -0.1806 -0.5993  0.1723
  120OSM   H12S12688   0.292   6.293   9.145  0.1809 -0.9369  0.7752
  120OSM   H12T12689   0.143   6.332   9.247 -0.7537 -0.9117  0.0908
  120OSM   C13S12690   0.102   6.202   9.068  0.0697  0.1022  0.0964
  120OSM   H13S12691   0.001   6.183   9.107 -0.0591  0.7528  0.0963
  120OSM   H13T12692   0.154   6.107   9.046  2.4575  1.1133  1.1185
  120OSM   C14S12693   0.089   6.296   8.946 -0.5564 -0.2478  0.3124
  120OSM   H14S12694   0.194   6.331   8.931 -0.1955 -0.7202  1.6686
  120OSM   H14T12695   0.035   6.384   8.986 -1.3791 -1.1519  1.1879
  120OSM   C15S12696   0.023   6.228   8.828 -0.5749 -0.4499  0.2023
  120OSM   H15S12697  -0.082   6.208   8.856 -1.1013  0.5145 -1.0656
  120OSM   H15T12698   0.071   6.134   8.794  0.9292  0.3233  0.1200
  120OSM   C16S12699   0.023   6.321   8.702  0.1289 -0.3702 -0.7816
  120OSM   H16S12700   0.128   6.359   8.697  0.1572 -0.2921  0.4449
  120OSM   H16T12701  -0.045   6.407   8.722  1.0039 -0.1979  1.6041
  120OSM   C17S12702  -0.024   6.262   8.576 -0.1142  0.0583 -0.2746
  120OSM   H17S12703  -0.135   6.258   8.585  0.0271 -2.5620  0.6505
  120OSM   H17T12704   0.011   6.157   8.588  0.8101  0.2908 -0.8777
  120OSM   C18S12705   0.029   6.312   8.443 -1.0945 -0.3186 -1.1094
  120OSM   H18S12706  -0.024   6.401   8.403  0.0600  0.8296 -0.1617
  120OSM   H18T12707   0.024   6.232   8.367 -0.8678 -0.5208 -0.9106
  120OSM   H18U12708   0.137   6.339   8.447 -1.2477  0.2858 -0.8996
  120OSM    C1F12709   0.534   6.655  10.349  0.8262 -0.0514 -0.0909
  120OSM     OF12710   0.630   6.608  10.405  0.1534 -0.4089  0.5285
  120OSM    C2F12711   0.512   6.805  10.335  0.5176 -0.1012  0.3086
  120OSM    H2F12712   0.537   6.858  10.429 -0.8072  1.0360  0.0514
  120OSM    H2G12713   0.404   6.833  10.334  1.1384  2.3497  0.8447
  120OSM    C3F12714   0.588   6.881  10.226 -0.1728  0.1214  0.2006
  120OSM    H3F12715   0.692   6.842  10.224 -0.1531  0.1906 -0.2010
  120OSM    H3G12716   0.584   6.988  10.252 -1.6294  0.2741 -0.5837
  120OSM    C4F12717   0.535   6.855  10.084 -0.4026 -0.1139  0.2100
  120OSM    H4F12718   0.428   6.887  10.079  0.1412  1.7272  0.3906
  120OSM    H4G12719   0.532   6.745  10.065 -0.0430  0.2452 -1.9517
  120OSM    C5F12720   0.608   6.935   9.977 -0.5998  0.0247  0.5154
  120OSM    H5F12721   0.717   6.913   9.978 -0.1770  1.8733 -1.5069
  120OSM    H5G12722   0.586   7.040  10.008 -0.9898 -0.0788  0.5998
  120OSM    C6F12723   0.563   6.890   9.840  0.4903  0.7890 -1.0484
  120OSM    H6F12724   0.452   6.882   9.838  0.4475  0.9536  0.1204
  120OSM    H6G12725   0.608   6.792   9.814  3.0772  1.3805  1.0204
  120OSM    C7F12726   0.616   6.976   9.721  0.2118  0.8122 -0.4518
  120OSM    H7F12727   0.727   6.979   9.730  0.1048 -0.5015  1.8565
  120OSM    H7G12728   0.586   7.081   9.740 -1.0347  0.9557 -2.9995
  120OSM    C8F12729   0.575   6.924   9.584 -0.6328  0.6015  0.1292
  120OSM    H8F12730   0.601   6.993   9.500 -1.6648  0.0619 -0.6423
  120OSM    H8G12731   0.465   6.917   9.583 -0.5416 -0.8953 -1.1773
  120OSM    C9F12732   0.630   6.793   9.549  0.9744  0.8514  0.1734
  120OSM    H9F12733   0.735   6.775   9.577  0.8912 -1.7533 -1.0219
  120OSM   C10F12734   0.561   6.685   9.509  0.2568  0.0875 -0.1396
  120OSM   H10F12735   0.617   6.598   9.469  1.1164  1.6364 -2.4217
  120OSM   C11F12736   0.411   6.682   9.498 -0.1603  0.5334  0.4082
  120OSM   H11F12737   0.358   6.779   9.507 -0.2528  0.7946 -2.3847
  120OSM   H11G12738   0.372   6.617   9.579 -0.0493  0.1399  0.1484
  120OSM   C12F12739   0.352   6.607   9.367 -0.4131 -0.2851 -0.4222
  120OSM   H12F12740   0.244   6.593   9.387 -0.2780  1.6872  1.9733
  120OSM   H12G12741   0.413   6.514   9.366  1.1410  0.7112 -1.8024
  120OSM   C13F12742   0.359   6.691   9.238 -0.5523 -0.0469 -0.4434
  120OSM   H13F12743   0.462   6.734   9.234  0.0338 -1.4658 -0.9480
  120OSM   H13G12744   0.288   6.777   9.238 -1.1642 -0.5451 -0.1447
  120OSM   C14F12745   0.325   6.600   9.117 -0.0341  0.2352  0.2000
  120OSM   H14F12746   0.221   6.563   9.124 -0.4400  0.7018 -2.7649
  120OSM   H14G12747   0.385   6.507   9.127  2.5432  2.0142  1.9127
  120OSM   C15F12748   0.355   6.668   8.986 -1.2000  0.1170  0.0119
  120OSM   H15F12749   0.465   6.686   8.990 -0.9764 -1.3179  0.5329
  120OSM   H15G12750   0.305   6.767   8.981 -2.3301 -0.3505  1.7054
  120OSM   C16F12751   0.318   6.588   8.860  0.4332  0.0420  0.5306
  120OSM   H16F12752   0.220   6.538   8.870  1.1010 -1.6614 -1.1074
  120OSM   H16G12753   0.398   6.513   8.838  0.7073  0.6276 -0.5110
  120OSM   C17F12754   0.309   6.685   8.736 -0.1016 -0.1224 -0.4434
  120OSM   H17F12755   0.395   6.755   8.734  0.2271 -0.3893  2.7559
  120OSM   H17G12756   0.227   6.757   8.756 -1.7345 -1.9964 -0.2026
  120OSM   C18F12757   0.281   6.619   8.596 -0.5406 -0.3821 -0.1253
  120OSM   H18F12758   0.363   6.547   8.573  2.3317  1.6860  3.1536
  120OSM   H18G12759   0.278   6.692   8.513  0.1194 -1.1369 -0.8224
  120OSM   H18H12760   0.186   6.561   8.597  0.0237 -1.3284 -0.5565
  121OSM      N12761   5.901   2.723  11.043  0.0546 -0.1825  0.3117
  121OSM    C1512762   5.947   2.741  10.906 -0.4694  0.4362  0.5072
  121OSM   H15A12763   6.048   2.706  10.891 -0.8196 -0.4421  0.1192
  121OSM   H15B12764   5.936   2.840  10.864  1.9021 -0.2582 -1.8956
  121OSM   H15C12765   5.885   2.678  10.843  0.6286  2.7115 -2.9901
  121OSM    C1412766   5.775   2.804  11.063  0.1131  0.4396 -0.0820
  121OSM   H14A12767   5.800   2.903  11.028  0.1807  0.0020 -1.2747
  121OSM   H14B12768   5.745   2.820  11.166  0.9816  1.2059  0.0553
  121OSM   H14C12769   5.688   2.774  11.006 -0.1591  0.0948  0.5054
  121OSM    C1312770   5.869   2.578  11.074  0.3979  0.3859  0.2191
  121OSM   H13A12771   5.955   2.518  11.051  1.6176  1.8756  0.7952
  121OSM   H13B12772   5.787   2.543  11.013  0.8013  2.5133 -1.6358
  121OSM   H13C12773   5.849   2.563  11.179  0.7224 -2.1773 -0.0617
  121OSM    C1212774   6.014   2.769  11.135 -0.3839  0.2954 -0.4525
  121OSM   H12A12775   5.977   2.769  11.236 -2.4733  2.1821 -1.1808
  121OSM   H12B12776   6.052   2.868  11.113  0.5636  0.0500  0.0484
  121OSM    C1112777   6.139   2.677  11.153  0.6785  0.1502  0.3957
  121OSM   H11A12778   6.084   2.587  11.187 -0.8259  0.9627  0.1633
  121OSM   H11B12779   6.211   2.695  11.236  0.6090 -1.0656  0.7250
  121OSM      P12780   6.289   2.531  11.000  0.2078  0.0579  0.6255
  121OSM    O1312781   6.384   2.515  11.113  0.3839 -0.3958 -0.5350
  121OSM    O1412782   6.211   2.408  10.973 -0.2041 -0.3214  0.3330
  121OSM    O1112783   6.367   2.573  10.871 -0.2968 -0.1849 -0.1039
  121OSM    O1212784   6.196   2.658  11.023 -0.0352  0.0740 -0.0697
  121OSM    C1S12785   6.412   2.460  10.785 -0.5707 -0.8607  0.3835
  121OSM    H1S12786   6.341   2.375  10.774 -0.7160 -0.5976 -0.7043
  121OSM    H1T12787   6.504   2.414  10.828 -0.4738 -2.0174 -1.0220
  121OSM     NF12788   6.451   2.384  10.553 -0.0794  0.9697  0.1032
  121OSM    HNF12789   6.537   2.340  10.529 -0.8939 -0.2491 -0.6205
  121OSM    C2S12790   6.458   2.501  10.643  0.6636 -0.0141  0.0585
  121OSM    H2S12791   6.382   2.572  10.606 -1.4259 -0.5317  3.1241
  121OSM    C3S12792   6.594   2.582  10.657  0.0540  0.0370 -0.5176
  121OSM    H3S12793   6.678   2.535  10.712 -0.0921  0.9091  0.4619
  121OSM     O312794   6.570   2.704  10.729  0.9762 -0.1360 -0.6103
  121OSM    HO312795   6.479   2.693  10.758  0.7148  0.6185 -1.1253
  121OSM    C4S12796   6.629   2.616  10.523 -0.0777  0.1984 -0.3252
  121OSM    H4S12797   6.557   2.693  10.493  0.1411  0.3149 -0.5506
  121OSM    C5S12798   6.732   2.578  10.455 -0.0099 -0.4664  0.3382
  121OSM    H5S12799   6.805   2.512  10.503 -0.5749 -0.7484  0.8155
  121OSM    C6S12800   6.770   2.611  10.313 -0.6883 -0.0929 -0.8875
  121OSM    H6S12801   6.765   2.517  10.255  3.2580 -1.6670  1.1645
  121OSM    H6T12802   6.870   2.658  10.299 -0.7355  0.0798 -0.6508
  121OSM    C7S12803   6.673   2.709  10.255  0.6227 -0.4842 -0.4743
  121OSM    H7S12804   6.686   2.795  10.324 -1.9328 -0.3660 -0.1024
  121OSM    H7T12805   6.572   2.663  10.255  0.2293  0.3618 -1.5346
  121OSM    C8S12806   6.711   2.748  10.108 -0.2129  0.0135  0.2443
  121OSM    H8S12807   6.820   2.771  10.103 -0.1032 -0.1189  1.6306
  121OSM    H8T12808   6.651   2.840  10.092 -0.3932  0.0419  1.0308
  121OSM    C9S12809   6.672   2.638  10.009 -0.0304 -0.2653  0.1727
  121OSM    H9S12810   6.570   2.613  10.045 -0.7143 -0.5798 -1.8805
  121OSM    H9T12811   6.742   2.552  10.016  1.4950  1.1259  2.2922
  121OSM   C10S12812   6.666   2.692   9.862  0.4871  0.7227  0.1628
  121OSM   H10S12813   6.751   2.761   9.844  1.2505 -0.3669 -0.5325
  121OSM   H10T12814   6.568   2.742   9.852 -0.6721 -1.7786 -1.7515
  121OSM   C11S12815   6.663   2.579   9.767  0.4168  0.0781  0.4233
  121OSM   H11S12816   6.572   2.517   9.785  0.5642 -0.8494 -1.7746
  121OSM   H11T12817   6.739   2.501   9.788  1.8749  1.2004 -0.6459
  121OSM   C12S12818   6.657   2.631   9.624  0.4065  0.2639  0.6025
  121OSM   H12S12819   6.597   2.724   9.616  0.9114  0.5351 -0.0577
  121OSM   H12T12820   6.613   2.553   9.557 -0.3313  1.4805 -0.3599
  121OSM   C13S12821   6.798   2.642   9.565 -0.0816 -0.2543 -1.3911
  121OSM   H13S12822   6.824   2.534   9.555 -1.7821 -0.8450  0.3219
  121OSM   H13T12823   6.867   2.692   9.637 -0.4673  0.1919 -1.3338
  121OSM   C14S12824   6.813   2.736   9.443 -0.1844 -0.2091 -0.7958
  121OSM   H14S12825   6.923   2.743   9.423  0.2430 -0.8797  1.1935
  121OSM   H14T12826   6.778   2.839   9.465 -0.7998 -0.2199 -1.7374
  121OSM   C15S12827   6.743   2.676   9.320 -0.3789  0.4848 -0.4727
  121OSM   H15S12828   6.635   2.674   9.348 -0.8148  0.2672 -2.1158
  121OSM   H15T12829   6.782   2.577   9.288 -1.5592  0.4312 -1.8379
  121OSM   C16S12830   6.752   2.769   9.201 -0.2008  0.0368 -0.1009
  121OSM   H16S12831   6.855   2.798   9.172  0.3281 -0.1255  1.5688
  121OSM   H16T12832   6.699   2.862   9.228  0.4829  0.4349 -0.1172
  121OSM   C17S12833   6.697   2.708   9.063 -0.7048 -0.1665 -0.2035
  121OSM   H17S12834   6.598   2.659   9.073 -1.3457  1.4398  1.7244
  121OSM   H17T12835   6.763   2.622   9.038 -1.2493  0.1485 -2.8596
  121OSM   C18S12836   6.698   2.808   8.950  0.2798 -0.0891 -0.2114
  121OSM   H18S12837   6.801   2.836   8.920  1.4873 -1.4469  2.4700
  121OSM   H18T12838   6.648   2.898   8.993  1.3231  0.3371  0.1385
  121OSM   H18U12839   6.637   2.774   8.864  0.0938  0.6609 -0.3877
  121OSM    C1F12840   6.333   2.327  10.525  0.0538 -0.8111 -0.6133
  121OSM     OF12841   6.226   2.388  10.534 -0.0042 -0.4331 -0.2965
  121OSM    C2F12842   6.344   2.185  10.479  0.6564 -0.7718 -0.9423
  121OSM    H2F12843   6.329   2.120  10.568 -0.4198  0.9257  0.1409
  121OSM    H2G12844   6.451   2.160  10.460  1.5212  1.7303  0.4325
  121OSM    C3F12845   6.242   2.156  10.364 -0.4782  0.4332  0.6195
  121OSM    H3F12846   6.289   2.182  10.267  2.5275 -1.0615  1.6081
  121OSM    H3G12847   6.145   2.209  10.376  0.2517  1.5518  1.7291
  121OSM    C4F12848   6.223   2.006  10.367 -0.2920 -0.3451 -0.5427
  121OSM    H4F12849   6.154   1.974  10.286 -1.4086 -1.8880  1.0004
  121OSM    H4G12850   6.176   1.969  10.460  1.5036  1.4819  1.1414
  121OSM    C5F12851   6.359   1.929  10.331  0.1732 -0.1123 -0.5070
  121OSM    H5F12852   6.319   1.827  10.311  0.4508 -0.2440 -0.3854
  121OSM    H5G12853   6.423   1.940  10.421  1.8212  1.0619 -1.7917
  121OSM    C6F12854   6.435   1.968  10.203  0.3533 -0.0732 -0.4485
  121OSM    H6F12855   6.538   1.927  10.205  0.1614 -0.5846 -0.8158
  121OSM    H6G12856   6.451   2.077  10.209 -0.7676 -0.0215  2.1636
  121OSM    C7F12857   6.347   1.934  10.079  0.8031  0.5079  0.0464
  121OSM    H7F12858   6.249   1.986  10.079 -0.5216 -1.9288  0.0138
  121OSM    H7G12859   6.315   1.828  10.071  1.6888  0.3570 -1.8094
  121OSM    C8F12860   6.399   1.966   9.943  0.0758 -0.2331 -0.5135
  121OSM    H8F12861   6.328   1.934   9.865 -1.2395  2.6942 -0.5992
  121OSM    H8G12862   6.498   1.916   9.944 -1.5034 -3.4719 -1.1475
  121OSM    C9F12863   6.427   2.116   9.924  0.2287 -0.4662 -0.4716
  121OSM    H9F12864   6.416   2.176  10.016  0.2119  0.0326 -0.8011
  121OSM   C10F12865   6.458   2.183   9.808 -0.4000 -0.3935  0.0330
  121OSM   H10F12866   6.479   2.291   9.809  0.5581 -0.5814  0.2306
  121OSM   C11F12867   6.476   2.110   9.675 -0.2367  0.0511  0.2937
  121OSM   H11F12868   6.419   2.160   9.593 -2.0129 -2.4287 -0.0433
  121OSM   H11G12869   6.440   2.006   9.692  1.6792 -1.0317 -1.9346
  121OSM   C12F12870   6.621   2.090   9.621  0.0126  0.2540 -0.4720
  121OSM   H12F12871   6.623   2.012   9.542  1.1014  0.3003 -0.5024
  121OSM   H12G12872   6.684   2.052   9.704  0.3442  2.7704  0.4687
  121OSM   C13F12873   6.700   2.206   9.581  0.4866  0.4290  0.8010
  121OSM   H13F12874   6.810   2.192   9.588  0.7304  2.5837  1.5711
  121OSM   H13G12875   6.668   2.284   9.654 -2.6014 -0.8192  0.8889
  121OSM   C14F12876   6.654   2.261   9.440  0.0008  0.2495  0.3094
  121OSM   H14F12877   6.721   2.345   9.411  0.4684 -1.0567 -2.6687
  121OSM   H14G12878   6.557   2.309   9.462 -0.8629 -1.0807 -0.5467
  121OSM   C15F12879   6.636   2.152   9.334 -0.3105 -0.6302 -0.0576
  121OSM   H15F12880   6.530   2.120   9.334 -0.1375 -1.2153  0.5026
  121OSM   H15G12881   6.688   2.057   9.357 -2.7302 -1.9180  0.2956
  121OSM   C16F12882   6.663   2.198   9.190 -0.4156 -0.9417  0.3766
  121OSM   H16F12883   6.761   2.251   9.187 -2.2986  2.8178  2.8404
  121OSM   H16G12884   6.577   2.266   9.175  0.5055  0.7887  2.7605
  121OSM   C17F12885   6.659   2.087   9.087 -0.8441  0.3530 -0.5431
  121OSM   H17F12886   6.554   2.051   9.083 -1.0078  0.5177  1.5308
  121OSM   H17G12887   6.730   2.004   9.106 -1.9168  0.1370  2.7917
  121OSM   C18F12888   6.689   2.144   8.945  0.3500 -0.1833 -0.6735
  121OSM   H18F12889   6.794   2.177   8.929 -0.5179  3.2777  0.2678
  121OSM   H18G12890   6.615   2.227   8.938 -0.4703 -0.7417  0.9635
  121OSM   H18H12891   6.679   2.064   8.869  3.3656  2.2513 -3.7435
  122OSM      N12892   6.774   0.233  10.918 -0.5368 -0.3417  0.0535
  122OSM    C1512893   6.653   0.206  10.993  0.2214 -0.0398  0.5742
  122OSM   H15A12894   6.658   0.104  11.026  2.2968  0.8807  3.3634
  122OSM   H15B12895   6.559   0.237  10.949 -1.1405 -1.9219  2.0724
  122OSM   H15C12896   6.658   0.258  11.088 -2.4153  1.0083  0.2064
  122OSM    C1412897   6.885   0.193  11.014  0.7771 -0.2675 -0.0602
  122OSM   H14A12898   6.890   0.086  11.026 -1.8000 -0.8510 -3.4836
  122OSM   H14B12899   6.868   0.236  11.112 -0.7860  0.7692 -0.7710
  122OSM   H14C12900   6.981   0.221  10.972  0.0337  0.2731 -1.4250
  122OSM    C1312901   6.777   0.157  10.796 -0.0180  0.3084 -0.3399
  122OSM   H13A12902   6.697   0.185  10.729 -1.4118 -2.3143  0.1724
  122OSM   H13B12903   6.758   0.053  10.817  1.4586  0.3871  1.5385
  122OSM   H13C12904   6.872   0.164  10.745 -0.9075  1.8310 -1.8474
  122OSM    C1212905   6.792   0.385  10.896 -1.1973  0.6384  0.5830
  122OSM   H12A12906   6.813   0.436  10.989  1.8548 -0.3466  0.4941
  122OSM   H12B12907   6.698   0.426  10.863 -1.2880 -0.1050 -0.0743
  122OSM    C1112908   6.902   0.441  10.808  0.0189 -0.2090  0.9696
  122OSM   H11A12909   6.879   0.549  10.798 -1.3747 -0.4515  1.5283
  122OSM   H11B12910   6.907   0.383  10.713  0.2315  1.9955 -0.3868
  122OSM      P12911   7.083   0.520  10.979  0.1026  0.3230  0.2039
  122OSM    O1312912   6.973   0.575  11.063 -0.2835  0.4981  0.3053
  122OSM    O1412913   7.199   0.454  11.045  0.3746  0.7067  0.0425
  122OSM    O1112914   7.141   0.640  10.903 -0.1042 -0.0114  0.4951
  122OSM    O1212915   7.029   0.418  10.872 -0.2190  0.5858  0.3144
  122OSM    C1S12916   7.191   0.635  10.768  0.1082  0.0095  0.0816
  122OSM    H1S12917   7.203   0.533  10.725  2.9549  1.1452 -1.9938
  122OSM    H1T12918   7.297   0.668  10.770 -0.0496  0.5551 -0.3924
  122OSM     NF12919   7.177   0.718  10.535  0.3211  0.3798 -0.4553
  122OSM    HNF12920   7.229   0.793  10.496 -1.0019  2.2184  1.2396
  122OSM    C2S12921   7.117   0.733  10.670 -0.4696  0.4728  0.0848
  122OSM    H2S12922   7.007   0.715  10.665 -0.5278 -0.2776  2.8379
  122OSM    C3S12923   7.127   0.887  10.719  0.1902  0.2404  0.7807
  122OSM    H3S12924   7.230   0.922  10.743 -0.4875  1.2792  2.2817
  122OSM     O312925   7.046   0.902  10.839  0.1015  0.4592 -0.8934
  122OSM    HO312926   7.059   0.823  10.893  0.0979  0.7586 -0.4506
  122OSM    C4S12927   7.059   0.977  10.623 -0.4278  0.0786 -0.7470
  122OSM    H4S12928   6.949   0.977  10.623 -0.4324 -0.8735  0.4178
  122OSM    C5S12929   7.122   1.054  10.529  0.0254 -0.2648 -0.5514
  122OSM    H5S12930   7.232   1.057  10.527  0.0767 -2.1350 -1.5771
  122OSM    C6S12931   7.054   1.148  10.435 -0.0386 -0.2685  0.2952
  122OSM    H6S12932   7.089   1.252  10.453 -0.0350 -0.2665  0.2759
  122OSM    H6T12933   6.944   1.153  10.453 -0.2061 -0.8499 -0.5391
  122OSM    C7S12934   7.064   1.113  10.278 -0.0132  0.2113 -0.2644
  122OSM    H7S12935   7.167   1.120  10.238 -0.5348  2.7220 -1.2578
  122OSM    H7T12936   7.022   1.197  10.218 -0.0409 -0.0019 -0.5445
  122OSM    C8S12937   6.992   0.980  10.232 -1.4396  0.5528 -0.3931
  122OSM    H8S12938   6.882   0.992  10.237 -1.6390  0.0549 -2.9874
  122OSM    H8T12939   7.016   0.904  10.310  0.2313  0.1338 -1.2872
  122OSM    C9S12940   7.038   0.924  10.093 -0.1667 -0.1871 -0.4244
  122OSM    H9S12941   6.967   0.840  10.074  0.4872 -0.8226 -0.1159
  122OSM    H9T12942   7.136   0.876  10.113  0.1662  1.0189  0.9954
  122OSM   C10S12943   7.051   1.029   9.983  0.3247  0.2825  0.1189
  122OSM   H10S12944   7.118   1.116   9.999  0.9989 -0.1831 -0.1497
  122OSM   H10T12945   6.949   1.069   9.968  0.7245  1.6965  0.9764
  122OSM   C11S12946   7.097   0.963   9.848 -0.0646  0.0631  0.1945
  122OSM   H11S12947   7.090   0.852   9.855 -1.2042  0.1144 -0.2002
  122OSM   H11T12948   7.205   0.989   9.849 -0.3874  1.5402 -1.6303
  122OSM   C12S12949   7.018   1.023   9.729 -0.5014  0.1581  0.5386
  122OSM   H12S12950   7.032   1.132   9.714  1.7066 -0.1644  0.1252
  122OSM   H12T12951   6.910   1.018   9.753 -1.0537 -1.6123 -2.2088
  122OSM   C13S12952   7.042   0.962   9.596  0.0755 -0.4044 -0.2359
  122OSM   H13S12953   7.043   0.852   9.611  0.6659 -0.4188 -0.3864
  122OSM   H13T12954   7.144   1.000   9.575  0.7227 -1.1636  1.4261
  122OSM   C14S12955   6.944   1.014   9.482  0.3966 -0.2393 -0.0195
  122OSM   H14S12956   6.922   1.119   9.511 -0.3438 -0.6247  0.8350
  122OSM   H14T12957   6.854   0.956   9.510 -0.7098  1.7189  0.5781
  122OSM   C15S12958   6.996   0.998   9.339 -0.2322  1.0761 -0.1948
  122OSM   H15S12959   7.001   0.892   9.306 -1.5250  0.6518  0.9444
  122OSM   H15T12960   7.102   1.032   9.336 -0.2216  1.4201  2.9393
  122OSM   C16S12961   6.907   1.083   9.236 -0.2790 -0.3506 -0.1019
  122OSM   H16S12962   6.925   1.192   9.246  0.7114 -0.6761  2.0242
  122OSM   H16T12963   6.799   1.059   9.245 -0.3836  0.0581 -0.2581
  122OSM   C17S12964   6.935   1.053   9.085 -0.3155 -0.0958  0.0422
  122OSM   H17S12965   6.921   0.945   9.066 -0.4058  0.1154 -1.1606
  122OSM   H17T12966   7.039   1.088   9.070 -0.9546  2.7859  1.8612
  122OSM   C18S12967   6.858   1.145   8.989  0.6628 -1.2745  0.3993
  122OSM   H18S12968   6.897   1.136   8.886 -1.4965  1.5461 -0.7249
  122OSM   H18T12969   6.864   1.251   9.023 -1.9583 -0.8375 -0.3822
  122OSM   H18U12970   6.751   1.116   8.994  0.2119 -0.0559 -1.8105
  122OSM    C1F12971   7.144   0.606  10.460 -0.2648  0.6329  0.3560
  122OSM     OF12972   7.067   0.523  10.508  0.0880  0.4922 -0.6521
  122OSM    C2F12973   7.197   0.592  10.328 -0.1588 -0.2720  0.1166
  122OSM    H2F12974   7.308   0.595  10.333  0.1513 -3.7319 -2.7675
  122OSM    H2G12975   7.178   0.679  10.262  1.4060  0.1133  0.1471
  122OSM    C3F12976   7.152   0.465  10.260 -0.0883 -0.3551 -0.5006
  122OSM    H3F12977   7.043   0.447  10.254 -0.9802  3.3377  2.4141
  122OSM    H3G12978   7.181   0.370  10.310 -0.3465 -0.0661  0.2055
  122OSM    C4F12979   7.209   0.450  10.114 -0.1244  0.1995  0.6494
  122OSM    H4F12980   7.177   0.350  10.079 -1.2199  0.3983  1.0882
  122OSM    H4G12981   7.319   0.467  10.117  0.0936 -1.0078 -0.1286
  122OSM    C5F12982   7.156   0.546   9.995  0.2301 -0.5128 -0.3809
  122OSM    H5F12983   7.189   0.652  10.008 -0.5683 -0.4273  1.1577
  122OSM    H5G12984   7.045   0.537  10.000  0.0228  2.7233  2.8905
  122OSM    C6F12985   7.218   0.493   9.862 -0.5709  0.3810 -0.0326
  122OSM    H6F12986   7.191   0.385   9.864  0.2755  0.1712  0.1945
  122OSM    H6G12987   7.328   0.502   9.857 -0.6487  0.7084 -1.8264
  122OSM    C7F12988   7.154   0.565   9.740  0.0113  0.1154 -0.1928
  122OSM    H7F12989   7.202   0.665   9.735 -1.0961  0.7929  1.8649
  122OSM    H7G12990   7.045   0.582   9.752 -0.1546  0.5130 -2.1250
  122OSM    C8F12991   7.162   0.480   9.611 -0.7494  0.0328  0.6577
  122OSM    H8F12992   7.126   0.377   9.636 -1.8858  0.3400  0.3384
  122OSM    H8G12993   7.272   0.479   9.601 -0.9383  0.8245 -1.7190
  122OSM    C9F12994   7.111   0.544   9.476 -0.2095  0.0168  0.4954
  122OSM    H9F12995   7.101   0.653   9.491  2.2738  0.2269  0.8613
  122OSM   C10F12996   7.091   0.487   9.358  0.0556  0.0195  0.1160
  122OSM   H10F12997   7.068   0.551   9.271 -0.3716  2.3380  1.8741
  122OSM   C11F12998   7.110   0.345   9.325 -0.1194 -0.4502 -0.8381
  122OSM   H11F12999   7.017   0.290   9.298 -0.2666 -0.1870 -0.8695
  122OSM   H11G13000   7.138   0.279   9.410 -1.6636 -0.9482 -0.6957
  122OSM   C12F13001   7.218   0.332   9.218 -0.4979  0.6611 -0.6367
  122OSM   H12F13002   7.273   0.237   9.236  0.4365  0.7780 -2.8147
  122OSM   H12G13003   7.293   0.412   9.233 -0.4805  0.2042  1.8801
  122OSM   C13F13004   7.177   0.326   9.073 -0.2045 -0.5531  0.6655
  122OSM   H13F13005   7.153   0.427   9.033  0.4016 -0.2224  1.1152
  122OSM   H13G13006   7.088   0.261   9.063  0.2154 -1.1132  0.5783
  122OSM   C14F13007   7.281   0.257   8.987 -0.1348 -0.2557  1.0054
  122OSM   H14F13008   7.268   0.149   9.010 -0.5621 -0.5373 -0.5370
  122OSM   H14G13009   7.383   0.284   9.023 -0.9507  3.0648  0.9242
  122OSM   C15F13010   7.271   0.279   8.843 -0.0242  0.4964  0.5637
  122OSM   H15F13011   7.300   0.385   8.823  1.7410 -0.1313 -0.3284
  122OSM   H15G13012   7.169   0.251   8.810 -0.6770  1.0705  2.0343
  122OSM   C16F13013   7.380   0.204   8.776  0.4477 -0.4446  0.5109
  122OSM   H16F13014   7.356   0.096   8.766 -2.0369  0.0344  1.0786
  122OSM   H16G13015   7.475   0.219   8.832  0.3294 -1.0154  0.8739
  122OSM   C17F13016   7.401   0.234   8.624 -0.4394 -1.0811 -0.3271
  122OSM   H17F13017   7.472   0.157   8.589  0.9606 -1.0126  2.2445
  122OSM   H17G13018   7.454   0.332   8.620  2.3387 -2.5016  0.3998
  122OSM   C18F13019   7.272   0.244   8.545  0.1752 -0.1601 -0.0735
  122OSM   H18F13020   7.208   0.334   8.558 -1.5976 -1.4210  0.2440
  122OSM   H18G13021   7.215   0.148   8.552 -0.5238  0.3171  0.9074
  122OSM   H18H13022   7.301   0.262   8.440  0.9196  0.3203  0.2124
  123OSM      N13023   4.545   5.526   6.204 -0.2235 -0.7177  0.0372
  123OSM    C1513024   4.491   5.410   6.122 -0.0878 -0.0529 -0.3344
  123OSM   H15A13025   4.521   5.420   6.019 -0.3695  0.2091 -0.3918
  123OSM   H15B13026   4.384   5.397   6.130  0.0928 -0.7908  1.0536
  123OSM   H15C13027   4.547   5.328   6.163  1.1715  0.8632 -0.1934
  123OSM    C1413028   4.562   5.474   6.341 -0.2580 -0.6696  0.1613
  123OSM   H14A13029   4.623   5.385   6.335 -0.5256 -0.7705 -1.0644
  123OSM   H14B13030   4.469   5.432   6.378 -1.4139 -0.2072 -2.1626
  123OSM   H14C13031   4.614   5.541   6.408  1.1121 -0.0321 -1.5115
  123OSM    C1313032   4.686   5.565   6.160  0.1754  0.3797 -0.4389
  123OSM   H13A13033   4.692   5.572   6.052 -0.7220 -0.2616 -0.5272
  123OSM   H13B13034   4.765   5.493   6.174 -0.3163 -0.8280 -3.5241
  123OSM   H13C13035   4.716   5.662   6.196 -2.5869  1.5185 -1.0825
  123OSM    C1213036   4.448   5.642   6.199 -0.0482 -0.6057  0.4176
  123OSM   H12A13037   4.369   5.603   6.261 -0.4199 -1.3363 -0.5052
  123OSM   H12B13038   4.416   5.655   6.097  0.1821 -0.2899  0.3825
  123OSM    C1113039   4.508   5.769   6.250  0.3022 -0.7976 -0.4433
  123OSM   H11A13040   4.548   5.757   6.353 -1.2451  1.0498  0.4057
  123OSM   H11B13041   4.413   5.826   6.264 -1.3312 -3.1594 -1.5376
  123OSM      P13042   4.663   5.963   6.197 -0.2009 -0.2555  0.2640
  123OSM    O1313043   4.807   5.957   6.167 -0.6637  0.4107 -0.4152
  123OSM    O1413044   4.584   6.076   6.140  0.1580  0.6460 -0.2728
  123OSM    O1113045   4.644   5.961   6.353 -0.2603  0.4510  0.3665
  123OSM    O1213046   4.588   5.827   6.157 -0.1864 -0.0273  0.1680
  123OSM    C1S13047   4.649   6.081   6.429  0.3248  0.0660  0.0521
  123OSM    H1S13048   4.559   6.142   6.412 -0.4349 -1.2094 -0.5679
  123OSM    H1T13049   4.741   6.143   6.421  2.1899 -2.5328  0.6437
  123OSM     NF13050   4.623   6.171   6.664  0.0259  0.1048  0.2607
  123OSM    HNF13051   4.701   6.208   6.714 -1.3987  3.2215  0.2404
  123OSM    C2S13052   4.640   6.045   6.589  0.8066 -0.0376  0.3518
  123OSM    H2S13053   4.542   5.997   6.608 -0.2659  2.0260  0.1341
  123OSM    C3S13054   4.765   5.961   6.642 -0.8387 -0.0926 -0.3084
  123OSM    H3S13055   4.849   6.032   6.656  0.5546 -1.8209  0.2829
  123OSM     O313056   4.811   5.862   6.544  0.4600 -0.2609  0.4122
  123OSM    HO313057   4.785   5.893   6.457  0.9464 -0.1671  0.2961
  123OSM    C4S13058   4.729   5.897   6.764  0.3510  0.7141 -0.6139
  123OSM    H4S13059   4.670   5.805   6.748  0.5884  0.5870 -0.7709
  123OSM    C5S13060   4.756   5.945   6.888  0.1841 -0.0347 -0.0533
  123OSM    H5S13061   4.813   6.038   6.892  0.6334 -0.2311 -1.5251
  123OSM    C6S13062   4.719   5.874   7.013  1.4072  0.0849 -0.2475
  123OSM    H6S13063   4.810   5.880   7.076  0.6847 -0.4653  0.8549
  123OSM    H6T13064   4.692   5.767   6.997  0.0554  0.2465  0.9063
  123OSM    C7S13065   4.608   5.948   7.091  0.1316 -0.1576 -0.0551
  123OSM    H7S13066   4.519   5.958   7.025  1.2580 -0.1836 -1.5981
  123OSM    H7T13067   4.631   6.055   7.111  2.3744 -0.7401  0.5386
  123OSM    C8S13068   4.565   5.875   7.223  0.0263  0.2006 -0.0279
  123OSM    H8S13069   4.563   5.766   7.203 -2.9934 -0.1513  1.7800
  123OSM    H8T13070   4.460   5.908   7.242 -0.2793 -0.6740 -0.1870
  123OSM    C9S13071   4.655   5.912   7.336 -0.3931  0.1614 -0.1809
  123OSM    H9S13072   4.654   6.023   7.339 -2.3691  0.1145  1.9814
  123OSM    H9T13073   4.765   5.897   7.322 -0.5379 -1.2139  0.0929
  123OSM   C10S13074   4.604   5.861   7.467  0.5078 -0.4302 -0.1693
  123OSM   H10S13075   4.609   5.750   7.476  0.1528 -0.3156  1.6743
  123OSM   H10T13076   4.496   5.886   7.479  0.3782 -0.8388 -0.4671
  123OSM   C11S13077   4.675   5.933   7.592  0.2752  0.2308 -0.3698
  123OSM   H11S13078   4.679   6.043   7.574  2.7318  0.3658  0.7734
  123OSM   H11T13079   4.773   5.880   7.601 -0.7144 -1.3577  1.3621
  123OSM   C12S13080   4.604   5.910   7.732 -0.5160 -0.2044 -0.0011
  123OSM   H12S13081   4.570   5.804   7.730 -1.7340  0.1954 -0.6179
  123OSM   H12T13082   4.508   5.966   7.742  0.7685  1.7304  1.8190
  123OSM   C13S13083   4.688   5.947   7.857 -0.6390 -0.3801 -0.0512
  123OSM   H13S13084   4.721   6.052   7.844  0.4625 -0.4786  1.9310
  123OSM   H13T13085   4.784   5.891   7.858  0.3090  1.1937 -1.2147
  123OSM   C14S13086   4.601   5.926   7.986 -0.1826 -0.4892  0.3334
  123OSM   H14S13087   4.567   5.820   7.984  1.0770 -0.9417  2.1013
  123OSM   H14T13088   4.513   5.994   7.981  0.2133  0.1503  1.7023
  123OSM   C15S13089   4.689   5.946   8.115  0.5660 -0.6687  0.0777
  123OSM   H15S13090   4.769   5.869   8.114  0.4736 -0.7617 -0.2297
  123OSM   H15T13091   4.614   5.929   8.196 -1.8481  2.3778 -1.4145
  123OSM   C16S13092   4.746   6.088   8.122  0.7094 -0.3054  0.3982
  123OSM   H16S13093   4.669   6.146   8.066 -0.1438  0.5563  2.4110
  123OSM   H16T13094   4.841   6.094   8.065 -0.3799  3.1141 -1.2129
  123OSM   C17S13095   4.752   6.148   8.265 -0.0282 -0.6782  0.4672
  123OSM   H17S13096   4.803   6.080   8.336  2.0120  0.3155 -0.0177
  123OSM   H17T13097   4.650   6.165   8.307  0.2424  0.3016  0.7580
  123OSM   C18S13098   4.838   6.274   8.273 -0.3016 -0.5239 -0.5310
  123OSM   H18S13099   4.798   6.356   8.209  1.3727  2.1488  1.7198
  123OSM   H18T13100   4.940   6.259   8.231  0.8330  1.2072  1.4858
  123OSM   H18U13101   4.846   6.319   8.374 -0.9244  0.8020 -1.0502
  123OSM    C1F13102   4.523   6.251   6.651  0.0948 -0.0798  0.9388
  123OSM     OF13103   4.417   6.211   6.595 -0.3605  0.0750  0.4592
  123OSM    C2F13104   4.536   6.396   6.710 -0.2746  0.1025  0.2077
  123OSM    H2F13105   4.559   6.457   6.620 -0.8140 -1.0229 -0.7003
  123OSM    H2G13106   4.618   6.405   6.785 -0.7956  1.1779  0.6585
  123OSM    C3F13107   4.397   6.442   6.777  0.5347  0.1000 -0.5625
  123OSM    H3F13108   4.324   6.438   6.693  0.0100  1.7016 -0.2015
  123OSM    H3G13109   4.401   6.547   6.810 -1.9377 -0.7188  2.5694
  123OSM    C4F13110   4.341   6.345   6.879 -0.8997 -0.0458 -0.8811
  123OSM    H4F13111   4.342   6.240   6.841  1.3250  0.4587 -2.2827
  123OSM    H4G13112   4.236   6.379   6.894  0.2298  3.2503 -0.1240
  123OSM    C5F13113   4.421   6.338   7.009  0.0789  0.1318  1.6284
  123OSM    H5F13114   4.441   6.433   7.063  0.4624  0.0514  1.6307
  123OSM    H5G13115   4.520   6.301   6.975 -0.1214  1.2765 -0.2708
  123OSM    C6F13116   4.352   6.246   7.114  0.0702 -0.2290  0.5319
  123OSM    H6F13117   4.333   6.150   7.061  0.1794 -0.0527  0.1713
  123OSM    H6G13118   4.249   6.280   7.137 -0.0785 -0.7603  0.6815
  123OSM    C7F13119   4.432   6.227   7.238 -0.0817  0.3477 -0.1352
  123OSM    H7F13120   4.535   6.211   7.198 -1.1633 -3.7670 -1.5860
  123OSM    H7G13121   4.404   6.133   7.290  0.6829  0.8936  1.2888
  123OSM    C8F13122   4.424   6.335   7.342  0.1970 -0.4711 -0.4007
  123OSM    H8F13123   4.321   6.322   7.382 -0.2065 -1.7145 -1.7798
  123OSM    H8G13124   4.430   6.440   7.306 -0.1002  0.2879  1.6938
  123OSM    C9F13125   4.517   6.316   7.457  0.3950  0.0863  0.3033
  123OSM    H9F13126   4.622   6.340   7.434  0.4105 -0.0225  0.2625
  123OSM   C10F13127   4.494   6.260   7.576 -0.0083 -0.3871 -0.3782
  123OSM   H10F13128   4.564   6.267   7.661  0.0894  0.9965 -0.5611
  123OSM   C11F13129   4.367   6.198   7.626  0.0325 -0.0090 -0.3249
  123OSM   H11F13130   4.367   6.088   7.609 -2.5791  0.0926 -1.1609
  123OSM   H11G13131   4.281   6.233   7.566 -0.0927 -0.1222 -0.2105
  123OSM   C12F13132   4.341   6.240   7.776  0.2980  0.5331 -0.2380
  123OSM   H12F13133   4.311   6.347   7.777 -1.2016  0.2359 -4.2539
  123OSM   H12G13134   4.430   6.220   7.839  0.8480  0.7856 -0.9220
  123OSM   C13F13135   4.215   6.169   7.842  0.9684  0.4350 -0.3537
  123OSM   H13F13136   4.248   6.065   7.864  2.0604  1.0205  0.8805
  123OSM   H13G13137   4.138   6.169   7.761 -0.2429 -0.3721  0.7721
  123OSM   C14F13138   4.148   6.243   7.959 -1.0749 -0.2158  0.2658
  123OSM   H14F13139   4.062   6.179   7.990  0.8410 -1.3509  3.4414
  123OSM   H14G13140   4.121   6.349   7.941 -0.5272  0.1022  1.3386
  123OSM   C15F13141   4.250   6.240   8.071 -0.0183  0.1191 -0.0207
  123OSM   H15F13142   4.343   6.281   8.025  0.1114 -1.1089 -0.8498
  123OSM   H15G13143   4.264   6.138   8.111 -0.0380  0.2373  0.2904
  123OSM   C16F13144   4.202   6.329   8.184  0.3618 -0.8176  0.0015
  123OSM   H16F13145   4.093   6.315   8.199  0.3124  1.1827  1.7245
  123OSM   H16G13146   4.222   6.436   8.163  0.7576 -1.3094 -2.3451
  123OSM   C17F13147   4.274   6.306   8.320 -0.5829  0.5853  0.5148
  123OSM   H17F13148   4.382   6.285   8.303 -0.5291  0.7156  0.6897
  123OSM   H17G13149   4.225   6.216   8.364  0.6841 -0.5358 -0.3107
  123OSM   C18F13150   4.253   6.419   8.406  0.3467 -0.1149  0.8463
  123OSM   H18F13151   4.314   6.498   8.359  2.3990 -0.9003  2.0867
  123OSM   H18G13152   4.299   6.391   8.504 -1.7956 -1.9323  1.3831
  123OSM   H18H13153   4.148   6.451   8.423  0.1257 -0.8394  0.8913
  124OSM      N13154   0.197   3.661   6.077 -0.1112  1.1615  0.1059
  124OSM    C1513155   0.202   3.508   6.102 -0.0079  0.1528  0.7635
  124OSM   H15A13156   0.266   3.460   6.030 -0.9749  1.4134 -0.9674
  124OSM   H15B13157   0.109   3.456   6.086 -0.2978  0.4104  1.5656
  124OSM   H15C13158   0.253   3.488   6.196 -1.0594 -0.4665  1.2001
  124OSM    C1413159   0.148   3.680   5.939  0.6291 -0.1730 -0.3268
  124OSM   H14A13160   0.203   3.624   5.864 -2.5761 -0.8688 -2.2551
  124OSM   H14B13161   0.147   3.785   5.913 -0.4982  0.1402  0.9144
  124OSM   H14C13162   0.045   3.650   5.924  0.6154 -0.3768  0.1502
  124OSM    C1313163   0.104   3.726   6.168  0.0818  0.7729  0.3709
  124OSM   H13A13164   0.105   3.834   6.157  0.9472  0.9698  2.1343
  124OSM   H13B13165   0.131   3.697   6.268  1.5735  1.1006  0.0872
  124OSM   H13C13166   0.002   3.698   6.148  1.2326 -1.4015 -2.8120
  124OSM    C1213167   0.342   3.719   6.094  0.2366  0.0876  0.5150
  124OSM   H12A13168   0.372   3.699   6.196  1.3263 -1.3307 -0.0599
  124OSM   H12B13169   0.347   3.827   6.092  0.0875  0.0837 -0.4495
  124OSM    C1113170   0.459   3.660   6.008  0.2366 -0.4346 -1.0217
  124OSM   H11A13171   0.541   3.734   6.011 -0.9976  0.8851  1.5330
  124OSM   H11B13172   0.423   3.663   5.902 -0.2620  0.2223 -0.8328
  124OSM      P13173   0.585   3.495   6.178  0.4956  0.2661  0.5526
  124OSM    O1313174   0.592   3.346   6.206 -0.3542 -0.4683  0.0339
  124OSM    O1413175   0.707   3.580   6.171 -0.3933  0.1055 -0.0724
  124OSM    O1113176   0.505   3.548   6.305  0.2409 -0.2345 -0.0030
  124OSM    O1213177   0.499   3.527   6.047  0.6617  0.5781 -0.5272
  124OSM    C1S13178   0.539   3.491   6.435  0.1461  0.4021  0.0524
  124OSM    H1S13179   0.647   3.475   6.454 -0.6682 -3.4654  1.8927
  124OSM    H1T13180   0.503   3.386   6.446  0.4164  0.2356 -0.6490
  124OSM     NF13181   0.534   3.529   6.680 -0.4915 -0.4739 -0.0254
  124OSM    HNF13182   0.489   3.462   6.739 -0.9846 -0.6798 -0.6267
  124OSM    C2S13183   0.474   3.572   6.552 -0.0404 -0.9448 -0.4577
  124OSM    H2S13184   0.493   3.681   6.537 -2.6585 -0.5231 -0.8643
  124OSM    C3S13185   0.321   3.550   6.543 -0.1423  0.0163  0.1285
  124OSM    H3S13186   0.303   3.450   6.587 -0.6026  1.2860  2.9324
  124OSM     O313187   0.268   3.559   6.409 -0.8857 -0.7252  0.7343
  124OSM    HO313188   0.351   3.570   6.362 -1.7915  0.5576 -0.6322
  124OSM    C4S13189   0.260   3.653   6.643 -0.5246  0.0349  0.3829
  124OSM    H4S13190   0.271   3.618   6.746 -0.0967 -1.1884 -0.0638
  124OSM    C5S13191   0.194   3.764   6.610  0.7702 -0.1289 -0.3291
  124OSM    H5S13192   0.189   3.793   6.504  1.9065 -1.6828 -0.8205
  124OSM    C6S13193   0.124   3.865   6.697 -0.4857  0.4085 -0.2572
  124OSM    H6S13194   0.032   3.897   6.643 -0.3151 -0.6629 -1.2211
  124OSM    H6T13195   0.185   3.957   6.696  1.0164 -0.5770 -0.4856
  124OSM    C7S13196   0.091   3.833   6.850  0.3023  0.7443  0.1028
  124OSM    H7S13197   0.187   3.812   6.902  1.4703  0.0068 -2.2682
  124OSM    H7T13198   0.014   3.753   6.856  1.2582 -0.2225 -0.4396
  124OSM    C8S13199   0.035   3.953   6.925  0.3360  0.1138 -0.0305
  124OSM    H8S13200  -0.055   3.992   6.872  0.6696 -2.4345 -2.5789
  124OSM    H8T13201   0.115   4.027   6.943 -0.0060 -0.0582  2.5318
  124OSM    C9S13202  -0.030   3.918   7.063 -0.1053 -0.1721  0.5576
  124OSM    H9S13203  -0.064   3.813   7.053 -0.0983 -0.2094  0.9057
  124OSM    H9T13204  -0.111   3.989   7.090 -0.7339  0.7636 -3.5745
  124OSM   C10S13205   0.070   3.917   7.175 -0.3124  0.1240 -0.0154
  124OSM   H10S13206   0.110   4.020   7.186 -0.7583  0.3211 -0.2145
  124OSM   H10T13207   0.151   3.845   7.151 -0.1387  0.6060 -0.8704
  124OSM   C11S13208   0.003   3.893   7.312  0.0584  0.0000  0.0346
  124OSM   H11S13209  -0.055   3.798   7.315  0.8131 -0.4813 -0.4523
  124OSM   H11T13210  -0.084   3.961   7.325 -0.7909 -1.0839  0.1036
  124OSM   C12S13211   0.110   3.896   7.426  0.1099  0.1027  0.0144
  124OSM   H12S13212   0.176   3.814   7.391  1.2799  0.7763  0.6234
  124OSM   H12T13213   0.065   3.862   7.521  2.4548 -0.9298  0.7737
  124OSM   C13S13214   0.206   4.016   7.441  0.6878 -0.7167 -0.0019
  124OSM   H13S13215   0.143   4.100   7.478 -0.5072 -1.3365 -0.5808
  124OSM   H13T13216   0.248   4.055   7.346 -1.2174  0.2957 -0.4534
  124OSM   C14S13217   0.329   3.984   7.538 -0.3620  0.2876  0.5899
  124OSM   H14S13218   0.417   4.052   7.529  1.3889 -2.1020 -1.2872
  124OSM   H14T13219   0.369   3.884   7.511 -0.8183  0.7475 -1.9827
  124OSM   C15S13220   0.290   3.981   7.689 -0.5560 -0.6285  0.1639
  124OSM   H15S13221   0.200   3.917   7.695 -0.5963 -0.7214 -1.2938
  124OSM   H15T13222   0.259   4.080   7.730 -0.3755 -0.8361  0.8023
  124OSM   C16S13223   0.413   3.936   7.775  0.4496  0.8760  0.5625
  124OSM   H16S13224   0.495   4.011   7.780  2.3514 -1.1855  1.2576
  124OSM   H16T13225   0.460   3.850   7.721 -0.6584 -1.1638  2.7246
  124OSM   C17S13226   0.388   3.888   7.918  0.3053  0.2989  0.0154
  124OSM   H17S13227   0.491   3.875   7.959  0.1635  3.2910  1.4822
  124OSM   H17T13228   0.336   3.790   7.918  0.9142 -0.0275 -0.9395
  124OSM   C18S13229   0.321   3.990   8.004 -0.4221  0.4079  0.4431
  124OSM   H18S13230   0.212   3.992   7.982 -0.7864  0.3378  2.1774
  124OSM   H18T13231   0.355   4.095   7.987  0.7497  0.0246  0.4394
  124OSM   H18U13232   0.330   3.967   8.112  2.0006 -1.2189 -0.0668
  124OSM    C1F13233   0.657   3.577   6.708 -0.6968 -0.4382  0.1542
  124OSM     OF13234   0.725   3.656   6.641  0.1022 -0.2905  0.8098
  124OSM    C2F13235   0.707   3.534   6.841  0.0220  0.2198  1.1162
  124OSM    H2F13236   0.707   3.423   6.841  1.3130  0.1616 -1.6751
  124OSM    H2G13237   0.622   3.572   6.902 -0.9418 -0.1168  0.0165
  124OSM    C3F13238   0.844   3.600   6.882  0.4902  0.0981  0.3355
  124OSM    H3F13239   0.845   3.709   6.861  0.4118  0.2386  1.0466
  124OSM    H3G13240   0.919   3.551   6.817  0.7413 -0.1619  0.8119
  124OSM    C4F13241   0.882   3.589   7.033  0.2291  0.6908  0.7401
  124OSM    H4F13242   0.880   3.483   7.068  0.1764  0.9250  1.4458
  124OSM    H4G13243   0.805   3.643   7.092  0.2754  0.1104  1.3502
  124OSM    C5F13244   1.027   3.645   7.063 -0.5623  0.1152  0.2776
  124OSM    H5F13245   1.040   3.743   7.011  0.1471 -0.9553 -1.6118
  124OSM    H5G13246   1.100   3.570   7.027 -0.5212  0.1385  0.3115
  124OSM    C6F13247   1.053   3.693   7.212  0.0170 -0.3130  0.1117
  124OSM    H6F13248   1.077   3.602   7.272  1.5625 -1.4687 -2.1676
  124OSM    H6G13249   0.961   3.745   7.246  1.4019  1.9741  0.4025
  124OSM    C7F13250   1.178   3.793   7.227  0.5340  0.1169 -0.4064
  124OSM    H7F13251   1.154   3.834   7.327 -3.0666 -1.2486 -0.6125
  124OSM    H7G13252   1.164   3.877   7.155 -0.5918  1.8412  1.7731
  124OSM    C8F13253   1.321   3.747   7.214 -0.4423 -0.0705  0.4495
  124OSM    H8F13254   1.381   3.826   7.264 -0.1739  0.4801 -0.7242
  124OSM    H8G13255   1.347   3.737   7.106 -1.2359  1.1389  0.1356
  124OSM    C9F13256   1.341   3.623   7.294 -0.4044  0.3777 -0.5619
  124OSM    H9F13257   1.364   3.536   7.232 -0.4716 -0.0554  0.0235
  124OSM   C10F13258   1.351   3.621   7.429  0.2468  0.0052  0.4247
  124OSM   H10F13259   1.376   3.521   7.469  0.2679  0.3277  1.2077
  124OSM   C11F13260   1.335   3.736   7.533 -0.2141 -0.2001  0.1475
  124OSM   H11F13261   1.288   3.827   7.491  2.8517  0.7972 -1.2108
  124OSM   H11G13262   1.437   3.765   7.567 -0.3458  1.6506 -0.9883
  124OSM   C12F13263   1.252   3.695   7.655  0.8751  0.1446  0.0326
  124OSM   H12F13264   1.149   3.669   7.620  0.9888 -0.9330  0.4723
  124OSM   H12G13265   1.239   3.780   7.725  0.8766 -1.2935  1.7975
  124OSM   C13F13266   1.323   3.587   7.735 -0.3965 -0.4548  0.5413
  124OSM   H13F13267   1.426   3.617   7.763 -0.4473 -0.1862  0.4460
  124OSM   H13G13268   1.315   3.496   7.672 -1.4045 -0.4889  0.7104
  124OSM   C14F13269   1.251   3.552   7.869 -0.6150  0.4974  0.1883
  124OSM   H14F13270   1.269   3.445   7.892 -0.7208  0.1145 -1.4339
  124OSM   H14G13271   1.142   3.564   7.853 -1.0811 -0.4622  2.5593
  124OSM   C15F13272   1.307   3.630   7.989 -0.3077 -0.2421 -0.0265
  124OSM   H15F13273   1.320   3.740   7.974  0.0614 -0.2756  0.0412
  124OSM   H15G13274   1.408   3.588   8.011 -0.0242 -2.0750 -4.3114
  124OSM   C16F13275   1.223   3.606   8.112  0.2070 -0.4145 -0.3231
  124OSM   H16F13276   1.239   3.500   8.139 -2.1243 -1.2308 -1.9569
  124OSM   H16G13277   1.118   3.622   8.080  0.5618 -0.2799 -1.4438
  124OSM   C17F13278   1.241   3.697   8.241  0.5389 -0.1722  0.2925
  124OSM   H17F13279   1.179   3.788   8.224 -0.1747 -0.8959 -1.0543
  124OSM   H17G13280   1.349   3.722   8.246  0.7718 -1.3149  1.3880
  124OSM   C18F13281   1.195   3.633   8.367  0.9421 -0.1294  0.4107
  124OSM   H18F13282   1.091   3.595   8.358  1.4339 -1.5906  0.7352
  124OSM   H18G13283   1.199   3.703   8.452 -0.1096  0.1705  0.2206
  124OSM   H18H13284   1.259   3.547   8.396 -0.1061 -0.9948  0.1942
  125OSM      N13285   0.507   5.265   6.042 -0.3900  0.3104 -0.8028
  125OSM    C1513286   0.444   5.153   5.963  0.1629 -0.3430  0.3121
  125OSM   H15A13287   0.337   5.169   5.964  0.0489 -1.0773  2.7926
  125OSM   H15B13288   0.475   5.067   6.020 -0.2525  0.0749  1.1850
  125OSM   H15C13289   0.486   5.142   5.864  0.1981  0.7396  0.1986
  125OSM    C1413290   0.649   5.264   6.033 -0.1783  0.3235  0.0825
  125OSM   H14A13291   0.695   5.351   6.076  0.3365  1.7281 -3.1257
  125OSM   H14B13292   0.677   5.253   5.929  0.6014  1.2829  0.1879
  125OSM   H14C13293   0.683   5.177   6.087 -1.3345  0.5736  1.2371
  125OSM    C1313294   0.461   5.398   6.000 -0.0437  0.2705  0.5284
  125OSM   H13A13295   0.360   5.404   6.039  0.0032 -0.4545  0.7583
  125OSM   H13B13296   0.446   5.397   5.893 -0.8982 -0.7667  0.6443
  125OSM   H13C13297   0.520   5.481   6.036  0.9658 -0.2144 -0.0127
  125OSM    C1213298   0.461   5.253   6.190 -0.2414 -0.2420  0.1431
  125OSM   H12A13299   0.354   5.263   6.189 -0.1701  0.5884  0.8061
  125OSM   H12B13300   0.496   5.340   6.243 -3.5315  1.5661 -0.5123
  125OSM    C1113301   0.502   5.128   6.274 -0.0500  0.0987 -0.5231
  125OSM   H11A13302   0.440   5.044   6.237  0.2218  0.1731 -1.1562
  125OSM   H11B13303   0.487   5.151   6.381  0.3297 -2.0193  0.0074
  125OSM      P13304   0.681   4.950   6.219 -0.0041 -0.2030 -0.0211
  125OSM    O1313305   0.614   4.905   6.091 -0.0746  0.1720 -0.2184
  125OSM    O1413306   0.825   4.938   6.221  0.5828 -0.1209 -0.2561
  125OSM    O1113307   0.630   4.866   6.345  0.6676  0.7936 -0.1995
  125OSM    O1213308   0.645   5.100   6.260 -0.0431 -0.3300 -0.7119
  125OSM    C1S13309   0.664   4.915   6.479  0.5648  0.2806  0.0494
  125OSM    H1S13310   0.647   5.024   6.488  1.5898  0.3322  1.4430
  125OSM    H1T13311   0.773   4.902   6.499  1.5872  4.6921 -2.1895
  125OSM     NF13312   0.626   4.905   6.720  1.1398 -0.0358  0.2920
  125OSM    HNF13313   0.710   4.871   6.763  1.3363 -0.5575 -0.5096
  125OSM    C2S13314   0.585   4.848   6.588  0.3070  0.4073 -0.8328
  125OSM    H2S13315   0.480   4.869   6.559 -0.6846 -3.2333 -0.1416
  125OSM    C3S13316   0.601   4.689   6.580  0.2439 -0.1555 -0.1214
  125OSM    H3S13317   0.706   4.653   6.570  0.6528  0.0754  2.8701
  125OSM     O313318   0.529   4.638   6.473 -0.0164  0.1284  0.1613
  125OSM    HO313319   0.527   4.716   6.417 -0.2954 -1.6343 -2.3703
  125OSM    C4S13320   0.535   4.627   6.699 -0.5670  0.5614 -0.0324
  125OSM    H4S13321   0.440   4.675   6.727 -2.1802 -3.1946  1.3417
  125OSM    C5S13322   0.585   4.526   6.777  0.6719 -0.3563  0.8096
  125OSM    H5S13323   0.687   4.494   6.752 -0.6240 -2.7001 -1.8246
  125OSM    C6S13324   0.510   4.456   6.888 -0.2190 -0.1207  0.1548
  125OSM    H6S13325   0.496   4.347   6.872  3.5347 -0.5761 -0.3544
  125OSM    H6T13326   0.402   4.483   6.889 -0.5068 -1.2167  2.1218
  125OSM    C7S13327   0.579   4.480   7.022  0.8052 -0.2061  0.1058
  125OSM    H7S13328   0.572   4.589   7.043  0.3677 -0.4144  1.0715
  125OSM    H7T13329   0.687   4.458   7.028  1.4437  3.1958  2.6733
  125OSM    C8S13330   0.517   4.407   7.146  0.2965  0.0600 -0.0913
  125OSM    H8S13331   0.512   4.297   7.137 -0.4272  0.0967 -0.1759
  125OSM    H8T13332   0.409   4.434   7.140  0.0050 -0.6110  1.8063
  125OSM    C9S13333   0.560   4.451   7.284 -0.3373 -0.2354 -0.3263
  125OSM    H9S13334   0.530   4.553   7.318  0.3599  0.3256 -1.3621
  125OSM    H9T13335   0.670   4.441   7.277 -0.0578  1.1920  1.5427
  125OSM   C10S13336   0.514   4.353   7.391  0.1591 -0.2804  1.3866
  125OSM   H10S13337   0.540   4.251   7.356 -0.1467  0.9930 -2.8879
  125OSM   H10T13338   0.404   4.344   7.404  0.2276 -0.9463  1.5010
  125OSM   C11S13339   0.580   4.382   7.527  0.3253 -0.6753  0.2899
  125OSM   H11S13340   0.549   4.485   7.554  0.3794 -0.5544 -0.1075
  125OSM   H11T13341   0.688   4.375   7.503  0.5556  1.0143  0.7630
  125OSM   C12S13342   0.526   4.286   7.631  0.2279 -0.5175 -0.7390
  125OSM   H12S13343   0.561   4.190   7.586  0.3918  0.2144 -2.2037
  125OSM   H12T13344   0.415   4.294   7.640  0.2928 -0.4165 -0.0733
  125OSM   C13S13345   0.593   4.303   7.766 -0.2106  0.9957 -0.5924
  125OSM   H13S13346   0.694   4.261   7.750 -0.2522 -0.6012  2.9621
  125OSM   H13T13347   0.544   4.225   7.828  0.4434  0.7003 -0.4455
  125OSM   C14S13348   0.586   4.441   7.829  0.0228  0.1112  0.2819
  125OSM   H14S13349   0.486   4.489   7.827 -0.0089  0.1463  1.6802
  125OSM   H14T13350   0.641   4.518   7.771 -1.7948  0.9668 -0.3367
  125OSM   C15S13351   0.639   4.430   7.976  0.0151 -0.2406  0.4134
  125OSM   H15S13352   0.748   4.409   7.964  0.4642  0.8295  2.4350
  125OSM   H15T13353   0.595   4.340   8.023  0.8245 -1.1328 -0.4931
  125OSM   C16S13354   0.599   4.545   8.063 -0.3484 -1.0608 -0.8730
  125OSM   H16S13355   0.489   4.559   8.067  0.0635  2.4556 -0.5034
  125OSM   H16T13356   0.637   4.639   8.017 -0.6339  1.2684  3.3688
  125OSM   C17S13357   0.668   4.535   8.205 -0.0164 -0.2964 -0.2584
  125OSM   H17S13358   0.650   4.632   8.256 -2.2315  0.0629 -1.5987
  125OSM   H17T13359   0.776   4.516   8.192  0.0082 -0.7669  0.6158
  125OSM   C18S13360   0.609   4.420   8.282  0.2171 -0.2693  0.2251
  125OSM   H18S13361   0.610   4.428   8.393 -0.1983  4.3738 -0.0220
  125OSM   H18T13362   0.665   4.330   8.252  1.6584  0.4916  0.5923
  125OSM   H18U13363   0.505   4.403   8.245  0.7694 -3.4511  0.0404
  125OSM    C1F13364   0.587   5.031   6.751  0.3032  0.4177 -0.2134
  125OSM     OF13365   0.498   5.096   6.692 -0.8191  0.6918 -0.1770
  125OSM    C2F13366   0.659   5.086   6.868  0.5865 -0.7726 -0.0805
  125OSM    H2F13367   0.765   5.053   6.870  0.3484 -1.4670  2.3678
  125OSM    H2G13368   0.613   5.037   6.956  0.4538 -2.4240 -1.0595
  125OSM    C3F13369   0.649   5.244   6.876 -0.8240  0.3028 -0.5216
  125OSM    H3F13370   0.546   5.280   6.852 -1.7067 -0.5340  1.8663
  125OSM    H3G13371   0.714   5.287   6.798  1.2730  0.5245  1.3123
  125OSM    C4F13372   0.703   5.296   7.014 -0.6505 -0.1795  0.1592
  125OSM    H4F13373   0.693   5.406   7.022  2.0873  0.1654 -0.5246
  125OSM    H4G13374   0.810   5.269   7.026 -0.7422  0.2075  1.9782
  125OSM    C5F13375   0.640   5.242   7.147  0.6864 -0.7605  0.2413
  125OSM    H5F13376   0.680   5.138   7.150  2.0751 -0.2003  2.3619
  125OSM    H5G13377   0.531   5.240   7.128  0.6020 -2.2559  0.7726
  125OSM    C6F13378   0.676   5.329   7.274  0.3692 -0.2035 -0.1099
  125OSM    H6F13379   0.635   5.429   7.249 -0.3045 -0.1181  1.2911
  125OSM    H6G13380   0.784   5.333   7.301  0.0272 -1.3652  1.5475
  125OSM    C7F13381   0.601   5.279   7.405 -0.4930  0.0493  0.1510
  125OSM    H7F13382   0.597   5.169   7.423 -1.0717  0.4275  2.5055
  125OSM    H7G13383   0.492   5.294   7.394 -0.2156  0.4109 -2.3716
  125OSM    C8F13384   0.648   5.362   7.529  0.2700 -0.0454  0.0537
  125OSM    H8F13385   0.647   5.470   7.502 -0.5679  0.2589  1.2830
  125OSM    H8G13386   0.751   5.342   7.566  0.4288 -1.5982 -1.1774
  125OSM    C9F13387   0.550   5.368   7.644 -0.6114  1.4289  0.1274
  125OSM    H9F13388   0.448   5.404   7.621 -0.3146  2.1978  0.0208
  125OSM   C10F13389   0.582   5.344   7.775  0.2420 -0.0089 -0.3303
  125OSM   H10F13390   0.492   5.351   7.839  0.8271  1.4959  0.3502
  125OSM   C11F13391   0.706   5.299   7.848 -0.0194  0.0126 -0.5173
  125OSM   H11F13392   0.732   5.377   7.924 -1.4641 -0.4349  0.4428
  125OSM   H11G13393   0.793   5.290   7.780  0.7907 -1.0434  0.6328
  125OSM   C12F13394   0.706   5.165   7.924  0.3402  0.3443 -0.1465
  125OSM   H12F13395   0.658   5.079   7.871 -2.2892  0.1721  2.4087
  125OSM   H12G13396   0.643   5.166   8.015 -0.6264 -2.3479 -0.7018
  125OSM   C13F13397   0.858   5.121   7.962  0.3615  0.1472 -0.2282
  125OSM   H13F13398   0.923   5.116   7.872  1.7033  1.4213  0.6294
  125OSM   H13G13399   0.846   5.019   8.004  1.6171  1.4132  3.4024
  125OSM   C14F13400   0.911   5.216   8.071  0.1928  0.3809 -0.3784
  125OSM   H14F13401   0.847   5.226   8.161 -0.5578  0.4992 -0.9282
  125OSM   H14G13402   0.939   5.313   8.026 -1.5526  1.1346  0.1286
  125OSM   C15F13403   1.051   5.180   8.134  0.0705  0.6845  0.0272
  125OSM   H15F13404   1.076   5.278   8.179  0.1207 -0.0112  1.5836
  125OSM   H15G13405   1.135   5.163   8.063 -0.9759 -0.2915 -1.0013
  125OSM   C16F13406   1.038   5.051   8.218  0.2966  0.4757  0.2031
  125OSM   H16F13407   1.143   5.036   8.249  0.5172  1.9715  0.2161
  125OSM   H16G13408   1.022   4.967   8.146  0.6532  0.4846  0.1138
  125OSM   C17F13409   0.932   5.062   8.327  0.2999  0.1364 -0.2956
  125OSM   H17F13410   0.939   4.974   8.394 -0.9969  0.4897  0.3189
  125OSM   H17G13411   0.830   5.045   8.287  0.8213  0.1552 -1.6659
  125OSM   C18F13412   0.941   5.185   8.420  0.1993  0.3105  0.0633
  125OSM   H18F13413   1.048   5.200   8.447  0.5818 -1.8440 -0.1372
  125OSM   H18G13414   0.874   5.176   8.508  1.2013 -1.2840  0.6842
  125OSM   H18H13415   0.914   5.275   8.360  0.6562  0.3289 -0.1209
  126OSM      N13416   4.268   4.550   6.450 -0.2981  0.0734 -0.1426
  126OSM    C1513417   4.397   4.481   6.417  0.6093 -0.1227  0.1622
  126OSM   H15A13418   4.473   4.552   6.388 -0.7888  0.5333 -1.9689
  126OSM   H15B13419   4.383   4.420   6.329  3.1375 -0.0459 -0.3408
  126OSM   H15C13420   4.433   4.419   6.498 -0.2829 -0.9081 -0.0356
  126OSM    C1413421   4.233   4.637   6.334  0.1103  0.0383 -0.6772
  126OSM   H14A13422   4.321   4.693   6.307  1.1541 -0.6670  1.1733
  126OSM   H14B13423   4.155   4.707   6.357 -1.5050 -1.9790  0.2363
  126OSM   H14C13424   4.199   4.586   6.245 -0.9290 -3.3475  1.5365
  126OSM    C1313425   4.163   4.446   6.464  0.4233  0.0967  0.5445
  126OSM   H13A13426   4.070   4.492   6.495  0.3321  0.0110  0.3944
  126OSM   H13B13427   4.183   4.371   6.540  0.3533 -0.5744 -0.0970
  126OSM   H13C13428   4.159   4.385   6.375 -1.7225  1.6507 -0.4434
  126OSM    C1213429   4.284   4.631   6.573  1.1379 -0.9592 -0.0858
  126OSM   H12A13430   4.309   4.580   6.665  0.2050 -1.9369 -0.3731
  126OSM   H12B13431   4.187   4.671   6.601  1.5169 -0.3130  0.3367
  126OSM    C1113432   4.388   4.750   6.573 -0.3418  0.2617 -0.1427
  126OSM   H11A13433   4.390   4.804   6.670  1.2952  0.2145 -0.1282
  126OSM   H11B13434   4.354   4.839   6.517 -1.1039 -1.1189 -1.9010
  126OSM      P13435   4.638   4.785   6.475 -0.4337  0.6265  0.0279
  126OSM    O1313436   4.719   4.681   6.409  0.2614  0.2910 -0.3299
  126OSM    O1413437   4.587   4.895   6.392 -0.6026 -0.6421 -0.5622
  126OSM    O1113438   4.731   4.835   6.589 -0.0250 -0.2368 -0.0987
  126OSM    O1213439   4.517   4.704   6.544  0.3579  0.2153 -0.6457
  126OSM    C1S13440   4.696   4.886   6.713 -0.4974  0.2488 -0.1826
  126OSM    H1S13441   4.586   4.904   6.715 -0.6078 -0.5579  1.4844
  126OSM    H1T13442   4.751   4.978   6.742  1.4958 -1.8648  3.0610
  126OSM     NF13443   4.679   4.828   6.949 -0.5358  0.0305  0.3133
  126OSM    HNF13444   4.750   4.865   7.008  0.6712 -0.1290 -1.0204
  126OSM    C2S13445   4.727   4.783   6.822 -0.6547  0.2369  0.9413
  126OSM    H2S13446   4.660   4.701   6.790  1.0678  0.3265 -3.2240
  126OSM    C3S13447   4.883   4.740   6.798  0.5471  0.2090 -0.6813
  126OSM    H3S13448   4.942   4.832   6.777  0.0397  0.0050 -3.1332
  126OSM     O313449   4.901   4.653   6.689 -0.3381  0.1487 -0.1618
  126OSM    HO313450   4.827   4.670   6.631  0.8175  1.0442 -1.4035
  126OSM    C4S13451   4.929   4.661   6.921 -0.1228  0.0463 -0.2447
  126OSM    H4S13452   4.941   4.731   7.005 -0.8360 -1.9410  1.5443
  126OSM    C5S13453   4.935   4.528   6.943 -0.4859  0.0350  0.3402
  126OSM    H5S13454   4.901   4.468   6.857 -1.2607  0.6491  0.2128
  126OSM    C6S13455   4.986   4.453   7.065 -0.4148 -0.8156  0.1097
  126OSM    H6S13456   5.070   4.389   7.031  0.9056  1.7771 -1.7206
  126OSM    H6T13457   4.901   4.400   7.112 -2.1811  1.5497 -0.2631
  126OSM    C7S13458   5.048   4.540   7.180  0.4886  0.1386 -0.8495
  126OSM    H7S13459   4.964   4.606   7.210  1.0904  0.5007  0.0412
  126OSM    H7T13460   5.127   4.609   7.145 -1.1450  2.1404 -0.6697
  126OSM    C8S13461   5.085   4.459   7.302  0.2965 -0.2888  0.0429
  126OSM    H8S13462   5.138   4.531   7.367  2.0181 -0.8498 -0.7260
  126OSM    H8T13463   5.161   4.380   7.286  1.9952  1.3161  0.0177
  126OSM    C9S13464   4.974   4.386   7.367 -0.9720 -0.6853 -0.2125
  126OSM    H9S13465   4.944   4.307   7.295  0.9453  0.2040 -2.0141
  126OSM    H9T13466   4.896   4.461   7.394 -1.5521 -2.0341  2.0961
  126OSM   C10S13467   5.012   4.323   7.505  0.6742  0.0611  0.3485
  126OSM   H10S13468   5.097   4.252   7.493  1.8344  1.8038 -2.2348
  126OSM   H10T13469   4.917   4.273   7.535  0.6409 -0.2106 -0.2154
  126OSM   C11S13470   5.032   4.423   7.618  0.2993  0.3028  0.5714
  126OSM   H11S13471   4.953   4.501   7.605 -0.9536 -1.4047 -2.7118
  126OSM   H11T13472   5.133   4.465   7.599  0.3636 -0.8576 -1.8179
  126OSM   C12S13473   5.048   4.363   7.759 -0.0446  0.0539 -1.0498
  126OSM   H12S13474   4.994   4.267   7.767  1.9940 -1.2419 -2.2921
  126OSM   H12T13475   5.012   4.434   7.837  1.0239  1.6811 -1.9881
  126OSM   C13S13476   5.188   4.337   7.806  0.1640  0.3112  0.2301
  126OSM   H13S13477   5.261   4.419   7.787  0.9325 -0.6332 -0.9710
  126OSM   H13T13478   5.234   4.250   7.753  0.2557 -0.6933  1.9134
  126OSM   C14S13479   5.216   4.296   7.952 -0.3101  0.3408  0.2510
  126OSM   H14S13480   5.155   4.204   7.963 -1.4377  1.2844  2.2235
  126OSM   H14T13481   5.180   4.378   8.019 -2.7656 -0.4478 -0.0808
  126OSM   C15S13482   5.366   4.260   7.977 -0.0931 -0.5325  1.1078
  126OSM   H15S13483   5.436   4.338   7.939 -1.2287 -0.0408  0.0019
  126OSM   H15T13484   5.385   4.177   7.905  1.9082  0.4121  0.5229
  126OSM   C16S13485   5.418   4.202   8.110  0.0614  0.3274  0.3763
  126OSM   H16S13486   5.528   4.193   8.116 -0.1090 -2.4732 -0.2721
  126OSM   H16T13487   5.379   4.098   8.111  1.6570 -0.2964 -0.8342
  126OSM   C17S13488   5.354   4.278   8.230 -0.3945  0.0908 -0.8247
  126OSM   H17S13489   5.245   4.260   8.220 -0.7766  1.5907  0.4873
  126OSM   H17T13490   5.366   4.388   8.226  1.2299  0.0405  1.5369
  126OSM   C18S13491   5.408   4.239   8.368  0.1268  0.1432  0.8815
  126OSM   H18S13492   5.392   4.130   8.388  1.7229 -0.2143  0.2461
  126OSM   H18T13493   5.361   4.302   8.447 -2.4081  2.1962 -2.1696
  126OSM   H18U13494   5.517   4.251   8.386  0.2332 -0.5211  0.7058
  126OSM    C1F13495   4.552   4.840   6.983  0.6241  0.3256 -0.4930
  126OSM     OF13496   4.456   4.808   6.908  0.7317  0.1940 -0.4198
  126OSM    C2F13497   4.527   4.892   7.114 -0.1044 -0.7061 -0.3409
  126OSM    H2F13498   4.561   4.997   7.107 -4.5049  1.0134  2.2514
  126OSM    H2G13499   4.588   4.832   7.186 -0.0981  0.5644  0.7252
  126OSM    C3F13500   4.384   4.881   7.178 -0.3931 -0.1721  0.4844
  126OSM    H3F13501   4.350   4.776   7.195 -0.5408  0.2297  2.8553
  126OSM    H3G13502   4.312   4.919   7.103  1.5802  0.0456 -1.3600
  126OSM    C4F13503   4.373   4.954   7.315  0.0012 -0.2465 -0.6611
  126OSM    H4F13504   4.263   4.969   7.323  0.3749  1.2687  2.7358
  126OSM    H4G13505   4.419   5.055   7.302  2.1996 -1.4413 -2.5542
  126OSM    C5F13506   4.432   4.868   7.429  0.8843  0.0931  0.5391
  126OSM    H5F13507   4.543   4.871   7.425  0.9427 -0.8016  1.3605
  126OSM    H5G13508   4.396   4.764   7.421 -0.8244  0.5955  1.5481
  126OSM    C6F13509   4.389   4.921   7.571 -0.0592  1.1818 -0.6131
  126OSM    H6F13510   4.281   4.940   7.584  0.0633  0.3072  1.9722
  126OSM    H6G13511   4.431   5.024   7.574 -0.6755  1.4707 -1.8561
  126OSM    C7F13512   4.439   4.833   7.684  0.4522  0.0716 -0.3478
  126OSM    H7F13513   4.540   4.789   7.667  0.9666  0.9312  0.4919
  126OSM    H7G13514   4.375   4.744   7.668  2.4325 -1.6604  1.0338
  126OSM    C8F13515   4.425   4.883   7.828  0.1615 -0.0116  0.1595
  126OSM    H8F13516   4.439   4.791   7.888  0.2732 -0.3872 -0.4395
  126OSM    H8G13517   4.325   4.931   7.830  0.9072  1.7601 -1.7636
  126OSM    C9F13518   4.532   4.974   7.881  0.5731 -0.4582 -0.3524
  126OSM    H9F13519   4.629   4.969   7.830  0.8432  1.9024 -0.1223
  126OSM   C10F13520   4.520   5.068   7.973 -0.9354 -0.2158 -0.0240
  126OSM   H10F13521   4.610   5.125   8.000 -0.2773 -2.3910  2.6180
  126OSM   C11F13522   4.395   5.097   8.051  0.5814  0.1119  0.7218
  126OSM   H11F13523   4.312   5.028   8.026 -1.3850  2.7863 -0.3237
  126OSM   H11G13524   4.358   5.202   8.047  0.9477  0.1997 -0.4946
  126OSM   C12F13525   4.420   5.066   8.201 -0.3280 -0.1919 -0.1891
  126OSM   H12F13526   4.443   4.958   8.213  0.9975 -0.0477 -1.3601
  126OSM   H12G13527   4.334   5.095   8.265  1.0475  0.1662  1.5215
  126OSM   C13F13528   4.544   5.135   8.260 -0.3619 -0.0489 -0.9925
  126OSM   H13F13529   4.566   5.235   8.217  1.1857  0.1538  0.2228
  126OSM   H13G13530   4.630   5.069   8.235  1.8044  3.2913 -2.6857
  126OSM   C14F13531   4.521   5.143   8.416 -0.3119  0.3603  0.3688
  126OSM   H14F13532   4.438   5.213   8.441 -1.2846 -1.6547  2.9366
  126OSM   H14G13533   4.613   5.185   8.462  1.2473 -2.6101  0.0749
  126OSM   C15F13534   4.484   5.013   8.489  0.4733  0.7389 -0.3248
  126OSM   H15F13535   4.389   4.974   8.446 -0.3723 -1.1175  2.9986
  126OSM   H15G13536   4.462   5.033   8.596  0.0279 -1.7012  0.0876
  126OSM   C16F13537   4.582   4.899   8.498  0.3479  0.3998 -0.6050
  126OSM   H16F13538   4.672   4.933   8.552  0.2237 -0.9064  0.4650
  126OSM   H16G13539   4.616   4.877   8.395  0.7080  3.5382 -1.1787
  126OSM   C17F13540   4.535   4.762   8.564  1.0492  0.1528 -0.3778
  126OSM   H17F13541   4.606   4.681   8.538 -0.9489 -1.3540 -1.2170
  126OSM   H17G13542   4.444   4.718   8.518  1.4422  1.4798 -2.4919
  126OSM   C18F13543   4.501   4.785   8.712  0.6124 -0.2099 -0.4677
  126OSM   H18F13544   4.410   4.849   8.719 -0.2252 -1.5882  1.4019
  126OSM   H18G13545   4.581   4.835   8.771 -1.0106 -0.0180  1.6344
  126OSM   H18H13546   4.475   4.689   8.761  1.1132 -2.1456 -3.8292
  127OSM      N13547   5.415   3.317   6.492  0.0031  0.0378  0.0814
  127OSM    C1513548   5.348   3.447   6.453 -0.6546 -0.1913 -0.0481
  127OSM   H15A13549   5.257   3.427   6.398 -1.5256  1.7976  0.6131
  127OSM   H15B13550   5.410   3.495   6.379  0.7794 -0.3346  1.0236
  127OSM   H15C13551   5.324   3.509   6.539 -0.1360  0.2138 -0.1915
  127OSM    C1413552   5.540   3.358   6.575  0.1111  0.4630 -0.1107
  127OSM   H14A13553   5.606   3.274   6.590 -0.7783  0.0654  1.8171
  127OSM   H14B13554   5.513   3.402   6.670  1.2487 -1.5350  1.1939
  127OSM   H14C13555   5.588   3.441   6.525  0.8860  0.5143  0.7039
  127OSM    C1313556   5.321   3.246   6.578  0.5752  0.3988  0.3737
  127OSM   H13A13557   5.283   3.313   6.654 -0.6299 -0.2707  0.3733
  127OSM   H13B13558   5.380   3.165   6.619 -0.1813 -0.1167  0.4595
  127OSM   H13C13559   5.240   3.205   6.518 -0.1925  1.2047  0.8466
  127OSM    C1213560   5.452   3.235   6.367  0.1698 -0.2754  0.7304
  127OSM   H12A13561   5.360   3.217   6.314  0.9333 -0.7693 -0.4400
  127OSM   H12B13562   5.476   3.131   6.382 -1.7608 -0.9881 -0.9200
  127OSM    C1113563   5.557   3.290   6.273 -0.3098 -0.3276 -0.1253
  127OSM   H11A13564   5.552   3.401   6.273  2.5721 -0.1220 -2.6587
  127OSM   H11B13565   5.535   3.249   6.172  1.1363  0.2327 -0.6852
  127OSM      P13566   5.756   3.110   6.272 -0.0108 -0.0872  0.1226
  127OSM    O1313567   5.670   2.997   6.304 -0.2145 -0.8383  0.7747
  127OSM    O1413568   5.796   3.137   6.132 -0.2207 -0.1601 -0.2663
  127OSM    O1113569   5.889   3.107   6.363 -0.4269 -0.4164 -0.2394
  127OSM    O1213570   5.688   3.243   6.316 -0.0670  0.1354 -0.0704
  127OSM    C1S13571   5.866   3.146   6.501 -0.1366 -0.1069  0.2718
  127OSM    H1S13572   5.765   3.178   6.533  0.0101  0.6976 -0.0719
  127OSM    H1T13573   5.918   3.240   6.528 -1.9074  0.8586  0.3685
  127OSM     NF13574   5.914   3.065   6.725 -0.2915  0.4388  0.1656
  127OSM    HNF13575   6.001   3.086   6.769  0.5970 -0.2882 -1.1937
  127OSM    C2S13576   5.923   3.032   6.591 -0.0774  0.1823 -0.6444
  127OSM    H2S13577   5.851   2.951   6.568 -0.8798  1.3303 -2.3343
  127OSM    C3S13578   6.066   2.974   6.540  0.0888 -0.7944  0.0510
  127OSM    H3S13579   6.138   3.058   6.534  1.0939 -1.6707 -0.4624
  127OSM     O313580   6.057   2.925   6.407  0.2401  0.4707 -0.6592
  127OSM    HO313581   5.981   2.971   6.371 -0.0627  0.9089  0.5115
  127OSM    C4S13582   6.107   2.864   6.638 -0.0192 -0.3145  0.2541
  127OSM    H4S13583   6.024   2.800   6.670 -0.6354 -0.3890 -1.4689
  127OSM    C5S13584   6.237   2.847   6.678 -0.5110  0.5181  0.1863
  127OSM    H5S13585   6.322   2.899   6.632  0.6716 -1.9522 -0.5055
  127OSM    C6S13586   6.285   2.738   6.765  0.0824  0.3093  0.2245
  127OSM    H6S13587   6.334   2.783   6.853 -0.0343  1.3337 -0.2334
  127OSM    H6T13588   6.372   2.689   6.716  1.0532 -1.4463  3.5692
  127OSM    C7S13589   6.191   2.616   6.791  0.3459 -0.0156 -0.0785
  127OSM    H7S13590   6.140   2.582   6.699 -0.4009  0.8098  0.0272
  127OSM    H7T13591   6.110   2.650   6.859 -0.8196 -0.9158 -0.9907
  127OSM    C8S13592   6.246   2.490   6.858 -0.2635 -0.5240  0.6100
  127OSM    H8S13593   6.310   2.522   6.943  1.2703 -0.1135 -0.6702
  127OSM    H8T13594   6.312   2.442   6.782 -0.7369  0.1529 -0.2283
  127OSM    C9S13595   6.139   2.400   6.901  0.2114 -0.0873  0.2215
  127OSM    H9S13596   6.071   2.362   6.822 -0.3873  0.4588  0.4643
  127OSM    H9T13597   6.082   2.445   6.986  0.1573 -1.2049  0.7821
  127OSM   C10S13598   6.196   2.278   6.969  0.6794 -0.0450 -0.0748
  127OSM   H10S13599   6.266   2.312   7.048  0.3295  1.3800 -0.3704
  127OSM   H10T13600   6.255   2.219   6.896 -0.5280  1.0194 -1.9587
  127OSM   C11S13601   6.092   2.192   7.039  0.4338 -0.3987 -0.0676
  127OSM   H11S13602   6.031   2.143   6.960 -1.4736 -0.3770  1.3580
  127OSM   H11T13603   6.028   2.273   7.079 -0.2952 -0.8814 -0.2297
  127OSM   C12S13604   6.141   2.101   7.143 -0.5541  0.3796 -0.5488
  127OSM   H12S13605   6.184   2.164   7.225 -0.4131 -0.5728  0.1238
  127OSM   H12T13606   6.222   2.043   7.093  0.5378  2.3867 -1.1852
  127OSM   C13S13607   6.030   2.011   7.201  0.0739 -0.2216 -0.4685
  127OSM   H13S13608   5.969   1.962   7.122  1.4019 -1.9070 -0.4830
  127OSM   H13T13609   5.954   2.059   7.267  0.1193 -0.2626 -0.3887
  127OSM   C14S13610   6.103   1.907   7.287 -0.1043  0.7256  0.4610
  127OSM   H14S13611   6.186   1.867   7.225  1.3229 -0.4044  3.0431
  127OSM   H14T13612   6.029   1.825   7.300 -0.7541  1.4107  1.0891
  127OSM   C15S13613   6.170   1.943   7.419 -0.3867 -0.0865  0.8322
  127OSM   H15S13614   6.108   2.002   7.490  1.7401  1.8335  1.1618
  127OSM   H15T13615   6.250   2.019   7.405  0.3885 -0.9056  0.7596
  127OSM   C16S13616   6.223   1.827   7.500 -0.1028 -0.5909  0.1942
  127OSM   H16S13617   6.317   1.785   7.459 -0.8782 -2.0855 -0.0824
  127OSM   H16T13618   6.155   1.739   7.503 -1.2603  0.3224  1.4213
  127OSM   C17S13619   6.275   1.866   7.642 -0.4315  0.1673 -0.1712
  127OSM   H17S13620   6.186   1.902   7.699  1.3356 -1.3907  3.7709
  127OSM   H17T13621   6.341   1.954   7.627 -0.7030 -0.3445 -5.4682
  127OSM   C18S13622   6.349   1.752   7.718 -0.3206 -0.7798  0.0541
  127OSM   H18S13623   6.289   1.660   7.704 -2.1903  0.1192  1.9110
  127OSM   H18T13624   6.377   1.785   7.821  1.3264  0.1122 -0.6581
  127OSM   H18U13625   6.449   1.742   7.670 -1.1345 -0.6864 -1.6861
  127OSM    C1F13626   5.796   3.083   6.793  0.4893 -0.0317 -0.1396
  127OSM     OF13627   5.695   3.040   6.742  0.4542  0.2685  0.2074
  127OSM    C2F13628   5.803   3.157   6.920 -0.2637 -0.1490  0.2117
  127OSM    H2F13629   5.704   3.198   6.947 -0.6949 -1.0611  0.0249
  127OSM    H2G13630   5.871   3.245   6.924 -0.0674 -0.1706 -1.7517
  127OSM    C3F13631   5.846   3.076   7.040 -0.1225 -0.3132 -0.8605
  127OSM    H3F13632   5.947   3.034   7.020  0.6793  1.1520  0.0223
  127OSM    H3G13633   5.773   2.993   7.045 -0.4051  0.0389  1.1216
  127OSM    C4F13634   5.846   3.156   7.169 -0.1780  0.4535  0.5044
  127OSM    H4F13635   5.746   3.201   7.186  0.0996  0.6879  1.5610
  127OSM    H4G13636   5.920   3.238   7.156 -1.2472  1.1599 -1.2727
  127OSM    C5F13637   5.875   3.069   7.289 -0.0178 -0.1501 -0.5925
  127OSM    H5F13638   5.958   2.996   7.273  1.1941  0.7513  1.3401
  127OSM    H5G13639   5.779   3.016   7.305 -0.0620 -1.3828 -4.3204
  127OSM    C6F13640   5.925   3.144   7.415  0.1569 -0.2786  0.0343
  127OSM    H6F13641   5.957   3.071   7.493  0.8088 -0.3406 -0.2894
  127OSM    H6G13642   5.835   3.192   7.459  0.0636 -0.8326  0.4589
  127OSM    C7F13643   6.026   3.261   7.382  0.0416 -0.1752 -0.2286
  127OSM    H7F13644   5.973   3.346   7.333  1.1399  0.4991 -0.2643
  127OSM    H7G13645   6.092   3.212   7.307  0.1417 -1.6887  0.8203
  127OSM    C8F13646   6.095   3.315   7.504  0.0570  0.3502 -0.3256
  127OSM    H8F13647   6.021   3.346   7.581 -1.0920  0.6523 -1.5323
  127OSM    H8G13648   6.161   3.398   7.470 -2.2004  2.4655  0.3552
  127OSM    C9F13649   6.176   3.209   7.573  0.3222 -0.3526  0.4376
  127OSM    H9F13650   6.254   3.154   7.519  1.8473  0.4718  1.7517
  127OSM   C10F13651   6.149   3.161   7.699  0.2839 -0.6182 -0.0518
  127OSM   H10F13652   6.224   3.092   7.740  0.4482 -0.7527 -0.5725
  127OSM   C11F13653   6.040   3.206   7.792 -0.0299 -0.6202 -0.3318
  127OSM   H11F13654   5.959   3.130   7.789  0.1607 -0.7509 -2.7234
  127OSM   H11G13655   5.993   3.305   7.774 -0.6325 -0.6531  0.9883
  127OSM   C12F13656   6.105   3.218   7.939 -0.0456 -0.4237 -0.0307
  127OSM   H12F13657   6.189   3.290   7.948 -0.7672  0.4836 -0.4979
  127OSM   H12G13658   6.141   3.119   7.975  1.1712  0.4778  1.2895
  127OSM   C13F13659   5.992   3.279   8.025  0.0646 -0.0098 -0.7026
  127OSM   H13F13660   5.908   3.206   8.017 -1.4315  1.5124  0.6705
  127OSM   H13G13661   5.961   3.379   7.988  1.6670  1.0686  0.7988
  127OSM   C14F13662   6.044   3.301   8.170 -0.2565 -0.3691 -0.1740
  127OSM   H14F13663   5.967   3.358   8.226  0.1800 -1.4449  1.5518
  127OSM   H14G13664   6.137   3.362   8.168 -0.6177  0.1782 -0.3058
  127OSM   C15F13665   6.071   3.173   8.243 -0.6065  0.4353  0.2292
  127OSM   H15F13666   6.143   3.119   8.178  0.1595  2.2602 -0.4784
  127OSM   H15G13667   5.976   3.116   8.246 -0.0594 -0.5008 -0.1970
  127OSM   C16F13668   6.119   3.206   8.385  0.3991 -0.3097 -0.7060
  127OSM   H16F13669   6.040   3.276   8.420 -1.9741 -2.6331 -1.2089
  127OSM   H16G13670   6.221   3.250   8.388  0.0071  0.7874 -2.4645
  127OSM   C17F13671   6.124   3.088   8.486 -0.6149  0.0437  0.4277
  127OSM   H17F13672   6.199   3.012   8.455  0.0285  0.3058  1.3250
  127OSM   H17G13673   6.029   3.031   8.484 -1.7007  1.8166 -0.0024
  127OSM   C18F13674   6.158   3.131   8.628  0.3560  0.4156  0.5405
  127OSM   H18F13675   6.064   3.168   8.673  0.9292  0.4654  1.7078
  127OSM   H18G13676   6.228   3.217   8.628 -1.7877  2.2029 -0.0583
  127OSM   H18H13677   6.187   3.045   8.692 -1.6457  2.1444  3.8870
  128OSM      N13678   1.947   6.129   6.023 -0.2091  0.2945  0.0301
  128OSM    C1513679   2.056   6.179   5.939 -0.3289 -0.3202  0.0688
  128OSM   H15A13680   2.133   6.224   6.001  1.4415 -0.7890 -1.7384
  128OSM   H15B13681   2.026   6.256   5.870  1.3098 -1.9131 -2.4951
  128OSM   H15C13682   2.098   6.098   5.882 -0.5702 -0.0527 -0.4988
  128OSM    C1413683   1.846   6.057   5.947 -1.1031  0.4294  0.2433
  128OSM   H14A13684   1.815   6.107   5.857 -2.0176  0.8992  0.8133
  128OSM   H14B13685   1.763   6.048   6.015 -1.8545  0.3911 -0.6793
  128OSM   H14C13686   1.887   5.962   5.914 -0.8359  0.9207 -0.8589
  128OSM    C1313687   1.994   6.027   6.119  0.7014 -0.0917 -0.1390
  128OSM   H13A13688   1.913   5.997   6.183  2.0863 -0.0193  1.6951
  128OSM   H13B13689   2.076   6.069   6.175  0.4361 -2.0134  1.7796
  128OSM   H13C13690   2.024   5.933   6.075  1.2964  0.1392 -0.2283
  128OSM    C1213691   1.871   6.241   6.097 -0.0969 -0.5689 -0.5552
  128OSM   H12A13692   1.827   6.302   6.019 -0.2586 -2.0217 -1.6161
  128OSM   H12B13693   1.930   6.312   6.153  0.7813 -1.3783 -0.4436
  128OSM    C1113694   1.768   6.191   6.204 -0.5358  0.4206 -0.4977
  128OSM   H11A13695   1.735   6.284   6.255  2.7261  0.1757  2.3139
  128OSM   H11B13696   1.817   6.139   6.290 -1.7374  2.6631  1.5865
  128OSM      P13697   1.517   6.162   6.120  0.4034  0.4061  0.0656
  128OSM    O1313698   1.518   6.272   6.021  0.0520 -0.2604 -0.6335
  128OSM    O1413699   1.432   6.043   6.089  0.2986 -0.1381 -0.4281
  128OSM    O1113700   1.484   6.227   6.262 -0.2445  0.1451  0.0269
  128OSM    O1213701   1.660   6.111   6.150  0.0026  0.0696 -0.7765
  128OSM    C1S13702   1.464   6.138   6.380  0.5468 -1.0807  0.3189
  128OSM    H1S13703   1.517   6.040   6.378 -0.3774 -1.5677 -1.0873
  128OSM    H1T13704   1.355   6.120   6.390 -0.2518  2.2672 -1.7276
  128OSM     NF13705   1.479   6.126   6.631  0.8064 -0.3261  0.3175
  128OSM    HNF13706   1.400   6.157   6.684 -0.8727 -0.1049 -2.2161
  128OSM    C2S13707   1.509   6.207   6.512  0.1146 -0.1274 -0.4470
  128OSM    H2S13708   1.618   6.230   6.514 -0.5074  3.0282 -0.3974
  128OSM    C3S13709   1.442   6.354   6.529 -0.9886  0.1591 -0.2611
  128OSM    H3S13710   1.331   6.342   6.526 -0.9007 -0.6609 -0.3946
  128OSM     O313711   1.461   6.435   6.414 -0.2027  0.1574 -0.1621
  128OSM    HO313712   1.475   6.375   6.340 -0.0948  1.0190 -0.8420
  128OSM    C4S13713   1.469   6.421   6.657 -0.3996 -0.0765  0.0304
  128OSM    H4S13714   1.392   6.394   6.730  0.0120  1.5293  1.0912
  128OSM    C5S13715   1.566   6.509   6.696 -0.6467  0.3137 -0.2590
  128OSM    H5S13716   1.636   6.548   6.620 -1.6676  1.4177 -0.6699
  128OSM    C6S13717   1.586   6.576   6.829 -0.3116 -0.8622  0.3768
  128OSM    H6S13718   1.495   6.603   6.888  0.6439  2.0542  0.6115
  128OSM    H6T13719   1.633   6.674   6.805 -1.1598 -0.6154 -0.2883
  128OSM    C7S13720   1.669   6.498   6.933  0.1516  0.2175  0.3596
  128OSM    H7S13721   1.771   6.468   6.899  0.7441  0.8689  1.5114
  128OSM    H7T13722   1.612   6.407   6.961  2.7637 -1.2662  1.0744
  128OSM    C8S13723   1.681   6.591   7.059 -0.1908 -0.3007 -0.1322
  128OSM    H8S13724   1.580   6.623   7.092 -1.0390 -2.1561 -0.8063
  128OSM    H8T13725   1.738   6.682   7.030  0.4226 -0.5208  0.3893
  128OSM    C9S13726   1.741   6.511   7.169 -1.0864 -0.1878  0.3341
  128OSM    H9S13727   1.847   6.481   7.155 -1.0985 -0.1695  0.2016
  128OSM    H9T13728   1.682   6.419   7.186  0.0219 -1.2054 -1.2233
  128OSM   C10S13729   1.742   6.597   7.306  1.3812  0.5732 -0.2566
  128OSM   H10S13730   1.641   6.635   7.331  2.3496  1.0036  3.2930
  128OSM   H10T13731   1.799   6.692   7.296 -0.1561  1.3741 -1.6673
  128OSM   C11S13732   1.791   6.518   7.426  0.0529 -1.0505  0.3359
  128OSM   H11S13733   1.901   6.507   7.427  0.2906  1.0930  0.2876
  128OSM   H11T13734   1.738   6.420   7.428 -1.0911 -0.4740 -0.8095
  128OSM   C12S13735   1.752   6.595   7.560 -0.0768  0.4235  0.7132
  128OSM   H12S13736   1.644   6.621   7.564 -0.4373 -1.2416  2.9096
  128OSM   H12T13737   1.813   6.687   7.562  0.8717 -0.1944  0.4157
  128OSM   C13S13738   1.775   6.519   7.693  0.0143  0.3323 -0.7375
  128OSM   H13S13739   1.884   6.498   7.697  0.1599  1.3988  1.8197
  128OSM   H13T13740   1.725   6.420   7.694 -0.4140  0.5464  0.0929
  128OSM   C14S13741   1.728   6.609   7.814  0.2224 -0.3354  0.5823
  128OSM   H14S13742   1.620   6.631   7.805  0.2323 -1.3104 -2.1417
  128OSM   H14T13743   1.786   6.704   7.814 -0.8806  0.3550  1.3218
  128OSM   C15S13744   1.745   6.530   7.939  0.1535 -0.7274 -0.6428
  128OSM   H15S13745   1.849   6.492   7.934  0.4404  0.2933 -2.7461
  128OSM   H15T13746   1.663   6.455   7.945 -2.1318  1.7089 -0.3654
  128OSM   C16S13747   1.742   6.615   8.073 -0.2182 -0.5516 -0.2162
  128OSM   H16S13748   1.647   6.667   8.095  0.1726  0.3840 -0.7422
  128OSM   H16T13749   1.805   6.703   8.052 -2.4756  1.0821 -0.3223
  128OSM   C17S13750   1.789   6.524   8.188  0.5597  0.2027 -0.1007
  128OSM   H17S13751   1.892   6.491   8.162  0.0213 -0.0924 -1.9546
  128OSM   H17T13752   1.732   6.428   8.182 -0.3197  0.6057  1.7126
  128OSM   C18S13753   1.785   6.602   8.324  0.2131  0.6716  0.3441
  128OSM   H18S13754   1.809   6.546   8.416  1.2285  1.3850  0.5194
  128OSM   H18T13755   1.680   6.638   8.335 -0.0773 -0.2059  0.4474
  128OSM   H18U13756   1.853   6.689   8.318  0.6135  0.3531  0.2971
  128OSM    C1F13757   1.535   6.009   6.660 -0.2743  0.3708 -0.2343
  128OSM     OF13758   1.607   5.945   6.585  0.1625 -0.5754 -0.7186
  128OSM    C2F13759   1.505   5.959   6.801  0.5112  0.7766 -0.8989
  128OSM    H2F13760   1.414   5.894   6.798  1.3986 -0.5217 -0.0279
  128OSM    H2G13761   1.494   6.043   6.873 -2.0438  0.7242 -1.1757
  128OSM    C3F13762   1.616   5.863   6.861  0.3854  0.0790  0.7078
  128OSM    H3F13763   1.704   5.927   6.886  1.8343 -0.4784 -2.7926
  128OSM    H3G13764   1.641   5.789   6.782  1.7923  1.6268 -0.3213
  128OSM    C4F13765   1.561   5.803   6.988  0.4886 -0.0306  0.0028
  128OSM    H4F13766   1.462   5.761   6.959 -0.0051  0.3947  1.0516
  128OSM    H4G13767   1.549   5.881   7.066 -2.0401  2.7085 -2.9301
  128OSM    C5F13768   1.654   5.704   7.053 -0.0928  0.2563 -0.5250
  128OSM    H5F13769   1.756   5.744   7.032 -0.3061  0.4906 -1.1416
  128OSM    H5G13770   1.625   5.603   7.018 -2.8614  0.6893  0.4445
  128OSM    C6F13771   1.650   5.695   7.215 -0.1180  0.0218  0.6426
  128OSM    H6F13772   1.653   5.794   7.265  1.7420  0.8271 -0.9947
  128OSM    H6G13773   1.742   5.643   7.247  0.6390  1.2424  0.4833
  128OSM    C7F13774   1.520   5.620   7.261 -0.6633 -0.1255  0.1431
  128OSM    H7F13775   1.513   5.527   7.200  1.0778 -0.1792  0.0018
  128OSM    H7G13776   1.439   5.680   7.215  0.2894  0.9030 -0.2012
  128OSM    C8F13777   1.494   5.594   7.410 -0.1886  0.7127 -0.5001
  128OSM    H8F13778   1.577   5.542   7.462  0.0648  3.3101  1.8044
  128OSM    H8G13779   1.403   5.531   7.415 -0.4204  1.2167  2.2062
  128OSM    C9F13780   1.464   5.722   7.477  0.0148 -0.6313 -0.0196
  128OSM    H9F13781   1.387   5.781   7.425  0.2307 -1.3515 -1.1924
  128OSM   C10F13782   1.519   5.765   7.589  0.6830 -0.1230 -0.0615
  128OSM   H10F13783   1.498   5.868   7.620  0.8528  0.4402 -1.8032
  128OSM   C11F13784   1.627   5.695   7.667  0.2476  0.8425 -0.7680
  128OSM   H11F13785   1.728   5.697   7.621  0.7170  1.1021  0.2558
  128OSM   H11G13786   1.601   5.588   7.680 -4.1132  1.6810 -1.6413
  128OSM   C12F13787   1.651   5.750   7.810 -0.0671  0.0737 -0.0859
  128OSM   H12F13788   1.662   5.860   7.802 -1.4495  0.2841  0.8119
  128OSM   H12G13789   1.755   5.730   7.847  0.0232 -1.8764 -1.3121
  128OSM   C13F13790   1.544   5.722   7.916  0.0058 -0.5081 -0.2958
  128OSM   H13F13791   1.528   5.612   7.918  1.4528 -0.7208  1.5623
  128OSM   H13G13792   1.454   5.780   7.888 -0.5249 -0.5278  1.2914
  128OSM   C14F13793   1.592   5.765   8.056 -0.6770  0.2915  0.2292
  128OSM   H14F13794   1.593   5.876   8.062 -2.3382  0.2641  1.3206
  128OSM   H14G13795   1.694   5.731   8.084 -1.4422  0.4234  3.3827
  128OSM   C15F13796   1.505   5.721   8.176 -0.4516 -0.0351 -0.1183
  128OSM   H15F13797   1.499   5.610   8.185  0.6192 -0.0895  0.0240
  128OSM   H15G13798   1.404   5.764   8.159 -1.2808 -2.3750 -1.4392
  128OSM   C16F13799   1.557   5.777   8.311 -0.0076  0.1754  0.1261
  128OSM   H16F13800   1.566   5.887   8.298 -0.1437 -0.0003 -1.5324
  128OSM   H16G13801   1.661   5.743   8.330 -0.3645 -0.4165  1.0171
  128OSM   C17F13802   1.470   5.723   8.422 -0.1779  0.4927 -0.2727
  128OSM   H17F13803   1.459   5.614   8.404 -2.8867  0.5942  0.4638
  128OSM   H17G13804   1.370   5.772   8.426 -0.7774 -0.7439  0.2917
  128OSM   C18F13805   1.538   5.753   8.553  0.6766 -0.7148  0.6222
  128OSM   H18F13806   1.642   5.714   8.553  1.1977  0.6523 -0.1358
  128OSM   H18G13807   1.480   5.717   8.640 -0.2608 -0.7987 -0.0347
  128OSM   H18H13808   1.553   5.863   8.556  0.5935 -0.6949  0.3244
  129OSM      N13809   5.973   2.798   5.995 -0.2179 -0.6059 -1.1126
  129OSM    C1513810   6.093   2.724   5.950 -0.1464  0.3365  0.5310
  129OSM   H15A13811   6.180   2.773   5.992 -1.2049  1.9560  0.8730
  129OSM   H15B13812   6.115   2.737   5.845  0.2267  2.6487  0.8538
  129OSM   H15C13813   6.094   2.618   5.972 -3.2458  0.4089  1.3663
  129OSM    C1413814   5.986   2.948   5.946  1.4939  1.0107  0.0194
  129OSM   H14A13815   6.087   2.977   5.971  2.2638 -0.3102 -1.4636
  129OSM   H14B13816   5.907   2.999   5.999  1.0993 -1.4118  1.8500
  129OSM   H14C13817   5.975   2.956   5.839  0.4330 -0.6279 -0.0033
  129OSM    C1313818   5.847   2.744   5.929 -0.6411 -0.1836 -0.6563
  129OSM   H13A13819   5.852   2.744   5.821 -1.0737 -0.5015 -0.6773
  129OSM   H13B13820   5.770   2.815   5.955 -0.3940 -0.5169  1.0557
  129OSM   H13C13821   5.822   2.648   5.972 -2.4961  2.2638  4.1095
  129OSM    C1213822   5.962   2.802   6.140  0.9877 -1.0143 -1.5935
  129OSM   H12A13823   5.873   2.856   6.167  1.4841 -1.5945  1.3499
  129OSM   H12B13824   6.046   2.858   6.178  2.0913 -2.3158 -2.0720
  129OSM    C1113825   5.958   2.666   6.217 -0.1320  0.0038 -0.2752
  129OSM   H11A13826   5.980   2.702   6.320 -1.2444 -1.9215  0.6506
  129OSM   H11B13827   6.049   2.609   6.187  0.2200 -0.6144  1.9400
  129OSM      P13828   5.840   2.438   6.218  0.3550  0.0964 -0.2542
  129OSM    O1313829   5.731   2.388   6.136 -0.7479  0.0834  0.1533
  129OSM    O1413830   5.974   2.377   6.208  0.2664 -0.1712 -0.1455
  129OSM    O1113831   5.802   2.424   6.368 -0.0424  0.1698  0.3114
  129OSM    O1213832   5.836   2.594   6.199  0.1095  0.3645 -0.5914
  129OSM    C1S13833   5.668   2.469   6.412  0.0020  0.4214 -0.1513
  129OSM    H1S13834   5.601   2.384   6.389 -0.9171  0.6941  1.4341
  129OSM    H1T13835   5.628   2.560   6.361 -0.7018 -1.1126 -2.4156
  129OSM     NF13836   5.522   2.501   6.606 -0.7482  0.3348  0.0559
  129OSM    HNF13837   5.493   2.597   6.609  1.2298  0.9392  0.1905
  129OSM    C2S13838   5.664   2.499   6.563 -0.0582  0.4471 -0.0668
  129OSM    H2S13839   5.722   2.419   6.614  0.3126  0.8089  0.0700
  129OSM    C3S13840   5.751   2.627   6.585 -0.7270 -0.6630  0.2776
  129OSM    H3S13841   5.703   2.700   6.517  0.1768 -1.6720 -1.4891
  129OSM     O313842   5.884   2.617   6.532 -0.2315 -0.7161 -0.3803
  129OSM    HO313843   5.879   2.528   6.497  1.5634 -1.9751  2.3814
  129OSM    C4S13844   5.759   2.678   6.731 -0.0150  0.1230  0.2876
  129OSM    H4S13845   5.704   2.773   6.741 -0.9901 -0.3951 -0.0104
  129OSM    C5S13846   5.828   2.616   6.824 -0.0640  0.4853 -0.3550
  129OSM    H5S13847   5.892   2.531   6.796 -1.4796 -0.8795  0.4787
  129OSM    C6S13848   5.835   2.650   6.969  0.3845 -0.2443 -0.0881
  129OSM    H6S13849   5.896   2.743   6.972 -0.9980  0.7337 -1.2430
  129OSM    H6T13850   5.874   2.566   7.030  4.1134  1.1631 -0.3774
  129OSM    C7S13851   5.703   2.699   7.035 -0.2072 -0.1172 -0.0883
  129OSM    H7S13852   5.622   2.626   7.011 -1.4517  1.2791 -0.1921
  129OSM    H7T13853   5.681   2.807   7.021  2.6230  0.4698 -0.2810
  129OSM    C8S13854   5.716   2.688   7.189 -0.0638  0.4465 -0.1882
  129OSM    H8S13855   5.804   2.742   7.232 -0.2965 -0.5406  1.5789
  129OSM    H8T13856   5.725   2.581   7.216  1.4020  1.3047  3.0319
  129OSM    C9S13857   5.586   2.738   7.252 -1.3087 -1.0996 -0.4720
  129OSM    H9S13858   5.492   2.681   7.235  0.3202 -3.8359 -0.6462
  129OSM    H9T13859   5.563   2.836   7.204  0.9320 -0.4673 -0.3426
  129OSM   C10S13860   5.600   2.773   7.400  0.0200  0.3843  0.2590
  129OSM   H10S13861   5.502   2.812   7.432  0.4817  0.8383  1.1335
  129OSM   H10T13862   5.655   2.870   7.408 -1.1856  1.1388 -0.5098
  129OSM   C11S13863   5.656   2.658   7.489 -0.0281  0.5042 -0.3328
  129OSM   H11S13864   5.746   2.604   7.450  0.8762  2.1088 -0.5080
  129OSM   H11T13865   5.575   2.587   7.514  2.0230 -1.2047  1.7756
  129OSM   C12S13866   5.705   2.714   7.625  0.2549  0.1037 -1.3870
  129OSM   H12S13867   5.762   2.807   7.605  1.6495  0.2165  2.6229
  129OSM   H12T13868   5.774   2.638   7.668 -0.7173 -2.0186 -3.4546
  129OSM   C13S13869   5.584   2.730   7.719  0.0023  0.4109 -0.0523
  129OSM   H13S13870   5.508   2.656   7.687 -0.4545  0.8408  0.0332
  129OSM   H13T13871   5.553   2.835   7.702 -2.0051 -0.3524 -1.2061
  129OSM   C14S13872   5.626   2.707   7.863 -0.8871  0.6238  0.2065
  129OSM   H14S13873   5.689   2.789   7.902  1.5309  0.6731 -3.5247
  129OSM   H14T13874   5.683   2.615   7.888 -1.5571 -0.5459 -2.3171
  129OSM   C15S13875   5.501   2.691   7.952  0.7352  0.3729  0.1710
  129OSM   H15S13876   5.466   2.587   7.935 -0.3215  0.7066  0.3123
  129OSM   H15T13877   5.413   2.755   7.936  0.0461 -0.7857 -0.7734
  129OSM   C16S13878   5.540   2.713   8.103  0.1763  0.3886  0.1828
  129OSM   H16S13879   5.576   2.818   8.117  0.7277  0.6010 -2.5946
  129OSM   H16T13880   5.612   2.640   8.144 -0.5703 -0.0309  0.7433
  129OSM   C17S13881   5.415   2.704   8.181  0.4010  0.4291  0.4412
  129OSM   H17S13882   5.368   2.604   8.171  1.8114 -0.2418  0.3700
  129OSM   H17T13883   5.332   2.768   8.144  0.3717 -0.1390 -0.5005
  129OSM   C18S13884   5.435   2.719   8.329 -0.3813  0.2309  0.0562
  129OSM   H18S13885   5.424   2.829   8.337  0.1330  0.3595 -0.8869
  129OSM   H18T13886   5.527   2.687   8.381  0.1676  0.6686 -0.6364
  129OSM   H18U13887   5.346   2.684   8.385 -0.0175  1.3297  1.3364
  129OSM    C1F13888   5.451   2.389   6.630 -0.7731  0.5788  0.0087
  129OSM     OF13889   5.503   2.276   6.627 -0.3588 -0.1441 -1.0115
  129OSM    C2F13890   5.303   2.411   6.654  0.4747  0.0222  0.1490
  129OSM    H2F13891   5.240   2.340   6.597 -0.1057  0.4577  0.2490
  129OSM    H2G13892   5.276   2.512   6.617  0.5050 -1.2572 -3.6571
  129OSM    C3F13893   5.272   2.397   6.801  0.6441 -0.4714 -0.2333
  129OSM    H3F13894   5.344   2.452   6.865  0.5081 -0.6554  0.0819
  129OSM    H3G13895   5.277   2.291   6.834 -1.6158 -0.8946 -1.1328
  129OSM    C4F13896   5.130   2.429   6.844 -0.0550  0.1633 -0.1768
  129OSM    H4F13897   5.057   2.365   6.789 -1.2442  0.4722  1.0244
  129OSM    H4G13898   5.100   2.532   6.815 -2.2510  0.1498  1.9339
  129OSM    C5F13899   5.106   2.420   7.000 -0.1710 -0.1217 -0.6790
  129OSM    H5F13900   5.137   2.315   7.021 -0.9992 -0.0005  1.2025
  129OSM    H5G13901   4.998   2.429   7.025  0.0013  1.7471 -0.5595
  129OSM    C6F13902   5.190   2.517   7.094  0.4422  0.6067 -0.4638
  129OSM    H6F13903   5.184   2.623   7.062 -0.8069  1.1209  1.3630
  129OSM    H6G13904   5.297   2.491   7.091  0.6099  1.4847 -2.8342
  129OSM    C7F13905   5.152   2.517   7.252  0.8949 -0.8619 -0.0283
  129OSM    H7F13906   5.167   2.408   7.273  1.3150 -0.6255  0.9363
  129OSM    H7G13907   5.043   2.535   7.263  0.9116 -0.1970 -0.9415
  129OSM    C8F13908   5.234   2.609   7.343 -0.3630 -0.4269 -0.8697
  129OSM    H8F13909   5.338   2.599   7.305 -0.1170 -0.4174 -0.2023
  129OSM    H8G13910   5.232   2.548   7.436  3.0269  2.5633  1.3237
  129OSM    C9F13911   5.200   2.751   7.355 -0.2214  0.4099 -0.4040
  129OSM    H9F13912   5.194   2.803   7.258 -1.0681  0.2640 -0.4340
  129OSM   C10F13913   5.192   2.821   7.464 -0.1091 -0.5726 -0.3689
  129OSM   H10F13914   5.176   2.929   7.445 -0.0454 -0.7946 -1.7613
  129OSM   C11F13915   5.210   2.766   7.599  0.0816  0.3971 -0.6486
  129OSM   H11F13916   5.300   2.701   7.592  0.0061  0.4677 -2.4733
  129OSM   H11G13917   5.127   2.696   7.622  1.8953 -2.0333 -1.2529
  129OSM   C12F13918   5.221   2.877   7.709 -0.5333 -0.0764  0.4983
  129OSM   H12F13919   5.307   2.938   7.673  0.4171  0.1785  3.0509
  129OSM   H12G13920   5.253   2.828   7.803 -2.7260 -2.9123 -0.1704
  129OSM   C13F13921   5.097   2.963   7.731  0.2939 -0.2649  0.9282
  129OSM   H13F13922   5.009   2.907   7.768  0.3333 -0.8549  0.1365
  129OSM   H13G13923   5.066   3.009   7.635  0.9694 -0.5064  0.5897
  129OSM   C14F13924   5.128   3.087   7.813 -0.4063 -0.8303 -0.6971
  129OSM   H14F13925   5.190   3.160   7.757 -1.6629  0.5397 -0.3412
  129OSM   H14G13926   5.182   3.056   7.905  0.2677  0.8433 -0.5002
  129OSM   C15F13927   5.000   3.161   7.845 -0.7645  0.3170  0.2819
  129OSM   H15F13928   4.951   3.203   7.755 -0.5113 -2.5644 -1.2844
  129OSM   H15G13929   5.031   3.244   7.912  2.1688 -0.4809 -0.0072
  129OSM   C16F13930   4.884   3.086   7.922  0.8476 -0.1964  0.7389
  129OSM   H16F13931   4.921   3.031   8.011  1.3363  1.5217  1.6313
  129OSM   H16G13932   4.833   3.013   7.856 -2.2694  3.7573 -1.4666
  129OSM   C17F13933   4.772   3.183   7.951  0.3592 -0.1524  0.9833
  129OSM   H17F13934   4.724   3.218   7.857 -0.2887  1.0263  1.7402
  129OSM   H17G13935   4.818   3.277   7.988  0.2499 -0.0815  0.9384
  129OSM   C18F13936   4.674   3.135   8.057  0.2620  0.5881  0.2914
  129OSM   H18F13937   4.629   3.040   8.020 -0.2468  0.4761  1.1806
  129OSM   H18G13938   4.593   3.207   8.083 -1.6185 -1.9863  1.8050
  129OSM   H18H13939   4.721   3.091   8.147  0.9461 -1.9747 -1.2803
  130OSM      N13940   1.743   4.864   6.059  0.6263 -0.3192  1.0560
  130OSM    C1513941   1.833   4.955   5.975  0.4106  0.2191 -0.1236
  130OSM   H15A13942   1.787   5.052   5.967  0.8806  0.6448  1.9885
  130OSM   H15B13943   1.842   4.903   5.881  3.1704 -0.2035  0.3291
  130OSM   H15C13944   1.927   4.966   6.028  2.2725 -3.4795 -2.4623
  130OSM    C1413945   1.626   4.830   5.974  0.7426  0.2477  0.4837
  130OSM   H14A13946   1.546   4.787   6.032  1.1029 -0.5414  0.3985
  130OSM   H14B13947   1.645   4.772   5.885  0.0561 -0.7430  0.9781
  130OSM   H14C13948   1.573   4.919   5.942 -0.8328 -1.3333 -1.4115
  130OSM    C1313949   1.821   4.741   6.094 -0.5306 -0.2074  0.0088
  130OSM   H13A13950   1.763   4.673   6.154  0.3672  0.7679  2.0078
  130OSM   H13B13951   1.911   4.761   6.150  1.0472 -1.1001 -2.1495
  130OSM   H13C13952   1.840   4.678   6.008  0.4289  0.0041  0.0636
  130OSM    C1213953   1.691   4.926   6.187 -0.1566 -0.0815  0.3438
  130OSM   H12A13954   1.772   4.970   6.242 -0.2492  0.6190 -0.0830
  130OSM   H12B13955   1.654   4.844   6.247 -1.1896  0.2842  0.2204
  130OSM    C1113956   1.582   5.035   6.170  0.9723 -0.1735 -0.1872
  130OSM   H11A13957   1.552   5.057   6.275  0.6931  1.3158 -0.5676
  130OSM   H11B13958   1.502   4.983   6.113  1.9530 -2.4624  0.4577
  130OSM      P13959   1.701   5.270   6.189  0.1367 -0.3138  0.5287
  130OSM    O1313960   1.811   5.333   6.113  1.3174 -1.3188 -0.2337
  130OSM    O1413961   1.601   5.370   6.219 -0.1885 -0.0449  0.1500
  130OSM    O1113962   1.760   5.204   6.321  0.1335  0.5187  0.0840
  130OSM    O1213963   1.631   5.152   6.105  0.0644 -0.3708  0.5819
  130OSM    C1S13964   1.691   5.242   6.446  0.5240  0.7835  0.3764
  130OSM    H1S13965   1.581   5.233   6.431  0.3554  0.6875  1.6712
  130OSM    H1T13966   1.718   5.345   6.477  2.1403  0.0204  1.5191
  130OSM     NF13967   1.645   5.162   6.688  0.1035 -0.0022 -0.3375
  130OSM    HNF13968   1.694   5.200   6.766  1.4671 -1.8518 -0.2567
  130OSM    C2S13969   1.710   5.139   6.560  0.2893 -0.0105  0.7319
  130OSM    H2S13970   1.673   5.041   6.521 -1.5088  2.0618 -3.0444
  130OSM    C3S13971   1.868   5.114   6.574 -0.3219  0.0458 -0.1793
  130OSM    H3S13972   1.914   5.211   6.604  0.2922 -0.6503  1.1680
  130OSM     O313973   1.938   5.073   6.458  0.8432 -0.5662  0.0152
  130OSM    HO313974   1.873   5.087   6.389  0.2598 -0.5007  0.5717
  130OSM    C4S13975   1.887   5.017   6.686  0.6087 -0.2166  0.2754
  130OSM    H4S13976   1.828   4.928   6.659 -0.5368  0.6787 -0.2046
  130OSM    C5S13977   1.968   5.028   6.791  0.2709  0.5467 -0.5183
  130OSM    H5S13978   2.043   5.108   6.804  0.4744  0.3250 -0.3061
  130OSM    C6S13979   1.993   4.919   6.901 -0.7789 -0.4942  0.5401
  130OSM    H6S13980   2.099   4.888   6.887  0.4090  2.5520  2.2387
  130OSM    H6T13981   1.927   4.832   6.880 -0.3713 -1.0277  1.4159
  130OSM    C7S13982   1.960   4.985   7.040  0.1777  0.3345 -0.4988
  130OSM    H7S13983   1.856   5.022   7.049  0.1245  1.1038 -3.7313
  130OSM    H7T13984   2.026   5.071   7.065  1.8802 -1.5360  1.7622
  130OSM    C8S13985   1.987   4.884   7.151  0.7896  0.2631 -0.1974
  130OSM    H8S13986   2.096   4.864   7.157  0.6908  0.1104  1.2843
  130OSM    H8T13987   1.931   4.790   7.133  0.4397  0.5496 -0.6022
  130OSM    C9S13988   1.929   4.938   7.284 -0.4913  0.8339 -0.0257
  130OSM    H9S13989   1.819   4.949   7.272 -0.8380 -0.3695  1.8017
  130OSM    H9T13990   1.973   5.038   7.303  0.2954  0.3310  0.8081
  130OSM   C10S13991   1.961   4.832   7.395 -0.1812 -0.5706 -0.3430
  130OSM   H10S13992   2.068   4.804   7.402 -0.4828 -1.2204  2.2645
  130OSM   H10T13993   1.917   4.734   7.365 -1.5977 -0.7618  2.2100
  130OSM   C11S13994   1.902   4.874   7.526 -0.4407  0.0070 -0.8807
  130OSM   H11S13995   1.795   4.901   7.514 -0.2873  2.1146  1.9562
  130OSM   H11T13996   1.946   4.969   7.564 -1.5867  0.3964 -0.5086
  130OSM   C12S13997   1.944   4.787   7.644 -0.0555  0.1657  0.6979
  130OSM   H12S13998   2.054   4.775   7.656  0.1091 -1.6188 -2.1317
  130OSM   H12T13999   1.897   4.687   7.639  0.3448  0.0576 -1.2402
  130OSM   C13S14000   1.904   4.843   7.786 -0.2576  0.3450 -0.1579
  130OSM   H13S14001   1.800   4.878   7.799  0.0041  1.2563 -0.4336
  130OSM   H13T14002   1.969   4.929   7.811 -0.9558  1.7701 -2.9669
  130OSM   C14S14003   1.940   4.747   7.896 -0.5200 -0.2035  0.4424
  130OSM   H14S14004   2.048   4.723   7.885  0.1035  2.5541  0.0770
  130OSM   H14T14005   1.876   4.656   7.892  0.3304 -0.7277 -2.6517
  130OSM   C15S14006   1.931   4.819   8.032 -0.2913  0.1279  0.2155
  130OSM   H15S14007   1.825   4.843   8.059 -0.7946 -2.4925  0.7575
  130OSM   H15T14008   1.984   4.916   8.024 -1.2859  0.5010 -2.7977
  130OSM   C16S14009   2.003   4.742   8.139  0.7306 -0.3490 -0.3478
  130OSM   H16S14010   2.109   4.731   8.107  0.7705 -2.1415  0.3933
  130OSM   H16T14011   1.959   4.640   8.141 -1.1608  0.4590  0.6330
  130OSM   C17S14012   1.984   4.813   8.274 -0.4909  0.6439 -0.5438
  130OSM   H17S14013   1.874   4.812   8.293 -0.3889  1.5189  0.1393
  130OSM   H17T14014   2.022   4.917   8.271  0.0521  0.4376 -0.7982
  130OSM   C18S14015   2.029   4.729   8.398 -0.4377  0.0683  0.2607
  130OSM   H18S14016   1.990   4.767   8.495 -0.4569 -1.7526  0.9735
  130OSM   H18T14017   2.140   4.737   8.399 -0.3939 -0.3803 -0.4488
  130OSM   H18U14018   1.984   4.628   8.386 -0.4329 -0.5346  4.5440
  130OSM    C1F14019   1.514   5.159   6.706 -0.6215  0.1747  0.1648
  130OSM     OF14020   1.446   5.117   6.613  0.0950  0.2869  0.5283
  130OSM    C2F14021   1.465   5.184   6.844  0.9711 -0.1088  0.0782
  130OSM    H2F14022   1.436   5.290   6.856  0.3808 -0.3072  0.4417
  130OSM    H2G14023   1.538   5.150   6.921  0.3091 -0.3691  0.6052
  130OSM    C3F14024   1.339   5.091   6.872  0.0852 -0.2504 -0.1118
  130OSM    H3F14025   1.374   4.991   6.839  2.4466  1.1376 -2.0541
  130OSM    H3G14026   1.248   5.113   6.813 -0.7662 -2.4542  0.3565
  130OSM    C4F14027   1.311   5.075   7.026  0.2510  0.0271  0.7168
  130OSM    H4F14028   1.403   5.045   7.080 -0.0952  1.0950  1.9246
  130OSM    H4G14029   1.227   5.003   7.026  0.7632 -0.6472 -2.1491
  130OSM    C5F14030   1.241   5.202   7.092  0.0551  0.2488  0.3463
  130OSM    H5F14031   1.147   5.218   7.035  1.7234  0.2054 -2.4675
  130OSM    H5G14032   1.309   5.282   7.056  0.1140 -0.2248 -0.6053
  130OSM    C6F14033   1.232   5.203   7.242 -0.3784  0.4496 -0.0634
  130OSM    H6F14034   1.176   5.294   7.273 -2.0294  0.8971 -4.0587
  130OSM    H6G14035   1.337   5.204   7.277 -0.6341 -1.1806  0.7978
  130OSM    C7F14036   1.164   5.082   7.310 -0.6309  0.5016  0.7981
  130OSM    H7F14037   1.230   4.993   7.304 -0.0412  0.9259  0.9609
  130OSM    H7G14038   1.063   5.070   7.264 -1.4198  1.0162  2.3421
  130OSM    C8F14039   1.160   5.091   7.468 -0.0808 -0.3865  0.6030
  130OSM    H8F14040   1.261   5.129   7.494 -0.5841  0.2110  1.7465
  130OSM    H8G14041   1.146   4.990   7.512  0.4967 -1.1372 -0.9225
  130OSM    C9F14042   1.054   5.184   7.512 -0.2153  0.0181  0.8488
  130OSM    H9F14043   0.960   5.163   7.459  0.4554 -1.3673  0.1846
  130OSM   C10F14044   1.063   5.297   7.585  0.5052 -0.0587  0.3484
  130OSM   H10F14045   0.964   5.337   7.612 -0.4392 -2.9958  1.5301
  130OSM   C11F14046   1.190   5.360   7.644  0.1961 -0.2105  0.0208
  130OSM   H11F14047   1.176   5.470   7.641 -0.6908 -0.2860  1.2020
  130OSM   H11G14048   1.272   5.319   7.582 -1.2484 -0.6014 -1.6718
  130OSM   C12F14049   1.215   5.308   7.793  0.0389 -0.2529  0.0031
  130OSM   H12F14050   1.216   5.197   7.782 -1.2743 -0.2839  0.1440
  130OSM   H12G14051   1.127   5.347   7.849 -1.7360  0.3186 -3.0529
  130OSM   C13F14052   1.350   5.355   7.840  0.7123 -0.2149 -0.0000
  130OSM   H13F14053   1.363   5.314   7.943 -3.1956 -1.9969 -0.1103
  130OSM   H13G14054   1.345   5.466   7.842  2.6691 -0.1217 -0.0121
  130OSM   C14F14055   1.467   5.306   7.755 -0.6032  0.0861 -0.9567
  130OSM   H14F14056   1.470   5.330   7.646  1.1689 -2.0160 -1.3926
  130OSM   H14G14057   1.448   5.197   7.760 -1.4566  0.2494 -0.5187
  130OSM   C15F14058   1.602   5.339   7.810 -0.2391 -0.2267  0.2733
  130OSM   H15F14059   1.610   5.291   7.909  1.2900  0.4849  0.5132
  130OSM   H15G14060   1.613   5.449   7.820  1.0599 -0.5992  3.2897
  130OSM   C16F14061   1.724   5.289   7.724  0.1745 -0.3140  0.0302
  130OSM   H16F14062   1.706   5.324   7.620  1.2440  1.1767  0.3246
  130OSM   H16G14063   1.698   5.181   7.727  2.0747 -0.7258  2.0333
  130OSM   C17F14064   1.869   5.319   7.761  0.7423  0.0542 -0.4253
  130OSM   H17F14065   1.891   5.428   7.765  3.4605 -0.5020  0.9620
  130OSM   H17G14066   1.939   5.288   7.681  0.6902 -1.1107 -0.0220
  130OSM   C18F14067   1.913   5.240   7.887  0.8312  0.2783 -0.0091
  130OSM   H18F14068   1.858   5.275   7.977  2.0740 -0.1083  0.9273
  130OSM   H18G14069   2.024   5.247   7.891  0.9164 -0.4012 -0.9016
  130OSM   H18H14070   1.885   5.134   7.871  0.9869  0.2131  0.1306
  131OSM      N14071   0.037   1.439   5.885  0.2703  0.4453  0.7089
  131OSM    C1514072   0.102   1.331   5.819 -0.1249  0.5086  0.1653
  131OSM   H15A14073   0.156   1.261   5.881 -0.5379  0.3091  0.3008
  131OSM   H15B14074   0.185   1.358   5.756  1.1898 -2.2561  0.6540
  131OSM   H15C14075   0.031   1.274   5.760 -0.7408  0.2332  1.1602
  131OSM    C1414076   0.119   1.566   5.885 -0.1827  0.0390 -0.5842
  131OSM   H14A14077   0.165   1.591   5.791 -1.3728  1.0435 -0.9220
  131OSM   H14B14078   0.197   1.562   5.959 -1.7765  0.7135  1.1870
  131OSM   H14C14079   0.055   1.648   5.915 -1.4457 -0.8489 -0.7856
  131OSM    C1314080  -0.076   1.475   5.797  0.4476  0.0592  0.6764
  131OSM   H13A14081  -0.038   1.531   5.713 -0.5220  0.8739  0.7789
  131OSM   H13B14082  -0.147   1.543   5.843 -1.1500 -1.2537  0.1937
  131OSM   H13C14083  -0.127   1.383   5.775  1.8511 -0.5363 -0.1614
  131OSM    C1214084  -0.009   1.409   6.036  0.7044  0.6316 -0.1329
  131OSM   H12A14085   0.075   1.388   6.101 -0.7069 -2.3128  0.8314
  131OSM   H12B14086  -0.074   1.323   6.025  0.4177  1.0437 -1.8154
  131OSM    C1114087  -0.085   1.511   6.119 -0.3127 -0.3631  0.1496
  131OSM   H11A14088  -0.017   1.599   6.120 -1.6421  0.6819 -0.2294
  131OSM   H11B14089  -0.103   1.483   6.225  0.4040  1.0348  0.6468
  131OSM      P14090  -0.335   1.466   6.063  0.0815 -0.1526  0.2157
  131OSM    O1314091  -0.446   1.559   6.070 -0.2584  0.0495  0.3687
  131OSM    O1414092  -0.336   1.367   5.955  0.2469 -0.8433  0.1257
  131OSM    O1114093  -0.338   1.396   6.205 -0.3748  0.2781 -0.1878
  131OSM    O1214094  -0.201   1.552   6.055 -0.0590 -0.1831 -0.0229
  131OSM    C1S14095  -0.356   1.472   6.324  0.4648  0.0748  0.1052
  131OSM    H1S14096  -0.465   1.492   6.338  0.5012  0.3029  0.0483
  131OSM    H1T14097  -0.309   1.572   6.326 -0.5324  0.5501 -0.0313
  131OSM     NF14098  -0.328   1.464   6.564 -0.4809  0.4096  0.3947
  131OSM    HNF14099  -0.251   1.524   6.583 -1.6369  1.8618  0.4949
  131OSM    C2S14100  -0.315   1.382   6.446  0.3524  0.1113  0.3088
  131OSM    H2S14101  -0.388   1.298   6.452  0.6440 -0.0109  2.5553
  131OSM    C3S14102  -0.179   1.323   6.439 -0.0558  0.3031  0.4563
  131OSM    H3S14103  -0.102   1.402   6.422 -2.8592  3.3191  1.1513
  131OSM     O314104  -0.168   1.227   6.332  0.9874  0.3993 -0.0285
  131OSM    HO314105  -0.243   1.253   6.278  0.4312  0.2285  0.6636
  131OSM    C4S14106  -0.148   1.248   6.565 -0.5610  0.5136  0.3897
  131OSM    H4S14107  -0.216   1.163   6.580 -3.1403  2.1792 -1.3298
  131OSM    C5S14108  -0.056   1.286   6.662 -0.3799  0.0498  0.8148
  131OSM    H5S14109   0.010   1.371   6.640  1.3569 -1.2919  0.7896
  131OSM    C6S14110  -0.023   1.202   6.779 -0.4635 -0.0524  0.2612
  131OSM    H6S14111  -0.043   1.270   6.865  0.4228  1.8300 -0.9941
  131OSM    H6T14112   0.087   1.183   6.779 -0.3462  0.6229 -0.9073
  131OSM    C7S14113  -0.114   1.077   6.821  0.4866 -0.0449  0.4301
  131OSM    H7S14114  -0.075   0.998   6.753 -3.0772 -1.9038  0.4068
  131OSM    H7T14115  -0.221   1.096   6.795 -0.1560  0.3270  3.2472
  131OSM    C8S14116  -0.091   1.043   6.970 -0.2171 -0.1599  0.0922
  131OSM    H8S14117  -0.105   1.126   7.043  0.5562  1.5212 -1.6276
  131OSM    H8T14118   0.015   1.014   6.981  0.8812  2.3187 -2.9665
  131OSM    C9S14119  -0.164   0.912   7.010  0.4162 -0.6062 -0.4172
  131OSM    H9S14120  -0.109   0.836   6.951  2.4421  0.7098 -0.2636
  131OSM    H9T14121  -0.273   0.917   6.987  0.4714  0.0225 -0.5515
  131OSM   C10S14122  -0.159   0.873   7.157  0.0100  0.6095 -0.2335
  131OSM   H10S14123  -0.059   0.910   7.188  0.9031 -2.6170  0.9066
  131OSM   H10T14124  -0.155   0.765   7.181 -0.5708  0.6727  0.1735
  131OSM   C11S14125  -0.272   0.940   7.245 -0.1130 -0.4922  0.1642
  131OSM   H11S14126  -0.370   0.890   7.230 -0.0180 -0.7704  0.4646
  131OSM   H11T14127  -0.274   1.045   7.208  2.8877 -0.5988 -0.3542
  131OSM   C12S14128  -0.240   0.928   7.395  0.9688  0.3003  0.0912
  131OSM   H12S14129  -0.315   0.997   7.439 -0.6026 -0.3527 -1.5075
  131OSM   H12T14130  -0.142   0.978   7.417  0.9703 -0.4849  1.9366
  131OSM   C13S14131  -0.259   0.788   7.454  0.6197 -0.1529  0.2048
  131OSM   H13S14132  -0.215   0.706   7.393 -2.1444 -1.2848 -0.3244
  131OSM   H13T14133  -0.369   0.782   7.450  0.7278 -1.1221 -1.4516
  131OSM   C14S14134  -0.233   0.772   7.607  0.1381 -0.2959  0.0062
  131OSM   H14S14135  -0.125   0.762   7.629  0.0433 -1.1565  0.0808
  131OSM   H14T14136  -0.282   0.680   7.643  0.2294 -0.3663 -0.0495
  131OSM   C15S14137  -0.288   0.893   7.683  0.8173  0.0582  0.4709
  131OSM   H15S14138  -0.379   0.934   7.634 -0.8479 -1.1715  2.4410
  131OSM   H15T14139  -0.214   0.975   7.669  1.2089 -0.4479 -0.4594
  131OSM   C16S14140  -0.306   0.866   7.834 -0.2249 -0.0452  0.8303
  131OSM   H16S14141  -0.240   0.781   7.865  0.1125 -1.1616 -2.7392
  131OSM   H16T14142  -0.412   0.834   7.837 -0.6225  1.2453  0.3999
  131OSM   C17S14143  -0.294   0.998   7.919  1.0352 -0.1593 -0.0028
  131OSM   H17S14144  -0.357   1.076   7.873  1.4015  1.4129  2.1127
  131OSM   H17T14145  -0.192   1.040   7.905  0.8992  0.2727  0.3154
  131OSM   C18S14146  -0.332   0.982   8.068  0.7597  0.3289 -0.0531
  131OSM   H18S14147  -0.423   0.919   8.069  1.5699 -0.9184  4.1798
  131OSM   H18T14148  -0.345   1.076   8.125  0.2990  0.5168 -0.4690
  131OSM   H18U14149  -0.270   0.906   8.121 -0.1702 -0.2981  0.1389
  131OSM    C1F14150  -0.449   1.502   6.616 -0.0672  0.1989  0.1134
  131OSM     OF14151  -0.549   1.458   6.559  0.4531  0.1432 -0.7263
  131OSM    C2F14152  -0.457   1.593   6.735  0.2230  0.0493  0.7892
  131OSM    H2F14153  -0.532   1.665   6.695 -0.0027 -1.0412 -0.7755
  131OSM    H2G14154  -0.358   1.639   6.755 -0.6908  2.3216  0.3031
  131OSM    C3F14155  -0.501   1.528   6.862  0.4112  0.3994 -0.3233
  131OSM    H3F14156  -0.427   1.451   6.893 -2.8073 -2.6199  0.2890
  131OSM    H3G14157  -0.593   1.466   6.848  0.1215  1.5242 -3.7686
  131OSM    C4F14158  -0.525   1.630   6.979 -0.1146 -0.3865  0.0534
  131OSM    H4F14159  -0.614   1.696   6.970  0.3262  0.6388  2.7116
  131OSM    H4G14160  -0.441   1.703   6.969 -2.3033  2.3466  0.9754
  131OSM    C5F14161  -0.507   1.565   7.111  0.5458  0.2359 -0.9700
  131OSM    H5F14162  -0.483   1.458   7.093 -0.5233  0.2741 -2.8000
  131OSM    H5G14163  -0.608   1.565   7.158  1.3336 -1.7043  0.8106
  131OSM    C6F14164  -0.391   1.620   7.193  0.5151 -0.4723  0.0639
  131OSM    H6F14165  -0.436   1.693   7.264  0.7830  1.6311 -1.8898
  131OSM    H6G14166  -0.321   1.675   7.126 -0.1299  0.5074  0.1860
  131OSM    C7F14167  -0.308   1.511   7.271 -0.4801 -0.4238 -0.1088
  131OSM    H7F14168  -0.223   1.556   7.326 -0.7580  0.0951 -0.0957
  131OSM    H7G14169  -0.269   1.438   7.197 -0.9240 -0.5137 -0.2570
  131OSM    C8F14170  -0.387   1.419   7.365 -0.1048 -0.0180  0.0377
  131OSM    H8F14171  -0.472   1.366   7.317  0.2904  0.9596 -1.8153
  131OSM    H8G14172  -0.428   1.492   7.438 -0.6606 -1.0260  0.7396
  131OSM    C9F14173  -0.297   1.322   7.429 -0.1611 -0.8261 -0.4718
  131OSM    H9F14174  -0.263   1.245   7.359  1.7401  0.3131 -0.8445
  131OSM   C10F14175  -0.233   1.320   7.547 -0.5993  0.5223 -0.1661
  131OSM   H10F14176  -0.168   1.239   7.582  2.0223  2.7431  0.2815
  131OSM   C11F14177  -0.243   1.431   7.642  0.6632  0.1840 -0.3676
  131OSM   H11F14178  -0.322   1.502   7.609  2.0540  0.8255 -2.3745
  131OSM   H11G14179  -0.143   1.479   7.638  0.5547  0.2165 -4.0144
  131OSM   C12F14180  -0.257   1.377   7.788  0.3196 -0.3858 -0.1435
  131OSM   H12F14181  -0.193   1.286   7.797 -0.0238 -0.5149  1.0967
  131OSM   H12G14182  -0.353   1.329   7.818  0.1911 -0.3827 -0.5491
  131OSM   C13F14183  -0.230   1.482   7.895  0.9220 -0.7355  0.6771
  131OSM   H13F14184  -0.318   1.548   7.908  0.8416 -0.5300 -0.8096
  131OSM   H13G14185  -0.132   1.532   7.880 -0.1234  1.6408  1.5426
  131OSM   C14F14186  -0.203   1.399   8.021 -0.2255 -0.2321 -0.5448
  131OSM   H14F14187  -0.130   1.317   8.006  2.2668  1.7849 -0.0177
  131OSM   H14G14188  -0.298   1.358   8.059  0.0340  0.4818  0.9421
  131OSM   C15F14189  -0.144   1.500   8.128  0.5102 -0.2420 -0.4076
  131OSM   H15F14190  -0.223   1.576   8.142 -0.6173 -1.4371 -0.1161
  131OSM   H15G14191  -0.060   1.552   8.077 -2.5386  1.1939 -4.1927
  131OSM   C16F14192  -0.098   1.434   8.257  0.0743  0.7808 -0.0295
  131OSM   H16F14193  -0.171   1.363   8.302  2.0465 -0.2429  1.6426
  131OSM   H16G14194  -0.086   1.520   8.327 -0.1546  1.4903 -0.8545
  131OSM   C17F14195   0.042   1.374   8.250  0.1132 -0.1846 -0.6352
  131OSM   H17F14196   0.104   1.458   8.212 -0.4706  0.4021 -0.3187
  131OSM   H17G14197   0.054   1.296   8.173  2.4981 -0.0024 -0.4759
  131OSM   C18F14198   0.093   1.329   8.388  0.0934 -0.0221 -0.1834
  131OSM   H18F14199   0.201   1.303   8.391  0.0354 -0.1362  0.9435
  131OSM   H18G14200   0.040   1.235   8.412 -1.1523  1.1055  1.5413
  131OSM   H18H14201   0.074   1.405   8.466  2.3071 -0.9938  1.3420
  132OSM      N14202   1.553   3.153   6.410  0.0910  0.2919  0.1840
  132OSM    C1514203   1.697   3.171   6.469  1.0595  0.4028 -0.2174
  132OSM   H15A14204   1.749   3.237   6.400  4.3807  0.6508  2.3847
  132OSM   H15B14205   1.742   3.076   6.491 -3.7539 -2.3259 -1.5936
  132OSM   H15C14206   1.682   3.230   6.558  0.2618  0.7769 -0.5914
  132OSM    C1414207   1.492   3.286   6.398 -0.5517  0.1695  0.1378
  132OSM   H14A14208   1.414   3.293   6.325 -1.3220 -0.4315  0.8860
  132OSM   H14B14209   1.570   3.354   6.367 -0.6521  0.4126  0.4115
  132OSM   H14C14210   1.452   3.326   6.490 -1.0330  1.2772 -0.5529
  132OSM    C1314211   1.571   3.083   6.279 -0.0306  0.3595  0.9727
  132OSM   H13A14212   1.644   3.005   6.295 -1.0907 -0.8077  0.2574
  132OSM   H13B14213   1.615   3.146   6.203  0.8418 -2.2407 -0.7278
  132OSM   H13C14214   1.475   3.060   6.236  1.3935  0.3427 -2.3604
  132OSM    C1214215   1.477   3.067   6.511  0.0302 -0.3740  0.0639
  132OSM   H12A14216   1.459   3.117   6.605  0.2546  0.1294 -0.1577
  132OSM   H12B14217   1.538   2.980   6.534 -1.0781 -1.2668 -0.3278
  132OSM    C1114218   1.340   3.019   6.452 -1.0961 -0.1081  0.0716
  132OSM   H11A14219   1.298   3.094   6.382  1.6946  2.2660  0.8310
  132OSM   H11B14220   1.262   3.007   6.530 -1.0126  1.0422  0.3434
  132OSM      P14221   1.339   2.758   6.408  0.1055  0.3277  0.1512
  132OSM    O1314222   1.209   2.712   6.356  0.4793  0.1235 -1.5178
  132OSM    O1414223   1.463   2.696   6.352 -0.2067  0.1484  0.5924
  132OSM    O1114224   1.356   2.758   6.570  0.2814 -1.0641 -0.3553
  132OSM    O1214225   1.351   2.907   6.377 -0.2101 -0.0471 -0.5250
  132OSM    C1S14226   1.237   2.729   6.645 -0.8358  0.8479  0.3015
  132OSM    H1S14227   1.193   2.631   6.620  0.5226  0.5610 -1.0605
  132OSM    H1T14228   1.169   2.816   6.631  0.6953  2.0030 -0.0800
  132OSM     NF14229   1.139   2.670   6.874  0.1426 -0.1704 -0.0382
  132OSM    HNF14230   1.101   2.731   6.942  0.5722  0.6599 -0.5252
  132OSM    C2S14231   1.262   2.707   6.798  0.0921  0.0485 -0.5776
  132OSM    H2S14232   1.325   2.616   6.804 -1.3941 -0.9623 -0.0877
  132OSM    C3S14233   1.331   2.831   6.860 -0.6728 -0.2765 -0.4822
  132OSM    H3S14234   1.272   2.922   6.837  0.1392  0.6571  1.0301
  132OSM     O314235   1.459   2.854   6.800  0.0186  0.1658 -0.2129
  132OSM    HO314236   1.463   2.783   6.736 -0.0628  0.5086 -0.6024
  132OSM    C4S14237   1.347   2.821   7.011  0.0013 -0.1197 -0.6437
  132OSM    H4S14238   1.287   2.895   7.065  0.2634 -0.3847  0.0110
  132OSM    C5S14239   1.427   2.742   7.085  0.0222  0.1424 -0.5001
  132OSM    H5S14240   1.493   2.673   7.030  1.2177  0.8575  0.0270
  132OSM    C6S14241   1.426   2.735   7.235 -1.1063 -0.3621  0.3758
  132OSM    H6S14242   1.399   2.834   7.278 -1.8250 -0.5028  0.2443
  132OSM    H6T14243   1.528   2.715   7.276 -1.0761  1.3578  1.1860
  132OSM    C7S14244   1.331   2.628   7.297 -0.2442  0.1723  0.2958
  132OSM    H7S14245   1.384   2.535   7.267  0.1362  0.0752  1.2675
  132OSM    H7T14246   1.235   2.643   7.243  0.5484  0.7068 -1.0022
  132OSM    C8S14247   1.329   2.647   7.452  0.7819  0.3308 -0.2107
  132OSM    H8S14248   1.250   2.721   7.475  0.2470 -0.1223 -0.5668
  132OSM    H8T14249   1.427   2.666   7.503  0.7686  2.9860 -1.0986
  132OSM    C9S14250   1.274   2.514   7.509  0.3079 -0.8481  0.1281
  132OSM    H9S14251   1.358   2.441   7.512 -0.7703 -2.1053  0.3664
  132OSM    H9T14252   1.199   2.471   7.439 -1.3346 -0.1114  1.4078
  132OSM   C10S14253   1.211   2.539   7.652  0.2086  0.9662 -0.6366
  132OSM   H10S14254   1.168   2.442   7.685 -1.0809  2.2702  1.5674
  132OSM   H10T14255   1.122   2.603   7.631 -0.2912 -0.6205 -3.7298
  132OSM   C11S14256   1.310   2.590   7.744  0.9897 -0.0500 -0.3775
  132OSM   H11S14257   1.346   2.686   7.700  2.4850 -0.4412 -0.0040
  132OSM   H11T14258   1.398   2.523   7.750  0.2506 -0.9423  0.6566
  132OSM   C12S14259   1.248   2.605   7.877 -0.4824  0.0961 -0.1343
  132OSM   H12S14260   1.225   2.500   7.904 -0.2031  0.1648  0.3698
  132OSM   H12T14261   1.154   2.665   7.888 -0.2082  0.3746  0.8031
  132OSM   C13S14262   1.329   2.678   7.987 -0.6206  0.1152  0.1922
  132OSM   H13S14263   1.267   2.685   8.078 -0.5823  0.0729  0.2210
  132OSM   H13T14264   1.337   2.781   7.947 -2.0138 -0.1620 -0.8472
  132OSM   C14S14265   1.456   2.603   8.012 -0.5035  0.3066 -0.3077
  132OSM   H14S14266   1.512   2.582   7.918 -1.1103  1.5945 -0.9652
  132OSM   H14T14267   1.424   2.498   8.029 -1.1655  0.5609  0.0447
  132OSM   C15S14268   1.548   2.665   8.107 -0.7345 -0.0416  0.6639
  132OSM   H15S14269   1.574   2.765   8.068 -0.0317 -1.5797 -2.9486
  132OSM   H15T14270   1.649   2.619   8.108 -0.0986  1.2507 -1.2484
  132OSM   C16S14271   1.507   2.674   8.257  0.5044  0.1270 -0.2415
  132OSM   H16S14272   1.494   2.570   8.293 -0.9876  0.5888  0.5862
  132OSM   H16T14273   1.418   2.736   8.279  2.0861  2.3646 -0.0796
  132OSM   C17S14274   1.622   2.728   8.343  0.5393  0.5695 -0.7642
  132OSM   H17S14275   1.640   2.836   8.322 -0.7231  0.9551  0.0975
  132OSM   H17T14276   1.712   2.669   8.314  1.2544  1.3733 -0.2209
  132OSM   C18S14277   1.603   2.728   8.493  0.4938  0.1521  0.2005
  132OSM   H18S14278   1.703   2.742   8.538  1.9565  3.4507 -3.8010
  132OSM   H18T14279   1.557   2.631   8.520  1.0904 -1.2237 -3.5078
  132OSM   H18U14280   1.528   2.806   8.521 -1.6304 -1.8617  0.3389
  132OSM    C1F14281   1.077   2.556   6.865  0.2165  0.8550 -0.5563
  132OSM     OF14282   1.108   2.477   6.780  0.2718  0.1460  0.4505
  132OSM    C2F14283   0.972   2.527   6.965  0.1878  0.0366 -0.1023
  132OSM    H2F14284   0.878   2.571   6.925 -0.5613 -0.1307  1.4310
  132OSM    H2G14285   0.992   2.592   7.053  1.8538 -2.4763  1.4307
  132OSM    C3F14286   0.958   2.380   7.020  0.6198  0.2011 -0.1192
  132OSM    H3F14287   1.063   2.350   7.040  1.2382  1.6983 -1.0322
  132OSM    H3G14288   0.920   2.318   6.936  1.7928  0.2820 -0.7240
  132OSM    C4F14289   0.856   2.365   7.138  0.3409 -0.0867  0.4561
  132OSM    H4F14290   0.758   2.400   7.099 -0.0103 -1.8437 -0.3354
  132OSM    H4G14291   0.887   2.435   7.218  4.1105  0.2108 -1.1662
  132OSM    C5F14292   0.847   2.224   7.206 -0.1366 -0.1663  0.3565
  132OSM    H5F14293   0.945   2.189   7.245  0.2795 -0.7519 -1.1994
  132OSM    H5G14294   0.807   2.152   7.132  2.9985 -0.8239 -0.7923
  132OSM    C6F14295   0.745   2.226   7.318 -0.2985  0.1266 -0.1514
  132OSM    H6F14296   0.644   2.240   7.274 -0.3047  0.0398 -0.1657
  132OSM    H6G14297   0.773   2.315   7.378  0.2497  0.5731 -1.0560
  132OSM    C7F14298   0.740   2.096   7.402  0.2092 -0.3405  0.1022
  132OSM    H7F14299   0.849   2.074   7.414  0.0918 -0.9105  0.1498
  132OSM    H7G14300   0.699   2.015   7.338 -0.7904  1.2493 -1.2967
  132OSM    C8F14301   0.657   2.120   7.534  0.2937 -0.4909 -0.0220
  132OSM    H8F14302   0.702   2.210   7.581 -0.4971 -0.0018 -0.1858
  132OSM    H8G14303   0.686   2.030   7.593 -0.5086  0.5652  2.0301
  132OSM    C9F14304   0.507   2.135   7.509  0.3669 -0.2721 -0.4617
  132OSM    H9F14305   0.472   2.223   7.453  1.2382  0.2532 -0.1861
  132OSM   C10F14306   0.408   2.066   7.568  1.1114 -0.0610 -0.2028
  132OSM   H10F14307   0.307   2.083   7.529  1.7355  1.6339 -1.1305
  132OSM   C11F14308   0.426   1.966   7.685  1.0859 -0.1035 -0.2505
  132OSM   H11F14309   0.529   1.926   7.700  0.4181 -0.8443  2.5690
  132OSM   H11G14310   0.356   1.882   7.665  0.0546  0.6368  0.2455
  132OSM   C12F14311   0.381   2.020   7.817 -0.1627  0.4071 -0.0412
  132OSM   H12F14312   0.339   1.936   7.875  1.5352 -0.0076  0.6138
  132OSM   H12G14313   0.297   2.093   7.813  0.3256  1.0260  0.6918
  132OSM   C13F14314   0.486   2.069   7.915 -0.0579  0.3885 -0.3188
  132OSM   H13F14315   0.528   2.168   7.890 -3.0084  2.0051  0.8610
  132OSM   H13G14316   0.574   2.002   7.924  1.2352  1.8860 -1.4774
  132OSM   C14F14317   0.425   2.071   8.058 -0.4027  0.3664 -0.5162
  132OSM   H14F14318   0.510   2.068   8.130  0.1147  4.6274 -0.8213
  132OSM   H14G14319   0.387   1.968   8.073 -0.2131  0.2234 -0.9948
  132OSM   C15F14320   0.319   2.178   8.093  0.7314  0.5554  0.3227
  132OSM   H15F14321   0.232   2.156   8.028  0.3003 -2.3742  1.7901
  132OSM   H15G14322   0.356   2.280   8.069 -0.1904  0.6892 -0.5585
  132OSM   C16F14323   0.261   2.189   8.235  0.0294  0.0113  0.2390
  132OSM   H16F14324   0.257   2.085   8.271 -0.9023 -1.0508 -2.7596
  132OSM   H16G14325   0.159   2.235   8.229  0.0510  0.0885  0.4606
  132OSM   C17F14326   0.354   2.268   8.326 -0.0769 -0.4786  0.3423
  132OSM   H17F14327   0.458   2.262   8.289 -1.1477  0.1144 -2.9286
  132OSM   H17G14328   0.352   2.243   8.434 -1.2980  0.9938  0.6946
  132OSM   C18F14329   0.308   2.422   8.323  0.3276  0.4518  1.0222
  132OSM   H18F14330   0.197   2.427   8.331 -0.0211 -3.0594 -0.4788
  132OSM   H18G14331   0.338   2.465   8.226  0.1347 -0.1025  0.7142
  132OSM   H18H14332   0.354   2.470   8.412  0.8719  2.0225 -0.0834
  133OSM      N14333   1.488   1.853   6.133 -0.1363 -0.5038 -0.2460
  133OSM    C1514334   1.580   1.771   6.222 -0.2801 -0.1745 -0.0202
  133OSM   H15A14335   1.579   1.664   6.209 -0.0190 -0.2833  0.8101
  133OSM   H15B14336   1.543   1.797   6.321 -0.0538 -0.1874  0.0683
  133OSM   H15C14337   1.683   1.797   6.204 -0.8212  0.9812 -1.4645
  133OSM    C1414338   1.528   1.831   5.998 -0.0535 -0.2314  1.0120
  133OSM   H14A14339   1.515   1.726   5.977  1.2387 -0.1739 -0.2175
  133OSM   H14B14340   1.634   1.853   5.994  0.1822 -1.3688  0.8876
  133OSM   H14C14341   1.466   1.885   5.927  0.8942 -0.6205 -0.1375
  133OSM    C1314342   1.348   1.795   6.141 -0.3304 -0.0341 -0.1330
  133OSM   H13A14343   1.307   1.809   6.240  1.1704 -0.2539  0.5410
  133OSM   H13B14344   1.351   1.691   6.110  3.8042  0.3881 -1.4233
  133OSM   H13C14345   1.282   1.849   6.076  0.3837  0.7161 -0.2469
  133OSM    C1214346   1.496   2.003   6.170 -0.5082  0.1822  0.0886
  133OSM   H12A14347   1.599   2.032   6.189 -0.3749  0.4691 -1.0167
  133OSM   H12B14348   1.447   2.021   6.265  0.9073 -2.3557  1.3505
  133OSM    C1114349   1.443   2.107   6.065  0.0166  0.5518 -0.6757
  133OSM   H11A14350   1.488   2.090   5.965 -1.4109  0.2387 -1.2717
  133OSM   H11B14351   1.470   2.206   6.107  2.1669 -1.1238  2.1077
  133OSM      P14352   1.191   2.119   6.149 -0.2638  0.2831  0.2928
  133OSM    O1314353   1.145   2.246   6.096 -0.4294 -0.7092 -0.4678
  133OSM    O1414354   1.098   2.005   6.158 -1.1985 -0.4629 -0.1475
  133OSM    O1114355   1.263   2.151   6.287  0.1114 -0.1342  0.6415
  133OSM    O1214356   1.305   2.085   6.048 -0.1373  0.2524  0.6195
  133OSM    C1S14357   1.186   2.142   6.409 -0.5151 -0.2139  0.1458
  133OSM    H1S14358   1.168   2.034   6.430  1.3268 -0.9807 -1.9754
  133OSM    H1T14359   1.085   2.186   6.393 -0.9457 -1.6408 -1.3509
  133OSM     NF14360   1.203   2.189   6.650  0.1630  0.8338 -0.1219
  133OSM    HNF14361   1.162   2.267   6.697 -1.1707  0.7131 -1.0516
  133OSM    C2S14362   1.270   2.205   6.526 -0.1179 -0.3642  0.3298
  133OSM    H2S14363   1.364   2.145   6.528 -0.5503 -1.0368  3.3173
  133OSM    C3S14364   1.322   2.351   6.501 -0.2342  0.1243  0.0536
  133OSM    H3S14365   1.253   2.438   6.501  0.0783  0.3765  0.7480
  133OSM     O314366   1.400   2.365   6.382 -0.3588  0.5300  0.4638
  133OSM    HO314367   1.371   2.294   6.324 -2.4466  1.0244  0.8484
  133OSM    C4S14368   1.411   2.382   6.617  0.0602  1.0374 -0.0726
  133OSM    H4S14369   1.359   2.406   6.711 -0.4977  0.8549 -0.3385
  133OSM    C5S14370   1.548   2.375   6.626  0.0847 -0.0266 -0.3359
  133OSM    H5S14371   1.601   2.346   6.534  0.7468  1.4977 -0.4497
  133OSM    C6S14372   1.639   2.394   6.747  0.2609 -0.4442  0.2674
  133OSM    H6S14373   1.694   2.484   6.714 -1.7815  0.9376  0.5715
  133OSM    H6T14374   1.707   2.306   6.751  1.3229  0.0775 -3.8329
  133OSM    C7S14375   1.564   2.420   6.874 -0.5877  0.3316 -0.4343
  133OSM    H7S14376   1.492   2.502   6.853  0.7093  1.9364  1.2897
  133OSM    H7T14377   1.638   2.468   6.941  0.1200 -2.4712  0.8619
  133OSM    C8S14378   1.489   2.309   6.932 -0.4980  0.4941 -0.3736
  133OSM    H8S14379   1.566   2.238   6.970  0.6791  1.4271 -0.9975
  133OSM    H8T14380   1.442   2.237   6.862 -1.4904 -0.4158  1.1940
  133OSM    C9S14381   1.392   2.340   7.051 -0.4112  0.4488  0.2192
  133OSM    H9S14382   1.292   2.375   7.017  1.0079  1.0205 -3.6146
  133OSM    H9T14383   1.447   2.420   7.105  0.5302  0.6353 -1.0000
  133OSM   C10S14384   1.377   2.208   7.143  0.5325 -0.1482 -1.2430
  133OSM   H10S14385   1.481   2.179   7.168  0.7294  0.2044 -1.6429
  133OSM   H10T14386   1.339   2.119   7.090 -2.3032  0.4057 -0.2208
  133OSM   C11S14387   1.288   2.240   7.261 -0.0033  0.1064  0.7461
  133OSM   H11S14388   1.189   2.214   7.219 -0.9674 -0.2019  3.1381
  133OSM   H11T14389   1.314   2.343   7.295 -0.9759  0.0194  1.7402
  133OSM   C12S14390   1.313   2.149   7.380  1.1491 -0.3787 -0.6430
  133OSM   H12S14391   1.418   2.163   7.412  1.8910  1.8509 -3.8191
  133OSM   H12T14392   1.318   2.043   7.345 -1.2926 -0.4008 -1.0209
  133OSM   C13S14393   1.208   2.171   7.501 -0.3326  0.4984 -0.1048
  133OSM   H13S14394   1.109   2.201   7.462 -0.7693 -0.4169  0.2968
  133OSM   H13T14395   1.261   2.248   7.562  2.9923 -2.1584  0.5004
  133OSM   C14S14396   1.179   2.060   7.601  0.1824 -0.0929  1.1089
  133OSM   H14S14397   1.273   2.028   7.651  0.7705 -0.7737 -0.3789
  133OSM   H14T14398   1.143   1.966   7.553  1.1809 -0.3771  0.8987
  133OSM   C15S14399   1.074   2.090   7.711 -0.7078 -0.0821  0.6701
  133OSM   H15S14400   0.987   2.115   7.646  0.9240 -1.7551 -2.2906
  133OSM   H15T14401   1.113   2.176   7.769  0.6886 -0.7459  0.7302
  133OSM   C16S14402   1.038   1.972   7.796  0.0221  0.1233  0.1161
  133OSM   H16S14403   1.123   1.928   7.853  0.0674  0.9552  0.7039
  133OSM   H16T14404   1.023   1.891   7.722 -2.6005  2.6907 -2.3138
  133OSM   C17S14405   0.918   1.998   7.884  0.8278 -0.9703  0.3962
  133OSM   H17S14406   0.832   2.024   7.820  0.2674 -0.8808  1.1722
  133OSM   H17T14407   0.929   2.084   7.953 -1.3051 -0.0001 -0.4472
  133OSM   C18S14408   0.866   1.877   7.960  0.6357 -0.5933 -0.2701
  133OSM   H18S14409   0.935   1.791   7.973  0.2243 -0.9085 -0.1411
  133OSM   H18T14410   0.780   1.833   7.904  0.0221  2.3798 -1.7839
  133OSM   H18U14411   0.832   1.902   8.063 -1.0178 -0.6107 -0.7854
  133OSM    C1F14412   1.181   2.076   6.713 -0.0149  0.8780 -0.3075
  133OSM     OF14413   1.219   1.966   6.659  0.0798  0.8662 -0.2701
  133OSM    C2F14414   1.111   2.085   6.850 -0.6771 -0.1067  0.6422
  133OSM    H2F14415   1.013   2.135   6.835 -1.1580 -0.4613  2.5598
  133OSM    H2G14416   1.171   2.151   6.915  0.8038  0.8413 -1.6220
  133OSM    C3F14417   1.094   1.944   6.915 -0.9827 -0.3256  0.3627
  133OSM    H3F14418   1.187   1.887   6.898  0.4947  1.9390  0.5421
  133OSM    H3G14419   1.014   1.880   6.873 -2.2903  0.6493  1.3229
  133OSM    C4F14420   1.071   1.945   7.067 -0.1714  0.3921 -0.3586
  133OSM    H4F14421   0.992   2.023   7.076 -1.9533 -1.3360 -0.6570
  133OSM    H4G14422   1.160   1.990   7.114 -0.3009  1.5387 -1.1733
  133OSM    C5F14423   1.037   1.810   7.127  0.3100 -0.1947 -0.3069
  133OSM    H5F14424   1.121   1.740   7.108  0.4627 -0.0794 -0.0614
  133OSM    H5G14425   0.939   1.771   7.091 -0.3495 -1.0112  2.2500
  133OSM    C6F14426   1.019   1.813   7.282  0.1515 -0.2836  0.7524
  133OSM    H6F14427   0.929   1.874   7.310 -1.6540 -2.0563 -1.0297
  133OSM    H6G14428   1.117   1.852   7.317  0.0332 -1.0188  1.9487
  133OSM    C7F14429   0.994   1.681   7.340 -0.6103  0.5420 -0.8224
  133OSM    H7F14430   1.078   1.611   7.318 -2.4932 -1.9022 -0.3685
  133OSM    H7G14431   0.911   1.634   7.283 -0.3621  1.6036 -2.0851
  133OSM    C8F14432   0.967   1.660   7.496  0.4090 -0.2329  0.5734
  133OSM    H8F14433   1.060   1.696   7.546 -0.1451  0.7636  0.9010
  133OSM    H8G14434   0.968   1.551   7.516  2.0171  0.0208  2.0022
  133OSM    C9F14435   0.848   1.731   7.554 -0.2935  0.2211 -0.2584
  133OSM    H9F14436   0.841   1.839   7.534  3.0854  0.5961  0.1383
  133OSM   C10F14437   0.742   1.678   7.619  0.3314 -0.7211 -0.4753
  133OSM   H10F14438   0.662   1.740   7.663 -0.9586 -2.4300 -0.3610
  133OSM   C11F14439   0.700   1.533   7.642  0.1360  0.9809 -0.3604
  133OSM   H11F14440   0.764   1.456   7.594  0.2339 -0.7433  2.4155
  133OSM   H11G14441   0.598   1.516   7.600  0.4532  0.3955 -0.9042
  133OSM   C12F14442   0.717   1.495   7.791 -0.1630  0.3333 -0.8646
  133OSM   H12F14443   0.649   1.536   7.868 -0.2994 -2.2207  0.4380
  133OSM   H12G14444   0.822   1.515   7.821  0.8429 -1.9920 -2.6232
  133OSM   C13F14445   0.699   1.349   7.820 -0.8916 -0.2065  0.4971
  133OSM   H13F14446   0.757   1.286   7.749 -3.5188  1.3826 -3.1788
  133OSM   H13G14447   0.592   1.320   7.807 -0.9686  0.4920 -0.4714
  133OSM   C14F14448   0.739   1.324   7.966 -0.2967  0.3650  0.3281
  133OSM   H14F14449   0.723   1.410   8.035 -0.1787 -1.1295  2.2668
  133OSM   H14G14450   0.849   1.307   7.967 -0.2584  0.5875  2.3305
  133OSM   C15F14451   0.662   1.200   8.021 -0.4762  0.3738  0.8649
  133OSM   H15F14452   0.695   1.109   7.966 -1.1384  0.6625 -0.0191
  133OSM   H15G14453   0.554   1.217   8.003 -0.2838 -0.5542 -1.3583
  133OSM   C16F14454   0.691   1.173   8.173 -0.5387 -0.3521 -0.3958
  133OSM   H16F14455   0.675   1.260   8.240 -0.4127 -1.6076  1.2796
  133OSM   H16G14456   0.794   1.133   8.177 -0.2829  0.3622  0.3929
  133OSM   C17F14457   0.598   1.066   8.229  0.3796  0.0559  0.2313
  133OSM   H17F14458   0.572   0.979   8.165 -1.7952 -0.1839  1.4045
  133OSM   H17G14459   0.501   1.116   8.250  0.3163  0.5961 -1.2541
  133OSM   C18F14460   0.642   1.007   8.361 -0.2974 -0.4405  0.6404
  133OSM   H18F14461   0.577   0.921   8.388 -1.1341 -0.4570 -1.3578
  133OSM   H18G14462   0.629   1.080   8.443 -0.2048  1.0261 -0.6408
  133OSM   H18H14463   0.749   0.979   8.344 -0.7886 -1.5509 -0.6646
  134OSM      N14464   2.854   5.437   6.500  0.0707 -0.1231 -0.1866
  134OSM    C1514465   2.977   5.400   6.431  0.2768  0.1389  0.3182
  134OSM   H15A14466   2.982   5.450   6.336 -0.4576  0.6461  0.5493
  134OSM   H15B14467   2.983   5.295   6.403 -1.2939  0.2092 -0.3148
  134OSM   H15C14468   3.063   5.428   6.490  1.2913 -0.5251 -0.8172
  134OSM    C1414469   2.859   5.370   6.636  0.0479  0.3820 -0.2240
  134OSM   H14A14470   2.861   5.262   6.633  0.8147  0.3432  1.1369
  134OSM   H14B14471   2.770   5.384   6.696  0.0666 -0.4070 -0.0039
  134OSM   H14C14472   2.948   5.399   6.689 -0.5916  0.6371  0.7260
  134OSM    C1314473   2.839   5.582   6.526 -0.0440  0.3586 -0.1311
  134OSM   H13A14474   2.743   5.586   6.575  0.0498 -1.0144  0.2045
  134OSM   H13B14475   2.850   5.648   6.441  1.4943  2.2392  1.4838
  134OSM   H13C14476   2.919   5.605   6.595  0.6126  0.0253 -0.7683
  134OSM    C1214477   2.719   5.392   6.432  0.0821 -0.0037  0.3682
  134OSM   H12A14478   2.732   5.287   6.411  0.0956 -0.3131  1.8789
  134OSM   H12B14479   2.715   5.453   6.344  3.3673  1.7271  1.3105
  134OSM    C1114480   2.588   5.412   6.514 -0.4829 -0.2900 -0.1076
  134OSM   H11A14481   2.592   5.353   6.609  0.9891  0.7163  0.4777
  134OSM   H11B14482   2.504   5.370   6.454 -0.2035 -1.8165  0.5592
  134OSM      P14483   2.415   5.575   6.625 -0.2111 -0.4160  0.0211
  134OSM    O1314484   2.458   5.629   6.754 -0.3514  0.3747 -0.0259
  134OSM    O1414485   2.322   5.647   6.542 -0.1328 -0.3776 -0.2265
  134OSM    O1114486   2.356   5.432   6.655  0.0456 -0.4469 -0.4931
  134OSM    O1214487   2.548   5.546   6.552  0.1906  0.3151 -0.4214
  134OSM    C1S14488   2.367   5.384   6.791 -0.2320 -0.1609 -0.4896
  134OSM    H1S14489   2.322   5.448   6.870 -1.3645 -3.2827  1.5460
  134OSM    H1T14490   2.474   5.372   6.818 -0.4470 -0.3530  0.3285
  134OSM     NF14491   2.353   5.169   6.921  0.1407  0.1509 -0.1726
  134OSM    HNF14492   2.430   5.106   6.919  0.0900  0.0903 -0.2138
  134OSM    C2S14493   2.317   5.237   6.799  0.0577 -0.0773 -0.5756
  134OSM    H2S14494   2.206   5.244   6.796  0.0120 -0.6481 -0.2613
  134OSM    C3S14495   2.360   5.157   6.683 -0.1871 -1.0708  0.0629
  134OSM    H3S14496   2.469   5.150   6.665 -0.1921  0.0763 -0.4655
  134OSM     O314497   2.308   5.199   6.561  0.3799  0.0067 -0.0313
  134OSM    HO314498   2.306   5.291   6.586  1.8128 -0.5811  2.4390
  134OSM    C4S14499   2.308   5.018   6.690  0.3359  0.3508 -0.5183
  134OSM    H4S14500   2.199   5.011   6.673 -0.2402  0.8865  2.6526
  134OSM    C5S14501   2.378   4.914   6.737 -0.2903 -0.7313 -0.5610
  134OSM    H5S14502   2.482   4.920   6.772  0.0176  1.5739 -1.7569
  134OSM    C6S14503   2.330   4.775   6.755 -0.6888 -0.2506 -0.0840
  134OSM    H6S14504   2.359   4.726   6.659  1.5189  0.6562  0.0941
  134OSM    H6T14505   2.219   4.769   6.761 -0.7897 -0.0105 -1.4467
  134OSM    C7S14506   2.407   4.699   6.873  0.2352 -0.3677 -0.2954
  134OSM    H7S14507   2.516   4.679   6.862  0.2972 -1.0042  1.2838
  134OSM    H7T14508   2.378   4.591   6.876 -0.1796 -0.2255  2.0174
  134OSM    C8S14509   2.371   4.762   7.004  0.1511  0.5530 -0.8699
  134OSM    H8S14510   2.261   4.772   7.007  0.2925  1.6988  0.9189
  134OSM    H8T14511   2.402   4.869   7.011  4.0544 -0.5477 -0.3899
  134OSM    C9S14512   2.435   4.686   7.127  0.3378 -0.4692 -0.1650
  134OSM    H9S14513   2.544   4.681   7.110  0.5847  1.0715  0.8231
  134OSM    H9T14514   2.391   4.584   7.135 -2.1669  0.6238  0.4551
  134OSM   C10S14515   2.403   4.750   7.258 -0.3015 -0.7467 -0.0763
  134OSM   H10S14516   2.292   4.751   7.243 -0.1232  1.8070 -1.5030
  134OSM   H10T14517   2.441   4.854   7.263 -1.4963 -0.3216  0.2742
  134OSM   C11S14518   2.461   4.669   7.383  0.8430  0.7087  0.1952
  134OSM   H11S14519   2.572   4.670   7.373  0.8094 -2.5067 -1.1331
  134OSM   H11T14520   2.412   4.570   7.377  0.8499  0.7363 -0.3815
  134OSM   C12S14521   2.435   4.731   7.516 -0.2899  0.3867 -0.5048
  134OSM   H12S14522   2.326   4.750   7.530 -0.7099 -0.8897 -1.9070
  134OSM   H12T14523   2.482   4.831   7.525  2.5072 -0.8391 -1.1513
  134OSM   C13S14524   2.480   4.646   7.639  0.6952 -0.5428  0.0477
  134OSM   H13S14525   2.591   4.647   7.642  0.7709  0.8152 -2.0797
  134OSM   H13T14526   2.457   4.538   7.648 -3.4693  0.2749  0.1038
  134OSM   C14S14527   2.433   4.704   7.771 -0.1254 -0.2696  0.7909
  134OSM   H14S14528   2.324   4.702   7.793 -0.2488  1.0406  0.3644
  134OSM   H14T14529   2.454   4.813   7.775  1.0315 -0.4983  1.0404
  134OSM   C15S14530   2.499   4.645   7.901 -0.6873 -0.2851  0.6433
  134OSM   H15S14531   2.609   4.665   7.906 -0.1879 -1.9666 -2.4167
  134OSM   H15T14532   2.470   4.540   7.924  3.6982 -1.4395  1.4090
  134OSM   C16S14533   2.442   4.723   8.033  0.3840 -0.2454 -0.6059
  134OSM   H16S14534   2.334   4.697   8.037  0.1035  1.1359  1.3865
  134OSM   H16T14535   2.446   4.834   8.024 -0.3071 -0.1600  0.1655
  134OSM   C17S14536   2.498   4.678   8.172 -0.2366 -0.4249 -0.2396
  134OSM   H17S14537   2.608   4.692   8.156 -0.4727  0.9982 -0.7090
  134OSM   H17T14538   2.479   4.569   8.174  1.2477 -0.7314 -1.5907
  134OSM   C18S14539   2.428   4.756   8.287 -0.7925 -0.3323 -0.7631
  134OSM   H18S14540   2.464   4.860   8.290 -0.8816 -0.3282  0.1191
  134OSM   H18T14541   2.447   4.698   8.380 -1.2694  1.3456  0.3951
  134OSM   H18U14542   2.317   4.761   8.286 -0.7151  1.5027 -0.9422
  134OSM    C1F14543   2.298   5.204   7.034 -0.2214  0.1325 -0.4328
  134OSM     OF14544   2.215   5.287   7.039  0.6843 -0.0339  0.2498
  134OSM    C2F14545   2.356   5.141   7.157 -0.1413 -0.0941  0.4029
  134OSM    H2F14546   2.438   5.213   7.177  1.8200 -1.2889 -2.9751
  134OSM    H2G14547   2.409   5.047   7.131 -2.0186 -0.8857 -0.6313
  134OSM    C3F14548   2.261   5.126   7.277 -0.0802  0.1393 -0.3881
  134OSM    H3F14549   2.205   5.031   7.262 -1.3455  0.5986  1.3342
  134OSM    H3G14550   2.210   5.224   7.286 -3.4914 -1.6636  0.9367
  134OSM    C4F14551   2.346   5.107   7.407  0.7686  0.2065  0.9941
  134OSM    H4F14552   2.389   5.203   7.441  3.2224 -0.7085  0.5710
  134OSM    H4G14553   2.432   5.040   7.384  2.6842  2.8835  0.1787
  134OSM    C5F14554   2.253   5.064   7.514 -0.5683 -0.3165  0.2143
  134OSM    H5F14555   2.209   4.963   7.499  1.6219 -1.7955  3.2766
  134OSM    H5G14556   2.160   5.125   7.521  0.2489  0.7861  1.8181
  134OSM    C6F14557   2.330   5.056   7.647 -0.3851 -0.6511 -0.0514
  134OSM    H6F14558   2.363   5.160   7.666 -0.0432 -0.8219  0.2814
  134OSM    H6G14559   2.415   4.988   7.627  1.0082  0.0382  3.2675
  134OSM    C7F14560   2.245   5.023   7.759 -0.0598  0.1282  0.2151
  134OSM    H7F14561   2.213   4.917   7.753 -2.3398  0.7599  0.6765
  134OSM    H7G14562   2.151   5.081   7.765 -0.2517 -0.0646 -0.8444
  134OSM    C8F14563   2.310   5.030   7.907  0.5026 -0.0607 -0.5955
  134OSM    H8F14564   2.401   4.968   7.906  0.2987 -0.3623 -0.2789
  134OSM    H8G14565   2.244   4.984   7.984 -0.0198 -0.5919 -1.3529
  134OSM    C9F14566   2.343   5.172   7.945 -0.2775  0.0039 -0.5537
  134OSM    H9F14567   2.389   5.225   7.861  1.4380 -1.6801 -0.6920
  134OSM   C10F14568   2.325   5.241   8.055  0.2422 -0.3971 -0.2443
  134OSM   H10F14569   2.350   5.348   8.057 -1.3905 -0.0219  2.2375
  134OSM   C11F14570   2.256   5.175   8.167  0.1449 -0.5376 -0.1313
  134OSM   H11F14571   2.296   5.211   8.264  1.4868 -1.0350 -0.4895
  134OSM   H11G14572   2.277   5.066   8.170  0.9177 -0.3685  0.5583
  134OSM   C12F14573   2.106   5.202   8.186  0.3623  0.1452 -0.4883
  134OSM   H12F14574   2.055   5.106   8.163  1.7037 -0.0457 -2.8588
  134OSM   H12G14575   2.071   5.279   8.113 -0.8983  2.4891  2.4856
  134OSM   C13F14576   2.064   5.246   8.328  0.0754 -0.5341 -0.5651
  134OSM   H13F14577   2.076   5.357   8.332 -3.2368 -0.1099 -1.2379
  134OSM   H13G14578   2.109   5.193   8.415 -1.4277  0.2234  0.6930
  134OSM   C14F14579   1.915   5.226   8.353 -0.5254 -0.4491  0.4759
  134OSM   H14F14580   1.899   5.117   8.339  0.4051 -0.2959 -2.0597
  134OSM   H14G14581   1.853   5.272   8.273  2.9326  0.9342 -1.5247
  134OSM   C15F14582   1.865   5.272   8.496  0.0511  0.4244 -0.3840
  134OSM   H15F14583   1.942   5.235   8.568  1.1230  2.1915 -0.5807
  134OSM   H15G14584   1.782   5.203   8.518  1.6979 -1.2824  0.6362
  134OSM   C16F14585   1.835   5.425   8.505  0.5257  0.8498 -0.4733
  134OSM   H16F14586   1.741   5.446   8.450  1.4268 -0.2794 -2.4945
  134OSM   H16G14587   1.917   5.477   8.451  2.0676  0.4494  1.4552
  134OSM   C17F14588   1.825   5.473   8.646 -0.5521 -0.0426  0.5745
  134OSM   H17F14589   1.839   5.583   8.641  1.2862 -0.3457 -1.5628
  134OSM   H17G14590   1.911   5.456   8.714 -1.5565 -1.0104  1.6318
  134OSM   C18F14591   1.693   5.443   8.719 -0.2095  0.3740 -0.1651
  134OSM   H18F14592   1.693   5.341   8.763  1.0011  1.6007  2.7787
  134OSM   H18G14593   1.606   5.446   8.650 -0.4965 -2.0558  0.0444
  134OSM   H18H14594   1.674   5.510   8.805 -0.3841  1.2480 -0.8838
  135OSM      N14595   2.171   5.547   6.209  0.0545  0.4787  0.5247
  135OSM    C1514596   2.307   5.542   6.275  0.8556  0.4362  0.0140
  135OSM   H15A14597   2.367   5.620   6.230  2.0325 -0.4928 -0.0751
  135OSM   H15B14598   2.356   5.450   6.246  0.2577  0.3800 -0.8167
  135OSM   H15C14599   2.303   5.550   6.383  1.6602  1.5972 -0.0389
  135OSM    C1414600   2.115   5.684   6.228 -0.0300  0.4615  0.4212
  135OSM   H14A14601   2.106   5.705   6.333 -2.0170  0.7812  0.2037
  135OSM   H14B14602   2.022   5.700   6.175  0.9714  1.0275 -1.1988
  135OSM   H14C14603   2.187   5.757   6.195 -0.6269 -0.1654 -2.4094
  135OSM    C1314604   2.194   5.527   6.063  0.3736 -0.1915 -0.1681
  135OSM   H13A14605   2.095   5.515   6.022 -0.8125  2.5960  1.7354
  135OSM   H13B14606   2.243   5.433   6.044  2.1210  0.9021 -1.1898
  135OSM   H13C14607   2.251   5.599   6.007  0.0505 -0.0949 -0.3707
  135OSM    C1214608   2.083   5.434   6.268  0.2965 -0.5075 -0.2565
  135OSM   H12A14609   2.131   5.338   6.260 -0.9188 -1.1512  0.0548
  135OSM   H12B14610   1.986   5.421   6.221  0.3181 -1.3212 -0.0755
  135OSM    C1114611   2.041   5.439   6.418  0.4578 -0.0042  0.0391
  135OSM   H11A14612   2.120   5.495   6.474 -1.3319  2.1953  0.4312
  135OSM   H11B14613   2.032   5.339   6.466  4.4259  0.1446  1.3097
  135OSM      P14614   1.874   5.573   6.558  0.0670 -0.3186 -0.3700
  135OSM    O1314615   1.956   5.695   6.581 -0.1004 -0.1090  0.2339
  135OSM    O1414616   1.727   5.594   6.554  0.7162 -0.1409 -0.3206
  135OSM    O1114617   1.911   5.469   6.658  0.4300 -0.0612 -0.4232
  135OSM    O1214618   1.918   5.510   6.425  0.2766  0.5965 -0.5332
  135OSM    C1S14619   2.017   5.487   6.755  0.1120 -0.1682 -0.2218
  135OSM    H1S14620   2.065   5.586   6.738 -0.0571  0.3207  2.0561
  135OSM    H1T14621   2.099   5.415   6.733 -0.8558 -1.2841 -0.2449
  135OSM     NF14622   2.083   5.536   6.995  0.4994  0.3284 -0.3747
  135OSM    HNF14623   2.135   5.460   7.035 -0.0226 -0.2235 -0.7379
  135OSM    C2S14624   1.977   5.489   6.899 -0.1260 -0.5851  0.8961
  135OSM    H2S14625   1.891   5.560   6.903 -0.2729 -0.7948  1.4639
  135OSM    C3S14626   1.910   5.357   6.942 -0.0202  0.1141 -0.5893
  135OSM    H3S14627   1.989   5.280   6.931  0.2997  0.5871 -1.6393
  135OSM     O314628   1.814   5.311   6.855  0.4359  0.2621 -0.5619
  135OSM    HO314629   1.836   5.356   6.774  0.0838  2.3572  0.4689
  135OSM    C4S14630   1.859   5.371   7.081  0.2422 -0.1505 -0.6329
  135OSM    H4S14631   1.781   5.445   7.106  0.5474  0.1452 -0.5506
  135OSM    C5S14632   1.902   5.305   7.188 -0.0410 -0.4598  0.4526
  135OSM    H5S14633   1.986   5.236   7.170  0.5453  0.6712 -1.3703
  135OSM    C6S14634   1.851   5.336   7.331 -0.0720  0.2136  0.1439
  135OSM    H6S14635   1.798   5.248   7.372  0.8466  0.3359  1.6606
  135OSM    H6T14636   1.774   5.416   7.331 -0.2166  0.0728  0.7333
  135OSM    C7S14637   1.953   5.397   7.434 -0.8675 -0.3931 -0.1902
  135OSM    H7S14638   2.026   5.318   7.461  1.0058  1.4528  0.2517
  135OSM    H7T14639   1.885   5.424   7.518 -0.6129 -0.2835 -0.0190
  135OSM    C8S14640   2.025   5.515   7.374  0.6880 -0.6310 -0.5498
  135OSM    H8S14641   1.946   5.593   7.368  0.7259 -0.4980  0.6598
  135OSM    H8T14642   2.069   5.496   7.273 -1.9867 -0.5514 -1.7883
  135OSM    C9S14643   2.145   5.577   7.455  0.0669 -0.2999  0.5928
  135OSM    H9S14644   2.150   5.682   7.421 -3.1129  0.0211  0.9421
  135OSM    H9T14645   2.241   5.525   7.435  0.7307  0.4966  1.6865
  135OSM   C10S14646   2.127   5.574   7.607 -1.0751  0.5936 -0.1662
  135OSM   H10S14647   2.082   5.480   7.645  1.3854 -0.9855 -1.0376
  135OSM   H10T14648   2.057   5.658   7.624 -1.7650  0.3433 -1.6834
  135OSM   C11S14649   2.254   5.598   7.680 -0.1144  0.8737 -0.7462
  135OSM   H11S14650   2.292   5.699   7.655 -1.4316  1.4898 -0.2435
  135OSM   H11T14651   2.334   5.534   7.635  0.4431 -0.7018  2.3540
  135OSM   C12S14652   2.248   5.569   7.833  0.3164  0.0600 -0.2984
  135OSM   H12S14653   2.347   5.563   7.885 -0.8221 -2.2897  1.7314
  135OSM   H12T14654   2.194   5.475   7.859  1.0087 -0.6727 -1.4499
  135OSM   C13S14655   2.174   5.683   7.897 -0.0142  0.3832  0.1983
  135OSM   H13S14656   2.073   5.689   7.849  0.4213  0.1505 -0.7655
  135OSM   H13T14657   2.236   5.771   7.873  0.3487 -0.5593 -2.5049
  135OSM   C14S14658   2.163   5.670   8.052 -0.2073  0.0638  0.2147
  135OSM   H14S14659   2.263   5.656   8.100  0.0813 -1.5722 -0.8097
  135OSM   H14T14660   2.100   5.585   8.088 -0.0508 -0.3159 -0.3868
  135OSM   C15S14661   2.097   5.789   8.114  0.0411  0.4342  0.0791
  135OSM   H15S14662   1.990   5.804   8.087 -0.1488  2.2447  1.6636
  135OSM   H15T14663   2.146   5.877   8.067  0.7633  0.2230  0.4290
  135OSM   C16S14664   2.116   5.793   8.263  0.0893  0.5798  0.7713
  135OSM   H16S14665   2.055   5.875   8.305 -2.8429  0.4441 -2.9341
  135OSM   H16T14666   2.219   5.819   8.295  0.9724 -1.9183  0.1202
  135OSM   C17S14667   2.085   5.663   8.339  0.5139  0.0310  0.5636
  135OSM   H17S14668   2.142   5.577   8.298  1.6932  0.3216  1.5389
  135OSM   H17T14669   1.977   5.638   8.336  0.4429  0.4941 -1.9197
  135OSM   C18S14670   2.122   5.674   8.495 -0.1935  0.3304 -0.8190
  135OSM   H18S14671   2.100   5.578   8.546  0.4826  1.3723  1.5053
  135OSM   H18T14672   2.065   5.754   8.548 -3.0757 -3.3355  1.8923
  135OSM   H18U14673   2.232   5.691   8.501  0.3119 -2.6377 -0.7743
  135OSM    C1F14674   2.121   5.665   7.001 -0.4440  0.0058 -0.1039
  135OSM     OF14675   2.075   5.756   6.930  0.4713  0.4274 -0.0795
  135OSM    C2F14676   2.237   5.692   7.096  0.8008 -0.2795  0.5094
  135OSM    H2F14677   2.299   5.599   7.099  0.6740 -0.4391 -1.1730
  135OSM    H2G14678   2.205   5.705   7.202 -0.4664 -0.6003  0.1737
  135OSM    C3F14679   2.323   5.819   7.058  0.0850  0.0138 -0.5748
  135OSM    H3F14680   2.260   5.895   7.007 -1.0594 -1.5186 -1.4891
  135OSM    H3G14681   2.405   5.789   6.989  0.2938 -1.3063  0.2366
  135OSM    C4F14682   2.374   5.893   7.180 -0.1693 -0.0768 -0.2100
  135OSM    H4F14683   2.286   5.942   7.229  0.3197  1.2052 -0.5894
  135OSM    H4G14684   2.442   5.979   7.166 -0.7315  0.6171  1.2548
  135OSM    C5F14685   2.461   5.814   7.279 -0.9571 -0.1382 -0.3888
  135OSM    H5F14686   2.517   5.747   7.211 -1.1366 -0.8604  0.1621
  135OSM    H5G14687   2.387   5.767   7.347 -1.5607 -3.3478 -3.1298
  135OSM    C6F14688   2.575   5.893   7.348 -0.5417  0.6020 -0.3136
  135OSM    H6F14689   2.638   5.932   7.265 -2.5024  0.9448 -1.6766
  135OSM    H6G14690   2.641   5.829   7.412 -1.9724 -1.1789 -0.5735
  135OSM    C7F14691   2.513   6.005   7.433  0.1653  0.4300 -0.0961
  135OSM    H7F14692   2.444   6.073   7.379  0.4954  2.3102  1.7738
  135OSM    H7G14693   2.599   6.066   7.467  1.2815 -0.1877 -1.7347
  135OSM    C8F14694   2.430   5.971   7.566 -0.1493 -0.4138  0.0467
  135OSM    H8F14695   2.341   5.915   7.530  0.3555 -1.7819  0.8940
  135OSM    H8G14696   2.406   6.076   7.594  2.0582  0.1829 -0.1677
  135OSM    C9F14697   2.517   5.899   7.662  0.1227 -0.5476 -0.0465
  135OSM    H9F14698   2.535   5.796   7.630 -0.6536 -0.3191 -1.2439
  135OSM   C10F14699   2.569   5.957   7.774 -0.1461 -0.0495  0.6614
  135OSM   H10F14700   2.635   5.887   7.827 -0.5079 -1.3511 -0.5883
  135OSM   C11F14701   2.548   6.095   7.834 -0.3929 -0.1820  0.2910
  135OSM   H11F14702   2.506   6.165   7.759  2.0927 -0.1033 -1.1011
  135OSM   H11G14703   2.643   6.143   7.866 -1.0456  3.5313 -2.9251
  135OSM   C12F14704   2.450   6.076   7.957 -0.0460 -0.3580  0.0719
  135OSM   H12F14705   2.359   6.021   7.924 -0.3984 -0.9486  1.9879
  135OSM   H12G14706   2.404   6.177   7.969  0.2978 -0.1977  0.0428
  135OSM   C13F14707   2.502   6.020   8.090  0.0291 -0.5217 -0.3639
  135OSM   H13F14708   2.540   5.919   8.065  0.4927 -0.5418  0.4097
  135OSM   H13G14709   2.419   5.997   8.161  0.8110 -0.3425  0.6184
  135OSM   C14F14710   2.615   6.107   8.154  0.7106 -0.0604  0.6050
  135OSM   H14F14711   2.560   6.202   8.173  0.9617 -0.3457  2.8502
  135OSM   H14G14712   2.703   6.128   8.090 -0.4869  1.0886 -0.6961
  135OSM   C15F14713   2.657   6.059   8.288 -0.6561  0.2091 -0.1367
  135OSM   H15F14714   2.731   5.975   8.280 -0.4095  0.5436 -1.5413
  135OSM   H15G14715   2.570   6.031   8.350  0.2796 -0.3752  0.9378
  135OSM   C16F14716   2.735   6.165   8.374 -0.0215  0.1622  0.2141
  135OSM   H16F14717   2.668   6.225   8.439  1.2243  0.8871  0.8528
  135OSM   H16G14718   2.797   6.222   8.301 -1.3918 -1.3986 -2.2565
  135OSM   C17F14719   2.837   6.103   8.466  0.4511  0.0643  1.0805
  135OSM   H17F14720   2.919   6.071   8.398 -1.2433 -1.7839 -0.1562
  135OSM   H17G14721   2.797   6.013   8.517  1.2250 -1.0236 -0.2338
  135OSM   C18F14722   2.881   6.205   8.574  0.1106  0.5215  0.1193
  135OSM   H18F14723   2.984   6.175   8.604  0.4144  2.1152  0.7049
  135OSM   H18G14724   2.804   6.209   8.653 -0.5243 -0.1892 -0.4571
  135OSM   H18H14725   2.878   6.308   8.533 -2.7288  0.8461  1.0692
  136OSM      N14726   1.174   6.442   6.135 -0.5278  0.2429 -0.6586
  136OSM    C1514727   1.127   6.370   6.015 -0.3855 -0.1358 -0.1625
  136OSM   H15A14728   1.174   6.273   6.020 -0.9794 -0.3239  2.6255
  136OSM   H15B14729   1.154   6.432   5.932  0.8010  2.2719  1.9360
  136OSM   H15C14730   1.019   6.360   6.020 -0.3092 -0.5305  1.0567
  136OSM    C1414731   1.152   6.354   6.257 -0.1732 -0.3399 -0.7274
  136OSM   H14A14732   1.048   6.338   6.281  0.1305 -0.4906  0.5575
  136OSM   H14B14733   1.208   6.397   6.339 -3.0039  3.4358 -0.6502
  136OSM   H14C14734   1.186   6.252   6.249  0.3403 -0.0951 -1.7526
  136OSM    C1314735   1.321   6.480   6.125 -0.0468  0.6225  0.6402
  136OSM   H13A14736   1.361   6.509   6.221 -2.1842 -1.1970  2.1327
  136OSM   H13B14737   1.347   6.554   6.051 -1.0917  0.3253 -0.0326
  136OSM   H13C14738   1.375   6.391   6.099  0.7007  1.0743  0.6320
  136OSM    C1214739   1.089   6.568   6.144  0.2862  0.0707 -0.1307
  136OSM   H12A14740   1.095   6.621   6.050  0.2802 -1.4362 -0.9929
  136OSM   H12B14741   1.119   6.636   6.222 -0.9484  1.1327 -0.5470
  136OSM    C1114742   0.932   6.551   6.163  0.4474  0.2418 -0.3567
  136OSM   H11A14743   0.892   6.653   6.146  3.6563  1.5762 -0.2439
  136OSM   H11B14744   0.904   6.528   6.268 -0.9299 -0.4186 -0.8553
  136OSM      P14745   0.713   6.439   6.052  0.2264 -0.1158  0.1560
  136OSM    O1314746   0.681   6.551   5.968  0.6188 -0.4808  0.0644
  136OSM    O1414747   0.694   6.303   5.994 -0.2117  0.0115  0.9399
  136OSM    O1114748   0.649   6.451   6.192  0.2336  0.5666  0.4890
  136OSM    O1214749   0.869   6.446   6.085 -0.6270  0.4863 -0.3826
  136OSM    C1S14750   0.518   6.401   6.209 -0.4363  1.1035 -0.0918
  136OSM    H1S14751   0.520   6.291   6.220 -0.0916  1.1527  0.3566
  136OSM    H1T14752   0.445   6.435   6.132 -1.3422  0.1881  0.3669
  136OSM     NF14753   0.338   6.390   6.381  0.4409  0.0551 -0.2921
  136OSM    HNF14754   0.269   6.461   6.373  0.8441  0.4630 -0.2360
  136OSM    C2S14755   0.466   6.443   6.352 -0.8063 -0.6642 -0.4539
  136OSM    H2S14756   0.532   6.396   6.428 -1.7705 -0.0596  0.7692
  136OSM    C3S14757   0.478   6.597   6.358  0.1940  0.7516  0.2891
  136OSM    H3S14758   0.419   6.648   6.278 -0.1817  2.0202  1.3469
  136OSM     O314759   0.603   6.657   6.339 -0.4369 -0.4433  0.1034
  136OSM    HO314760   0.656   6.587   6.302  1.1981  1.3216 -1.0265
  136OSM    C4S14761   0.422   6.645   6.485  0.5249 -0.5579 -0.3691
  136OSM    H4S14762   0.493   6.642   6.568 -0.7435 -1.3010  0.7028
  136OSM    C5S14763   0.319   6.728   6.505 -0.3982 -0.5331 -0.6603
  136OSM    H5S14764   0.268   6.775   6.420 -4.4320 -1.3176  1.2471
  136OSM    C6S14765   0.265   6.779   6.637  0.0423  0.3554 -0.0464
  136OSM    H6S14766   0.172   6.719   6.647 -0.6284  1.2827 -0.6863
  136OSM    H6T14767   0.228   6.883   6.627 -0.2432 -0.0241 -3.5451
  136OSM    C7S14768   0.361   6.762   6.753  0.1330  0.4338 -0.2187
  136OSM    H7S14769   0.443   6.836   6.739 -0.2381  0.6778 -1.1356
  136OSM    H7T14770   0.398   6.657   6.757 -2.7424 -0.5978  0.3051
  136OSM    C8S14771   0.289   6.781   6.888 -0.6886 -0.2207 -0.4058
  136OSM    H8S14772   0.221   6.696   6.905  0.6326 -1.1240  0.4719
  136OSM    H8T14773   0.218   6.867   6.884  0.3151  0.5960 -1.1822
  136OSM    C9S14774   0.384   6.790   7.002 -0.0965  0.4398 -0.3250
  136OSM    H9S14775   0.460   6.869   6.986 -0.1074  0.0966 -2.1776
  136OSM    H9T14776   0.441   6.695   7.008  0.1546  0.6698  1.1728
  136OSM   C10S14777   0.314   6.839   7.132 -0.0157 -1.0918 -0.4584
  136OSM   H10S14778   0.225   6.777   7.155 -0.7602 -0.0556 -0.5356
  136OSM   H10T14779   0.286   6.943   7.108 -1.1225 -1.0504  0.9756
  136OSM   C11S14780   0.402   6.849   7.253 -0.0086  0.4287 -0.8480
  136OSM   H11S14781   0.505   6.870   7.218 -0.5070  2.6381 -1.0823
  136OSM   H11T14782   0.401   6.750   7.302 -1.0622  0.7266 -0.2549
  136OSM   C12S14783   0.377   6.954   7.361  0.3382 -0.2680 -0.0693
  136OSM   H12S14784   0.271   6.960   7.392  0.4075 -0.6388  0.2387
  136OSM   H12T14785   0.401   7.057   7.327  0.7309 -0.5257 -0.6023
  136OSM   C13S14786   0.450   6.926   7.492 -0.4340  0.1645 -0.5875
  136OSM   H13S14787   0.559   6.903   7.483 -0.3351 -0.8629  2.5529
  136OSM   H13T14788   0.388   6.839   7.524 -0.9172 -0.5982 -3.5139
  136OSM   C14S14789   0.438   7.041   7.594  0.0808 -0.5407  0.0079
  136OSM   H14S14790   0.341   7.092   7.573  0.6490  0.7481  0.4734
  136OSM   H14T14791   0.525   7.109   7.583  0.0978 -0.7796 -1.4417
  136OSM   C15S14792   0.427   6.996   7.733  0.2527  0.6764  0.1170
  136OSM   H15S14793   0.350   6.916   7.734  1.1174 -0.1811 -0.2126
  136OSM   H15T14794   0.392   7.075   7.802  0.0452  0.0696  0.7092
  136OSM   C16S14795   0.561   6.947   7.782 -0.9708 -0.2004  0.2889
  136OSM   H16S14796   0.647   7.011   7.754 -0.0809 -1.1772  0.7655
  136OSM   H16T14797   0.585   6.852   7.729 -0.1373  0.0621  0.1986
  136OSM   C17S14798   0.569   6.927   7.930  0.0598 -0.6532 -0.5103
  136OSM   H17S14799   0.542   7.022   7.981 -0.0099 -1.4351  0.9319
  136OSM   H17T14800   0.675   6.907   7.953 -0.3552 -1.9658  0.2581
  136OSM   C18S14801   0.469   6.816   7.974 -0.0278  0.0582 -0.0270
  136OSM   H18S14802   0.494   6.765   8.069 -2.0957 -1.3397 -0.1967
  136OSM   H18T14803   0.475   6.731   7.902 -1.4183 -0.8800  0.9459
  136OSM   H18U14804   0.363   6.848   7.976 -0.4646 -1.3420 -0.2664
  136OSM    C1F14805   0.310   6.262   6.402 -0.3073  0.2191  0.0660
  136OSM     OF14806   0.395   6.173   6.393  0.3769  0.1526 -0.5823
  136OSM    C2F14807   0.165   6.227   6.432 -0.3930  1.1222  0.4198
  136OSM    H2F14808   0.122   6.188   6.337  0.4456  1.5081 -0.1259
  136OSM    H2G14809   0.121   6.322   6.469 -0.4936  0.9974  0.6212
  136OSM    C3F14810   0.161   6.125   6.546  0.4673 -0.3012  0.3000
  136OSM    H3F14811   0.208   6.028   6.519 -1.2984 -0.4247 -2.4455
  136OSM    H3G14812   0.060   6.099   6.583 -0.3138 -0.1995 -1.6975
  136OSM    C4F14813   0.217   6.176   6.678 -0.7197 -0.0774  0.1838
  136OSM    H4F14814   0.328   6.169   6.667 -0.8879 -0.1777 -1.5687
  136OSM    H4G14815   0.195   6.097   6.754  0.8218 -0.0335  0.6966
  136OSM    C5F14816   0.173   6.307   6.732  0.0571 -0.6165 -0.5098
  136OSM    H5F14817   0.062   6.307   6.727  0.0892  0.1220 -1.3122
  136OSM    H5G14818   0.209   6.388   6.664 -0.3613 -0.5847 -0.6922
  136OSM    C6F14819   0.216   6.344   6.867 -0.2571 -0.6407  0.6340
  136OSM    H6F14820   0.159   6.271   6.929  0.0923 -1.3997  0.0713
  136OSM    H6G14821   0.179   6.448   6.882 -1.1002 -0.2971 -3.2953
  136OSM    C7F14822   0.366   6.344   6.901 -0.9839 -0.0684  0.5246
  136OSM    H7F14823   0.408   6.427   6.840 -1.1426  0.3476  0.9788
  136OSM    H7G14824   0.416   6.259   6.851 -2.9609  0.0565 -1.7848
  136OSM    C8F14825   0.402   6.375   7.045 -0.0528  0.1622  0.1201
  136OSM    H8F14826   0.362   6.469   7.088  2.0685  1.6788 -1.1675
  136OSM    H8G14827   0.512   6.388   7.046  0.0695 -0.8444  2.5127
  136OSM    C9F14828   0.371   6.255   7.129 -0.5492 -0.0678 -0.1644
  136OSM    H9F14829   0.419   6.162   7.095 -0.2789  0.1981 -0.5040
  136OSM   C10F14830   0.289   6.255   7.237 -0.5215 -0.0723  0.3672
  136OSM   H10F14831   0.262   6.159   7.283 -1.5597 -0.8495 -1.8232
  136OSM   C11F14832   0.211   6.380   7.278  0.0703  0.3439  0.4191
  136OSM   H11F14833   0.113   6.348   7.318  1.1284 -1.0241  2.0094
  136OSM   H11G14834   0.194   6.440   7.186 -2.4153 -0.7424  0.1383
  136OSM   C12F14835   0.301   6.458   7.375 -0.9512 -0.4173 -0.6108
  136OSM   H12F14836   0.248   6.555   7.379 -1.5105 -0.7411 -0.0406
  136OSM   H12G14837   0.405   6.475   7.341  0.0913 -1.9416  1.7414
  136OSM   C13F14838   0.305   6.382   7.509 -0.1149  0.3447 -0.2923
  136OSM   H13F14839   0.346   6.280   7.494  1.7441  1.0195  0.1091
  136OSM   H13G14840   0.203   6.352   7.541 -1.2750  0.9727 -3.1881
  136OSM   C14F14841   0.384   6.453   7.622 -0.5822 -0.0523  0.6816
  136OSM   H14F14842   0.344   6.555   7.640  0.2043  0.3264  0.3271
  136OSM   H14G14843   0.482   6.486   7.581 -1.0478  0.9523  0.3608
  136OSM   C15F14844   0.410   6.372   7.751 -0.3178  0.2517  0.0877
  136OSM   H15F14845   0.490   6.297   7.733  0.4064  0.6088  1.7892
  136OSM   H15G14846   0.314   6.321   7.777 -0.1455  0.0852  0.4018
  136OSM   C16F14847   0.442   6.465   7.865  0.4876  0.4755  0.2535
  136OSM   H16F14848   0.367   6.547   7.871  1.6584  1.5858  0.0993
  136OSM   H16G14849   0.545   6.504   7.849 -0.3792  2.4804 -0.6762
  136OSM   C17F14850   0.442   6.388   8.000  0.3994  0.5826 -0.1564
  136OSM   H17F14851   0.511   6.302   7.984 -1.1580 -0.3980 -1.7598
  136OSM   H17G14852   0.338   6.353   8.018  0.0187  1.6747 -0.2235
  136OSM   C18F14853   0.493   6.467   8.117  0.3091 -0.3936  0.3058
  136OSM   H18F14854   0.424   6.553   8.126  0.5783 -0.0861 -0.5161
  136OSM   H18G14855   0.596   6.499   8.089  0.1517  0.2546  0.4840
  136OSM   H18H14856   0.508   6.410   8.211 -0.2384  0.0882  0.6875
  137OSM      N14857   3.365   4.719   6.208 -0.0477 -0.7701 -0.1578
  137OSM    C1514858   3.231   4.776   6.232 -0.7133  0.7558 -0.2063
  137OSM   H15A14859   3.168   4.714   6.295 -1.8336  0.7582 -1.2982
  137OSM   H15B14860   3.186   4.796   6.136  0.1093  3.4160 -0.0807
  137OSM   H15C14861   3.231   4.870   6.285 -0.1091  0.5869  0.0976
  137OSM    C1414862   3.354   4.629   6.089 -0.5044 -0.2628  0.1042
  137OSM   H14A14863   3.318   4.687   6.004  0.6704 -2.5983 -2.0443
  137OSM   H14B14864   3.272   4.559   6.099  0.2719 -1.4641 -1.6754
  137OSM   H14C14865   3.447   4.578   6.070 -0.1632 -0.1039  1.3191
  137OSM    C1314866   3.473   4.816   6.171  0.3591  0.3588  0.4485
  137OSM   H13A14867   3.503   4.860   6.265  0.0199  0.5184  0.4851
  137OSM   H13B14868   3.435   4.893   6.105 -0.4230 -0.4899 -0.1205
  137OSM   H13C14869   3.554   4.764   6.123 -0.9017 -0.8951 -0.3957
  137OSM    C1214870   3.410   4.631   6.320 -0.6847 -0.5207  0.2116
  137OSM   H12A14871   3.497   4.575   6.289 -0.1359 -0.0958  0.9774
  137OSM   H12B14872   3.327   4.561   6.325 -1.1210  0.0703  1.3898
  137OSM    C1114873   3.445   4.695   6.456  0.0450 -0.0016 -0.5201
  137OSM   H11A14874   3.457   4.611   6.528  0.5719  0.2115 -0.3588
  137OSM   H11B14875   3.363   4.763   6.485  0.7867  1.6351 -2.1347
  137OSM      P14876   3.712   4.693   6.435 -0.8146  0.3663  0.2473
  137OSM    O1314877   3.702   4.584   6.330 -0.0978 -0.5935 -0.3110
  137OSM    O1414878   3.822   4.790   6.423  0.6245  0.3615 -0.0479
  137OSM    O1114879   3.712   4.624   6.576  0.3144  0.5158  0.0898
  137OSM    O1214880   3.566   4.774   6.441 -0.1954 -0.1826  0.1575
  137OSM    C1S14881   3.749   4.679   6.699  0.1596 -0.3785 -0.0314
  137OSM    H1S14882   3.661   4.729   6.744  0.2453 -0.2585  0.0015
  137OSM    H1T14883   3.832   4.751   6.687  0.6918 -0.5196  2.6164
  137OSM     NF14884   3.822   4.637   6.930  0.0625 -0.2954 -0.5302
  137OSM    HNF14885   3.916   4.643   6.963 -0.7866  0.0681  1.9522
  137OSM    C2S14886   3.793   4.574   6.804  0.4609 -0.4880 -1.1099
  137OSM    H2S14887   3.708   4.504   6.817 -1.9191  2.1016 -2.2118
  137OSM    C3S14888   3.912   4.487   6.759  0.4408  0.0049 -0.2426
  137OSM    H3S14889   4.001   4.552   6.773 -0.4330  0.6592  2.5769
  137OSM     O314890   3.922   4.454   6.618  0.4731 -0.0236 -0.6404
  137OSM    HO314891   3.855   4.510   6.578  1.4197  0.5448 -1.4597
  137OSM    C4S14892   3.927   4.359   6.834 -0.0763  0.2476  0.2584
  137OSM    H4S14893   3.852   4.281   6.815  1.8511 -1.4305 -0.6677
  137OSM    C5S14894   4.018   4.347   6.931  0.9922 -0.0328  0.2926
  137OSM    H5S14895   4.066   4.438   6.969  1.1481  0.5236 -1.2338
  137OSM    C6S14896   4.023   4.213   7.012 -0.0634  0.4309 -0.1147
  137OSM    H6S14897   4.126   4.175   7.031 -0.6981 -0.4306  1.7311
  137OSM    H6T14898   3.975   4.143   6.940  0.3228 -0.5990  0.6140
  137OSM    C7S14899   3.950   4.207   7.152  0.2277  0.0407  0.8658
  137OSM    H7S14900   3.848   4.244   7.129  0.2091 -1.4372 -1.7076
  137OSM    H7T14901   4.009   4.269   7.223 -0.1952  0.4268  0.8799
  137OSM    C8S14902   3.938   4.066   7.200  0.2759  0.4618 -0.2745
  137OSM    H8S14903   4.037   4.036   7.240 -0.4398 -0.2006  1.0227
  137OSM    H8T14904   3.907   3.995   7.120  1.0328  1.3050 -1.3268
  137OSM    C9S14905   3.839   4.055   7.305  0.5070 -0.3231  0.3275
  137OSM    H9S14906   3.809   3.950   7.323 -1.5050  0.0693 -0.6176
  137OSM    H9T14907   3.751   4.112   7.270  0.2232 -0.0345  1.4939
  137OSM   C10S14908   3.888   4.113   7.442 -0.7714 -0.0759  0.7892
  137OSM   H10S14909   3.849   4.215   7.461 -2.3201 -0.3144 -0.9314
  137OSM   H10T14910   3.998   4.124   7.435 -0.4446 -2.3040  2.0451
  137OSM   C11S14911   3.847   4.027   7.557 -0.1155 -0.0241 -0.5553
  137OSM   H11S14912   3.873   3.920   7.542 -2.9360 -0.7134 -0.8182
  137OSM   H11T14913   3.736   4.017   7.563  0.0484 -1.0870  1.0174
  137OSM   C12S14914   3.916   4.065   7.690 -0.2755  0.2056 -0.4565
  137OSM   H12S14915   3.852   4.135   7.747  0.8581 -0.0725  1.2050
  137OSM   H12T14916   4.009   4.124   7.676  0.1639 -0.6006 -0.9507
  137OSM   C13S14917   3.952   3.965   7.797  0.6212  0.1114  0.1122
  137OSM   H13S14918   4.044   3.908   7.769  2.0929  2.0580  0.8168
  137OSM   H13T14919   3.871   3.890   7.806 -0.4582  1.2648  0.1645
  137OSM   C14S14920   4.007   4.010   7.930 -0.0079  0.2248  0.4313
  137OSM   H14S14921   3.927   4.060   7.990  0.2300 -1.3429  2.1060
  137OSM   H14T14922   4.089   4.084   7.920 -1.7699  2.1947  0.0742
  137OSM   C15S14923   4.042   3.890   8.010 -0.6066 -0.6133  0.5463
  137OSM   H15S14924   4.113   3.826   7.953 -0.2605  0.9470 -0.8273
  137OSM   H15T14925   3.947   3.837   8.033 -0.2450 -0.5461  2.2378
  137OSM   C16S14926   4.111   3.916   8.147  0.3399  0.0565 -0.3111
  137OSM   H16S14927   4.219   3.896   8.133  0.6625  1.3669  0.2171
  137OSM   H16T14928   4.061   3.844   8.215 -1.9161  0.3597 -1.5798
  137OSM   C17S14929   4.088   4.057   8.212  1.5387  0.5645 -0.2822
  137OSM   H17S14930   3.980   4.081   8.215  0.8461 -2.3209 -0.9723
  137OSM   H17T14931   4.124   4.134   8.139  0.8871  0.5020 -0.6685
  137OSM   C18S14932   4.151   4.076   8.345  0.5766  0.8639 -0.5183
  137OSM   H18S14933   4.121   4.180   8.373 -1.2436  0.6764 -1.7046
  137OSM   H18T14934   4.260   4.066   8.362  0.3632 -0.2423  0.2149
  137OSM   H18U14935   4.106   4.015   8.426 -0.5949  0.2397 -1.6175
  137OSM    C1F14936   3.721   4.680   7.007 -0.3456 -0.2962 -0.7535
  137OSM     OF14937   3.603   4.665   6.974  0.0249  0.0216  0.3459
  137OSM    C2F14938   3.761   4.733   7.141 -0.5120 -0.3642 -0.1130
  137OSM    H2F14939   3.864   4.772   7.132 -1.2297  1.5741 -0.1521
  137OSM    H2G14940   3.765   4.649   7.213 -0.9688 -1.3070 -1.1610
  137OSM    C3F14941   3.672   4.851   7.182 -0.5120 -0.0760  0.2135
  137OSM    H3F14942   3.569   4.812   7.196 -0.5671 -0.5480 -1.3606
  137OSM    H3G14943   3.665   4.928   7.102  4.0552 -2.0123 -2.2682
  137OSM    C4F14944   3.712   4.908   7.316 -0.3547 -0.2215 -0.1874
  137OSM    H4F14945   3.668   5.009   7.331 -1.7152 -0.6546 -1.1770
  137OSM    H4G14946   3.823   4.917   7.322 -0.3121 -0.0704 -1.2634
  137OSM    C5F14947   3.669   4.815   7.423  0.0420 -0.4098  0.1931
  137OSM    H5F14948   3.708   4.714   7.402  2.6024  0.1044  2.2366
  137OSM    H5G14949   3.558   4.817   7.420  0.0032  1.6123  1.7339
  137OSM    C6F14950   3.707   4.846   7.568 -0.2213 -0.2211  1.2126
  137OSM    H6F14951   3.741   4.951   7.563 -1.1200 -0.0146 -1.0909
  137OSM    H6G14952   3.796   4.787   7.599  1.2390  0.8116 -0.9622
  137OSM    C7F14953   3.604   4.834   7.678 -0.9732 -0.8375 -0.7445
  137OSM    H7F14954   3.523   4.763   7.653  0.0417 -2.5831  0.8213
  137OSM    H7G14955   3.548   4.930   7.686  0.1014 -0.0860 -1.8794
  137OSM    C8F14956   3.653   4.792   7.820  0.0072  0.1247 -0.2389
  137OSM    H8F14957   3.721   4.870   7.860 -0.0714 -0.2100  0.5689
  137OSM    H8G14958   3.704   4.694   7.806 -0.3099  0.0704 -1.0531
  137OSM    C9F14959   3.537   4.791   7.917 -0.2859 -0.0062 -0.3819
  137OSM    H9F14960   3.442   4.801   7.863  0.1779  0.7370 -1.0586
  137OSM   C10F14961   3.532   4.761   8.050 -0.0342  0.4828  0.8071
  137OSM   H10F14962   3.434   4.761   8.099 -0.9670  1.4129 -1.0323
  137OSM   C11F14963   3.657   4.731   8.137 -0.1756 -0.1887  0.4053
  137OSM   H11F14964   3.651   4.788   8.232 -0.7202 -0.0978  0.3167
  137OSM   H11G14965   3.754   4.745   8.084  0.0712  1.0139  1.1530
  137OSM   C12F14966   3.667   4.587   8.185 -0.1563  0.1410  0.4278
  137OSM   H12F14967   3.758   4.582   8.247 -1.2121  0.6876  2.0521
  137OSM   H12G14968   3.673   4.519   8.097  0.5795 -0.5256  0.9857
  137OSM   C13F14969   3.550   4.532   8.266 -0.1822 -0.5935  0.2767
  137OSM   H13F14970   3.457   4.516   8.207 -1.8999 -1.6621  3.1569
  137OSM   H13G14971   3.531   4.609   8.345 -1.4107 -1.0360  0.4258
  137OSM   C14F14972   3.591   4.395   8.333  0.1105 -0.3606  0.4138
  137OSM   H14F14973   3.688   4.406   8.387 -0.3512 -0.1150  1.2005
  137OSM   H14G14974   3.618   4.322   8.254 -0.4409  0.4479 -0.5359
  137OSM   C15F14975   3.480   4.353   8.417 -0.0373  0.0893  1.0613
  137OSM   H15F14976   3.377   4.376   8.381  0.4724  0.7218 -0.0030
  137OSM   H15G14977   3.491   4.417   8.508  0.6238 -0.0514  1.0751
  137OSM   C16F14978   3.497   4.212   8.455  0.0027  0.5495 -0.0422
  137OSM   H16F14979   3.600   4.178   8.481 -0.1829  0.2137  0.2596
  137OSM   H16G14980   3.471   4.148   8.367  1.2971  1.2758 -0.9673
  137OSM   C17F14981   3.405   4.166   8.565  0.0415 -0.2275 -0.5076
  137OSM   H17F14982   3.423   4.057   8.571 -2.7197 -0.6631  0.6160
  137OSM   H17G14983   3.303   4.176   8.522  0.0462  2.0754 -0.0704
  137OSM   C18F14984   3.419   4.246   8.697  0.1236 -0.2882 -0.6287
  137OSM   H18F14985   3.344   4.193   8.760  0.0027  0.3796 -0.2080
  137OSM   H18G14986   3.374   4.345   8.675  0.3428 -0.4099 -1.6382
  137OSM   H18H14987   3.518   4.255   8.748 -0.1129 -1.1630  0.0022
  138OSM      N14988   4.234   6.274   6.199  0.2100 -0.9306 -0.2231
  138OSM    C1514989   4.303   6.148   6.221  0.0502 -0.2108  0.3065
  138OSM   H15A14990   4.274   6.065   6.158  0.6105 -1.1963  1.3341
  138OSM   H15B14991   4.288   6.127   6.326 -0.2284 -2.4118 -0.1409
  138OSM   H15C14992   4.409   6.151   6.201 -0.0166 -0.6349 -0.1216
  138OSM    C1414993   4.088   6.255   6.190  0.3732 -0.0162  0.6428
  138OSM   H14A14994   4.032   6.237   6.281 -2.1135  3.1059 -0.2094
  138OSM   H14B14995   4.051   6.186   6.115 -1.9236 -1.1275  2.7334
  138OSM   H14C14996   4.054   6.350   6.152 -2.6240 -0.3070  2.4235
  138OSM    C1314997   4.268   6.365   6.311  0.0193 -0.1872  0.2877
  138OSM   H13A14998   4.376   6.371   6.316 -0.1882  3.4604  3.0852
  138OSM   H13B14999   4.231   6.320   6.402 -0.6575 -0.3988 -0.0907
  138OSM   H13C15000   4.222   6.462   6.309  2.7532  1.1996  2.0328
  138OSM    C1215001   4.284   6.341   6.066 -0.4275  0.3978  0.1880
  138OSM   H12A15002   4.272   6.270   5.985 -2.5670 -1.4536  2.0767
  138OSM   H12B15003   4.389   6.364   6.074 -0.2115  0.5378 -2.3932
  138OSM    C1115004   4.212   6.472   6.025 -0.1458 -0.3469 -0.5943
  138OSM   H11A15005   4.272   6.526   5.949 -1.8561  0.2180 -1.5870
  138OSM   H11B15006   4.219   6.535   6.116 -1.0311 -1.2832  0.1339
  138OSM      P15007   3.980   6.581   5.963 -0.0565  0.0063 -0.4769
  138OSM    O1315008   4.025   6.656   5.847  0.6766 -0.0643 -0.0432
  138OSM    O1415009   3.842   6.534   5.953 -0.1557  0.4436  0.3644
  138OSM    O1115010   3.984   6.674   6.089 -0.5313 -0.4032 -0.0922
  138OSM    O1215011   4.073   6.452   5.986  0.2505 -0.2079  0.0926
  138OSM    C1S15012   3.960   6.607   6.213  0.0609 -0.4119 -0.0808
  138OSM    H1S15013   4.043   6.538   6.239 -0.8551 -1.2160  0.7253
  138OSM    H1T15014   3.873   6.539   6.204 -1.2261  0.9365  1.7358
  138OSM     NF15015   3.907   6.621   6.442  0.5795  0.0064  0.3496
  138OSM    HNF15016   3.817   6.623   6.485 -0.5891  4.5855 -1.9526
  138OSM    C2S15017   3.934   6.699   6.330 -0.2940 -0.0323 -0.5239
  138OSM    H2S15018   4.029   6.751   6.355 -0.3544 -0.2198  0.1015
  138OSM    C3S15019   3.822   6.807   6.297  0.4625  0.2318 -0.3294
  138OSM    H3S15020   3.726   6.756   6.277  0.0934  0.7562  0.0799
  138OSM     O315021   3.844   6.881   6.177 -0.0806 -0.5665 -0.5352
  138OSM    HO315022   3.914   6.829   6.136  0.5173  0.9640 -1.4992
  138OSM    C4S15023   3.804   6.895   6.422 -0.2997  0.4020 -0.4858
  138OSM    H4S15024   3.723   6.863   6.490  1.3744 -1.3654  0.7431
  138OSM    C5S15025   3.867   7.005   6.460 -0.3779  0.0270  0.5642
  138OSM    H5S15026   3.950   7.045   6.400 -0.9285 -0.3094 -0.4357
  138OSM    C6S15027   3.858   7.068   6.592 -0.4648 -0.2688 -0.8705
  138OSM    H6S15028   3.756   7.073   6.637 -0.9168 -1.5827 -1.7006
  138OSM    H6T15029   3.890   7.173   6.580  0.9677 -0.3065  2.2502
  138OSM    C7S15030   3.968   7.020   6.679  0.2627  0.5110  0.6114
  138OSM    H7S15031   4.066   7.015   6.626 -0.0186 -1.7578  0.2815
  138OSM    H7T15032   3.949   6.913   6.700  0.6603  0.1549 -0.7979
  138OSM    C8S15033   3.999   7.123   6.784 -0.1377  0.6639 -0.3619
  138OSM    H8S15034   3.905   7.134   6.842  0.2722  1.5753  0.1449
  138OSM    H8T15035   4.034   7.218   6.739  0.3931  1.3922  1.5210
  138OSM    C9S15036   4.099   7.081   6.891  0.1846 -0.0910 -0.6073
  138OSM    H9S15037   4.205   7.080   6.857  0.1164 -0.2101 -0.8128
  138OSM    H9T15038   4.088   6.971   6.908 -1.2874  0.3629  1.5097
  138OSM   C10S15039   4.093   7.151   7.029  0.0791 -0.2735 -0.4398
  138OSM   H10S15040   3.992   7.113   7.056  0.4213 -0.8354  0.0720
  138OSM   H10T15041   4.092   7.260   7.008 -0.0377 -0.1399  0.2509
  138OSM   C11S15042   4.201   7.105   7.126 -0.1853  0.1298  0.5326
  138OSM   H11S15043   4.295   7.155   7.095 -0.6968 -0.2718 -1.7251
  138OSM   H11T15044   4.216   6.996   7.117 -0.2521  0.0688  1.1030
  138OSM   C12S15045   4.161   7.152   7.273  0.1478 -0.2666 -0.7940
  138OSM   H12S15046   4.056   7.119   7.289  0.5067 -1.0123  0.0653
  138OSM   H12T15047   4.151   7.262   7.274  1.7245 -0.1321  0.1727
  138OSM   C13S15048   4.262   7.117   7.380 -0.0426  0.7849  0.4891
  138OSM   H13S15049   4.362   7.164   7.373  0.7844 -1.0231 -0.2788
  138OSM   H13T15050   4.283   7.007   7.380  1.7407  1.1142 -0.1389
  138OSM   C14S15051   4.217   7.149   7.523 -0.0217 -0.1674  0.6352
  138OSM   H14S15052   4.116   7.109   7.542 -0.3842  0.1680 -0.5373
  138OSM   H14T15053   4.211   7.260   7.533 -2.9139 -0.3819  1.8317
  138OSM   C15S15054   4.308   7.083   7.626 -0.1133 -0.0720 -0.1303
  138OSM   H15S15055   4.399   7.145   7.615 -1.2539  1.6174 -0.2085
  138OSM   H15T15056   4.334   6.977   7.603 -1.1920 -0.3871  0.0546
  138OSM   C16S15057   4.260   7.104   7.772  0.1982 -0.8218  0.6244
  138OSM   H16S15058   4.154   7.070   7.772 -0.0538 -0.0747 -0.6245
  138OSM   H16T15059   4.255   7.210   7.803  1.2770 -0.3947 -0.6402
  138OSM   C17S15060   4.352   7.027   7.867  0.4453 -0.4818 -0.4793
  138OSM   H17S15061   4.457   7.044   7.836  0.4016 -0.3003 -0.5307
  138OSM   H17T15062   4.342   6.917   7.860 -0.0338 -0.4756  0.0291
  138OSM   C18S15063   4.319   7.069   8.016 -0.2413  0.9136  0.6613
  138OSM   H18S15064   4.230   7.012   8.050 -0.0921  0.2679 -0.0282
  138OSM   H18T15065   4.296   7.177   8.028  1.4165  1.4617 -0.8729
  138OSM   H18U15066   4.406   7.054   8.083  1.4669 -0.3639 -1.7707
  138OSM    C1F15067   3.993   6.536   6.492 -0.0019  0.4501 -0.8805
  138OSM     OF15068   4.111   6.551   6.466  0.2416 -0.3060  0.1747
  138OSM    C2F15069   3.942   6.433   6.589 -0.6740 -0.0728 -0.6309
  138OSM    H2F15070   3.897   6.356   6.522 -0.9292  1.2672 -2.0386
  138OSM    H2G15071   3.872   6.487   6.657 -0.6067 -1.5024  0.5835
  138OSM    C3F15072   4.056   6.363   6.673 -0.3440  0.2358 -0.0900
  138OSM    H3F15073   4.102   6.438   6.740  1.4285  1.0700 -2.1766
  138OSM    H3G15074   4.140   6.331   6.607  0.7904  0.0463  1.4362
  138OSM    C4F15075   4.004   6.250   6.776 -0.0165 -0.4169  0.2634
  138OSM    H4F15076   4.087   6.186   6.812 -1.8625 -2.8035  0.4116
  138OSM    H4G15077   3.957   6.176   6.707 -0.5622  1.5978 -1.5997
  138OSM    C5F15078   3.932   6.306   6.899  0.0528 -0.4256 -0.1333
  138OSM    H5F15079   3.842   6.360   6.865  0.0147 -0.1445  0.4060
  138OSM    H5G15080   3.999   6.378   6.951 -1.6345  0.9603  0.1767
  138OSM    C6F15081   3.892   6.198   6.997 -0.9584  0.0870  0.0465
  138OSM    H6F15082   3.977   6.139   7.038  1.1361 -0.0474 -4.2084
  138OSM    H6G15083   3.817   6.137   6.943 -1.9445 -0.1189  1.6520
  138OSM    C7F15084   3.817   6.263   7.107  0.0297 -0.2829 -0.0828
  138OSM    H7F15085   3.764   6.181   7.159 -1.9070  0.2559 -1.1587
  138OSM    H7G15086   3.733   6.313   7.055 -0.6504 -0.8036  0.5002
  138OSM    C8F15087   3.896   6.361   7.200  0.7681 -0.2821  0.1879
  138OSM    H8F15088   3.825   6.414   7.266 -0.9241 -0.4358 -1.4566
  138OSM    H8G15089   3.929   6.443   7.132 -0.3934  0.0920  0.0756
  138OSM    C9F15090   4.006   6.303   7.281 -0.1631 -0.0122 -0.2175
  138OSM    H9F15091   4.084   6.251   7.223  1.3678  1.4425  0.4945
  138OSM   C10F15092   4.024   6.309   7.413 -0.1307  0.3069  0.4376
  138OSM   H10F15093   4.114   6.266   7.460 -0.5200 -0.5815  0.3814
  138OSM   C11F15094   3.921   6.369   7.506  0.3700 -0.2860 -0.2430
  138OSM   H11F15095   3.861   6.448   7.458 -1.2772 -2.6697 -2.2666
  138OSM   H11G15096   3.980   6.417   7.587 -0.3510  1.5583 -0.7968
  138OSM   C12F15097   3.825   6.265   7.573  0.1169  0.0576  0.0356
  138OSM   H12F15098   3.874   6.203   7.651 -1.2827 -0.1583  0.7624
  138OSM   H12G15099   3.788   6.197   7.493 -0.9716 -0.3732  0.8856
  138OSM   C13F15100   3.711   6.334   7.648  0.1318 -1.0442  0.2194
  138OSM   H13F15101   3.637   6.255   7.672 -0.6067 -0.4457 -0.0768
  138OSM   H13G15102   3.662   6.412   7.586  2.6806  1.3177  1.0632
  138OSM   C14F15103   3.758   6.402   7.776 -0.3767 -0.4477  0.3977
  138OSM   H14F15104   3.679   6.475   7.803 -0.3214 -0.2721  0.0836
  138OSM   H14G15105   3.834   6.479   7.752  0.8710 -1.1427  2.0641
  138OSM   C15F15106   3.817   6.317   7.890  0.8721 -0.9250  0.3123
  138OSM   H15F15107   3.877   6.380   7.959 -1.1671  0.6062  0.7430
  138OSM   H15G15108   3.891   6.248   7.845  1.2790 -0.3120  0.0486
  138OSM   C16F15109   3.709   6.248   7.979 -0.1187 -0.3280 -0.2002
  138OSM   H16F15110   3.652   6.188   7.905  1.3840  0.3604 -1.9365
  138OSM   H16G15111   3.642   6.319   8.031  1.3034 -0.0626  1.3196
  138OSM   C17F15112   3.775   6.157   8.082  0.1367  0.9195 -0.0705
  138OSM   H17F15113   3.707   6.144   8.169 -0.0330 -0.7784 -0.4451
  138OSM   H17G15114   3.868   6.199   8.125  0.4875 -0.0012  0.0834
  138OSM   C18F15115   3.818   6.016   8.025  1.1805 -0.0093  0.1483
  138OSM   H18F15116   3.730   5.969   7.976  0.1868  1.0267  0.9119
  138OSM   H18G15117   3.871   5.955   8.102  0.6155 -0.4282  0.2086
  138OSM   H18H15118   3.899   6.037   7.952  2.7985 -1.5352  1.4332
  139OSM      N15119   3.491   0.162   5.918  0.2488  0.2256  0.0333
  139OSM    C1515120   3.342   0.156   5.903 -1.3324  0.8019  0.0997
  139OSM   H15A15121   3.312   0.171   5.800  2.6536 -0.1993 -1.3143
  139OSM   H15B15122   3.289   0.217   5.974 -1.7714 -1.2362  1.5770
  139OSM   H15C15123   3.306   0.055   5.920 -2.9215  1.4040  0.3780
  139OSM    C1415124   3.548   0.072   5.810 -1.1927  0.3347 -0.1596
  139OSM   H14A15125   3.656   0.078   5.814 -1.3185  1.7359  2.0898
  139OSM   H14B15126   3.524   0.107   5.711 -2.5747 -0.6426 -0.1843
  139OSM   H14C15127   3.526  -0.031   5.832 -1.6741  0.5797  0.5373
  139OSM    C1315128   3.532   0.303   5.890  0.1720  0.1528 -0.3266
  139OSM   H13A15129   3.636   0.324   5.914 -1.1902  3.2076  3.5415
  139OSM   H13B15130   3.476   0.374   5.949  1.4183  0.9883 -0.1286
  139OSM   H13C15131   3.528   0.333   5.787 -0.4533  0.1374 -0.3050
  139OSM    C1215132   3.528   0.120   6.056  0.1325  0.1098 -0.4437
  139OSM   H12A15133   3.635   0.107   6.063  0.1194  0.3785  0.2491
  139OSM   H12B15134   3.494   0.020   6.077  0.4716 -0.0668 -0.7325
  139OSM    C1115135   3.488   0.205   6.185  0.1685  0.8972 -0.2724
  139OSM   H11A15136   3.547   0.188   6.278 -0.5121 -1.3368 -0.2223
  139OSM   H11B15137   3.381   0.182   6.203 -0.3997  2.6405 -1.4245
  139OSM      P15138   3.406   0.451   6.203  0.0283 -0.2582  0.0520
  139OSM    O1315139   3.476   0.580   6.201 -0.2468  0.1512  0.0847
  139OSM    O1415140   3.281   0.444   6.124  0.0676 -0.2706 -0.2738
  139OSM    O1115141   3.371   0.410   6.351 -0.1677 -0.0518  0.0445
  139OSM    O1215142   3.509   0.340   6.159  0.5068 -0.7145  0.1159
  139OSM    C1S15143   3.466   0.413   6.461  0.3193  0.0227 -0.2224
  139OSM    H1S15144   3.562   0.464   6.435 -1.0889  2.4093 -0.9675
  139OSM    H1T15145   3.486   0.313   6.505  0.6543  0.3374  0.3542
  139OSM     NF15146   3.513   0.551   6.657  0.1609  0.0049  0.1300
  139OSM    HNF15147   3.528   0.500   6.741  1.6492 -0.3889 -0.3636
  139OSM    C2S15148   3.406   0.501   6.576 -0.2976  0.5966  0.3471
  139OSM    H2S15149   3.367   0.595   6.532  3.8093  1.8013 -0.9497
  139OSM    C3S15150   3.301   0.407   6.642  0.5188 -1.5495  0.2958
  139OSM    H3S15151   3.359   0.325   6.688  1.2794 -1.5333 -0.6084
  139OSM     O315152   3.214   0.346   6.551 -0.0097 -0.0893 -0.0127
  139OSM    HO315153   3.244   0.372   6.463 -0.6972 -1.7663 -0.7659
  139OSM    C4S15154   3.218   0.482   6.738 -0.0132  0.1791  0.4692
  139OSM    H4S15155   3.207   0.590   6.718 -2.9129 -0.4182 -1.6510
  139OSM    C5S15156   3.150   0.435   6.849  0.7753 -0.5847  0.0133
  139OSM    H5S15157   3.145   0.328   6.872 -0.9788 -0.0418  2.4022
  139OSM    C6S15158   3.052   0.508   6.945  0.3521  0.8734 -0.0404
  139OSM    H6S15159   3.001   0.425   6.999  2.3268 -0.6655 -0.4509
  139OSM    H6T15160   2.978   0.574   6.897 -0.8165 -0.7401 -0.5076
  139OSM    C7S15161   3.117   0.595   7.051  0.6874 -0.1413  0.2219
  139OSM    H7S15162   3.171   0.680   7.003  0.4113  0.5177  1.0689
  139OSM    H7T15163   3.208   0.544   7.090  1.4698  0.1701 -1.1407
  139OSM    C8S15164   3.022   0.629   7.163  0.3031  0.0477 -0.4869
  139OSM    H8S15165   2.985   0.530   7.197  1.9984 -0.0481  1.1272
  139OSM    H8T15166   2.941   0.680   7.106 -0.8068 -1.0510  0.0984
  139OSM    C9S15167   3.087   0.719   7.272 -0.1522 -0.2728 -0.3611
  139OSM    H9S15168   3.131   0.815   7.237  1.5629 -0.3104  1.6075
  139OSM    H9T15169   3.174   0.662   7.310  0.0122  0.6548  0.6867
  139OSM   C10S15170   2.996   0.759   7.389  0.0975 -0.3520  0.2180
  139OSM   H10S15171   2.936   0.676   7.432 -1.0169  0.6091  0.5417
  139OSM   H10T15172   2.931   0.845   7.362 -2.2849 -1.5685  1.8236
  139OSM   C11S15173   3.083   0.804   7.504  0.3065 -0.2323  0.3741
  139OSM   H11S15174   3.133   0.899   7.475  1.0062 -0.1098  1.9336
  139OSM   H11T15175   3.178   0.752   7.528  0.8551  0.7887  0.4214
  139OSM   C12S15176   2.989   0.824   7.628 -0.5038  0.3895  0.2277
  139OSM   H12S15177   2.948   0.725   7.655  1.4082 -0.9417 -1.5611
  139OSM   H12T15178   2.906   0.896   7.610 -0.0900  1.1580  1.3134
  139OSM   C13S15179   3.071   0.872   7.748 -0.1351 -0.3431 -0.5373
  139OSM   H13S15180   3.124   0.964   7.718  1.3099 -0.8041  0.5125
  139OSM   H13T15181   3.155   0.804   7.772 -1.1365 -0.6038  2.5052
  139OSM   C14S15182   2.984   0.881   7.876  0.8991  0.2735 -0.1725
  139OSM   H14S15183   2.934   0.784   7.897  0.4238  0.2938 -1.1818
  139OSM   H14T15184   2.903   0.954   7.854 -0.3258 -1.5167 -1.7235
  139OSM   C15S15185   3.078   0.903   7.993  0.6861 -0.0331 -0.4659
  139OSM   H15S15186   3.133   0.995   7.966  1.4011 -1.4314 -4.1827
  139OSM   H15T15187   3.143   0.814   8.009 -0.8521 -1.3300 -1.2103
  139OSM   C16S15188   3.000   0.931   8.121  0.1102  0.6239  0.2917
  139OSM   H16S15189   2.933   0.843   8.134 -2.4212  2.4244 -0.0697
  139OSM   H16T15190   2.936   1.022   8.118 -1.0518 -0.2111 -1.2004
  139OSM   C17S15191   3.089   0.930   8.249  0.5864 -0.1303  0.0105
  139OSM   H17S15192   3.011   0.933   8.328 -0.2531 -0.1211 -0.8092
  139OSM   H17T15193   3.149   1.023   8.259  1.9755 -0.6578 -2.9278
  139OSM   C18S15194   3.173   0.808   8.274  0.8828 -0.5535  0.7131
  139OSM   H18S15195   3.109   0.717   8.275 -1.2337  0.9068  0.3103
  139OSM   H18T15196   3.222   0.809   8.374  0.2273  0.5200  1.0312
  139OSM   H18U15197   3.238   0.793   8.185  0.8772  1.6098  0.3147
  139OSM    C1F15198   3.603   0.643   6.644 -0.1946  0.4136  0.8817
  139OSM     OF15199   3.613   0.688   6.536  0.1371  0.5614 -0.1539
  139OSM    C2F15200   3.689   0.682   6.761  0.5453 -0.5354  0.0194
  139OSM    H2F15201   3.715   0.595   6.825  1.1796  0.5581  1.2758
  139OSM    H2G15202   3.632   0.762   6.813  2.5934  0.1975  1.2177
  139OSM    C3F15203   3.828   0.735   6.708  0.7932 -0.8988 -0.0248
  139OSM    H3F15204   3.811   0.827   6.648  2.0247 -0.0435  0.8888
  139OSM    H3G15205   3.875   0.648   6.657 -1.0679 -1.0315 -1.5392
  139OSM    C4F15206   3.928   0.768   6.828  0.1358 -0.3067 -0.4376
  139OSM    H4F15207   4.024   0.810   6.792  0.8275  0.7700  2.4663
  139OSM    H4G15208   3.958   0.673   6.878  0.2961  0.4190  0.8670
  139OSM    C5F15209   3.867   0.870   6.920  0.2078 -0.5315  0.2167
  139OSM    H5F15210   3.782   0.821   6.973 -0.1788  0.6418  0.7183
  139OSM    H5G15211   3.837   0.962   6.865  0.8782 -1.2589 -1.3562
  139OSM    C6F15212   3.971   0.909   7.032  0.0094 -0.0344 -0.2487
  139OSM    H6F15213   4.068   0.931   6.983 -0.3432  0.6145 -0.6560
  139OSM    H6G15214   4.001   0.832   7.107 -1.7050  1.3597  1.9304
  139OSM    C7F15215   3.923   1.031   7.116  0.3563  0.4406  0.3336
  139OSM    H7F15216   3.831   1.012   7.177  1.7285  0.8680  2.5996
  139OSM    H7G15217   3.898   1.116   7.049  1.9194 -0.2625 -1.1727
  139OSM    C8F15218   4.028   1.092   7.215  0.0307 -0.8527 -0.0545
  139OSM    H8F15219   3.977   1.179   7.262 -0.1764 -0.0970 -1.6573
  139OSM    H8G15220   4.107   1.120   7.142 -0.9072  2.7908  0.2490
  139OSM    C9F15221   4.082   0.994   7.323  0.0345 -0.1591  0.0750
  139OSM    H9F15222   4.150   0.920   7.278 -0.5242  0.0818 -1.1917
  139OSM   C10F15223   4.055   1.005   7.456 -0.9796  0.5900  0.1971
  139OSM   H10F15224   4.092   0.928   7.526 -1.9007  1.0885  1.2287
  139OSM   C11F15225   3.980   1.117   7.512 -0.2323 -0.6399  0.5838
  139OSM   H11F15226   3.876   1.116   7.474 -0.8813 -0.2494  2.3110
  139OSM   H11G15227   4.030   1.213   7.485  0.7482 -0.8640  1.5548
  139OSM   C12F15228   3.986   1.116   7.670 -0.4128  0.0236  0.6355
  139OSM   H12F15229   4.094   1.129   7.693 -0.1553  1.0790 -1.1552
  139OSM   H12G15230   3.964   1.014   7.710 -2.2120 -1.4369 -3.8113
  139OSM   C13F15231   3.908   1.217   7.749 -0.9360 -0.1328 -0.6257
  139OSM   H13F15232   3.803   1.186   7.730 -1.3407  1.6479 -1.4706
  139OSM   H13G15233   3.923   1.321   7.711  1.1071 -0.3722 -0.5201
  139OSM   C14F15234   3.938   1.216   7.904  0.5637  0.1702  0.0961
  139OSM   H14F15235   3.923   1.113   7.944  1.2968 -0.4170 -1.1135
  139OSM   H14G15236   3.873   1.289   7.956 -0.1296  0.0535 -0.5993
  139OSM   C15F15237   4.084   1.270   7.949  0.2952  0.6799 -0.5636
  139OSM   H15F15238   4.116   1.357   7.888  0.2207  0.5623 -0.7712
  139OSM   H15G15239   4.154   1.190   7.914 -1.4369  0.2108 -3.0477
  139OSM   C16F15240   4.102   1.284   8.100 -0.6763 -0.0467  0.2351
  139OSM   H16F15241   4.062   1.387   8.113 -1.1106  0.0566 -1.8031
  139OSM   H16G15242   4.209   1.271   8.128  0.3654  2.2140 -2.3448
  139OSM   C17F15243   4.022   1.188   8.186  0.2543  0.1672 -0.4783
  139OSM   H17F15244   4.042   1.082   8.161  0.9387  0.0493  0.5113
  139OSM   H17G15245   3.912   1.202   8.192  0.0703 -0.5118 -2.0725
  139OSM   C18F15246   4.075   1.197   8.340 -0.1619  0.7724 -0.1930
  139OSM   H18F15247   4.175   1.150   8.348 -0.1855  0.7886  0.1781
  139OSM   H18G15248   4.000   1.150   8.407 -0.4852 -1.2611 -1.9081
  139OSM   H18H15249   4.084   1.304   8.366 -0.7257  1.1516 -1.5060
  140OSM      N15250   3.151   2.408   6.329  0.0950  0.2514  0.0056
  140OSM    C1515251   3.050   2.487   6.251  0.1726 -0.4143  0.6489
  140OSM   H15A15252   3.054   2.456   6.147  2.4180  2.0341 -0.0311
  140OSM   H15B15253   3.092   2.586   6.243 -2.0565  0.3708 -2.6191
  140OSM   H15C15254   2.952   2.479   6.296 -0.6465  0.5704 -0.8732
  140OSM    C1415255   3.162   2.479   6.458  0.4124  0.3184 -0.8209
  140OSM   H14A15256   3.211   2.430   6.540 -0.7539 -0.3317 -0.4974
  140OSM   H14B15257   3.066   2.495   6.505 -0.1083 -1.3013 -1.3169
  140OSM   H14C15258   3.210   2.576   6.453 -0.6517  0.9086  0.0702
  140OSM    C1315259   3.106   2.265   6.346 -0.4588  0.1715  0.2808
  140OSM   H13A15260   3.102   2.212   6.253 -0.8078  0.2524  0.2509
  140OSM   H13B15261   3.009   2.251   6.391 -0.6017  0.3440  0.0283
  140OSM   H13C15262   3.173   2.209   6.409  0.5067  1.9669  0.8948
  140OSM    C1215263   3.289   2.416   6.266  0.1676 -0.0579 -0.2950
  140OSM   H12A15264   3.326   2.518   6.262  1.5296 -0.5865 -2.0315
  140OSM   H12B15265   3.273   2.383   6.165 -5.2747 -0.3483  0.5187
  140OSM    C1115266   3.398   2.342   6.335  0.5760  0.1993  0.7082
  140OSM   H11A15267   3.400   2.366   6.444 -0.8362  1.7946  0.4109
  140OSM   H11B15268   3.491   2.381   6.290  0.3231 -0.8157 -0.7287
  140OSM      P15269   3.473   2.095   6.385  0.0204 -0.3036 -0.0189
  140OSM    O1315270   3.384   1.996   6.447  0.5767 -0.0952 -0.1244
  140OSM    O1415271   3.576   2.048   6.286  0.3566  0.1927  0.6150
  140OSM    O1115272   3.540   2.175   6.502 -0.7290  0.4175  0.4837
  140OSM    O1215273   3.380   2.200   6.315  0.4813 -0.6155  0.0044
  140OSM    C1S15274   3.623   2.118   6.604 -0.1500  0.1770 -0.2273
  140OSM    H1S15275   3.730   2.133   6.579 -0.2941 -2.2639 -2.6491
  140OSM    H1T15276   3.610   2.007   6.602  0.4134  0.1204 -1.0622
  140OSM     NF15277   3.724   2.147   6.819 -0.3381 -0.2725 -0.0089
  140OSM    HNF15278   3.723   2.051   6.847 -0.2064  0.1627  1.5584
  140OSM    C2S15279   3.599   2.167   6.746 -0.3066 -0.7753 -0.4284
  140OSM    H2S15280   3.586   2.278   6.740 -2.2798 -1.0660 -2.1004
  140OSM    C3S15281   3.470   2.102   6.794 -0.8502 -0.4520 -0.6034
  140OSM    H3S15282   3.477   1.991   6.786  2.4120 -0.2606 -0.8290
  140OSM     O315283   3.349   2.144   6.721 -0.7353 -0.1054  0.2623
  140OSM    HO315284   3.374   2.189   6.639 -2.9097  0.4097 -0.1445
  140OSM    C4S15285   3.442   2.134   6.941  0.1265  0.2128 -0.6083
  140OSM    H4S15286   3.369   2.216   6.953  0.6477  0.8738 -1.7764
  140OSM    C5S15287   3.475   2.065   7.046  0.7243 -0.1624  0.0179
  140OSM    H5S15288   3.531   1.971   7.036 -0.0267 -0.7730  1.3697
  140OSM    C6S15289   3.427   2.090   7.185  0.1433 -0.3760 -0.9550
  140OSM    H6S15290   3.458   2.000   7.242  4.4889  1.7383  0.2553
  140OSM    H6T15291   3.317   2.104   7.189 -0.0300 -1.8379  0.0902
  140OSM    C7S15292   3.495   2.215   7.253  0.7102 -0.3592  0.5663
  140OSM    H7S15293   3.599   2.242   7.223 -0.3551  2.6116 -0.6583
  140OSM    H7T15294   3.488   2.196   7.362  2.3881  1.5651  1.0246
  140OSM    C8S15295   3.417   2.340   7.231  0.8384  0.1494 -0.2959
  140OSM    H8S15296   3.331   2.342   7.303  0.2426  1.2134 -1.0189
  140OSM    H8T15297   3.382   2.350   7.126 -1.3659 -1.2471  0.2611
  140OSM    C9S15298   3.497   2.467   7.247 -0.6753  0.1545 -0.4062
  140OSM    H9S15299   3.522   2.499   7.350 -1.1308  1.3171 -0.6470
  140OSM    H9T15300   3.425   2.546   7.215 -1.4530  0.7084  2.5404
  140OSM   C10S15301   3.616   2.467   7.157 -0.3319  0.5129  0.1063
  140OSM   H10S15302   3.596   2.435   7.052  2.6571  0.0023 -0.3498
  140OSM   H10T15303   3.696   2.403   7.200 -0.5847  0.1380  0.0270
  140OSM   C11S15304   3.668   2.606   7.143 -0.0381 -0.2289 -0.0482
  140OSM   H11S15305   3.668   2.652   7.244  3.3763  0.2967 -0.2379
  140OSM   H11T15306   3.593   2.655   7.078  1.4959  0.3710 -1.4094
  140OSM   C12S15307   3.802   2.610   7.067 -1.2274  0.3361 -0.0853
  140OSM   H12S15308   3.787   2.555   6.972 -0.6052  0.4788 -0.2671
  140OSM   H12T15309   3.886   2.557   7.117 -0.8217 -1.5458 -2.6201
  140OSM   C13S15310   3.844   2.755   7.043  0.1108 -0.2320 -0.4872
  140OSM   H13S15311   3.758   2.810   7.000  0.1804  0.7102  0.5491
  140OSM   H13T15312   3.926   2.764   6.969 -0.9070 -0.0478 -1.6043
  140OSM   C14S15313   3.896   2.824   7.175  0.2418  0.1199 -0.1303
  140OSM   H14S15314   3.983   2.772   7.222 -0.2836 -1.4914 -0.9154
  140OSM   H14T15315   3.833   2.815   7.266  2.9010 -0.1003  1.7822
  140OSM   C15S15316   3.933   2.977   7.146  0.1296  0.0797 -1.1657
  140OSM   H15S15317   3.850   3.049   7.160 -2.3942 -2.8319 -0.7000
  140OSM   H15T15318   3.962   2.982   7.039  0.9427 -0.7303 -0.9908
  140OSM   C16S15319   4.047   3.026   7.231  0.2378 -0.1732  0.1481
  140OSM   H16S15320   4.134   2.957   7.224  3.0830  2.9873  2.7267
  140OSM   H16T15321   4.018   3.027   7.338 -0.9544  1.2925 -0.1778
  140OSM   C17S15322   4.091   3.166   7.196  1.0741  1.1817  1.1239
  140OSM   H17S15323   4.005   3.234   7.216 -0.3331 -0.4216  0.6915
  140OSM   H17T15324   4.108   3.169   7.086 -3.4346 -3.0306  0.1265
  140OSM   C18S15325   4.207   3.218   7.274  0.2337  0.8165  0.5490
  140OSM   H18S15326   4.239   3.313   7.226  1.0273 -0.0644 -0.6725
  140OSM   H18T15327   4.296   3.153   7.287 -1.3722 -1.2792  1.4075
  140OSM   H18U15328   4.177   3.257   7.374  3.1784  4.4004  0.1442
  140OSM    C1F15329   3.826   2.234   6.806 -0.0896 -0.1740 -0.1576
  140OSM     OF15330   3.816   2.351   6.756  0.6803  0.4698  0.1121
  140OSM    C2F15331   3.968   2.186   6.845  0.6301 -0.9015  0.4921
  140OSM    H2F15332   4.011   2.145   6.751  1.8636 -1.7052  1.3920
  140OSM    H2G15333   3.950   2.096   6.908 -0.0209 -1.2674 -0.2056
  140OSM    C3F15334   4.067   2.296   6.888  0.2831 -0.1593 -0.4710
  140OSM    H3F15335   4.039   2.395   6.847  1.5356  0.2395 -0.3881
  140OSM    H3G15336   4.170   2.275   6.852 -0.1287  0.4217 -2.0012
  140OSM    C4F15337   4.084   2.313   7.042  0.1423  0.1712 -0.6809
  140OSM    H4F15338   3.989   2.334   7.096  0.5480  2.3258 -0.7854
  140OSM    H4G15339   4.142   2.405   7.060  0.1136  0.1270 -0.3590
  140OSM    C5F15340   4.153   2.198   7.115 -0.0633  0.1016 -0.2543
  140OSM    H5F15341   4.260   2.228   7.115 -0.2078  0.6272  0.5479
  140OSM    H5G15342   4.145   2.105   7.055 -0.5927 -2.4208  3.5787
  140OSM    C6F15343   4.109   2.165   7.259 -0.1534 -0.1074  0.0558
  140OSM    H6F15344   3.999   2.150   7.265 -0.1151 -1.3052 -1.8092
  140OSM    H6G15345   4.136   2.250   7.325  1.8407 -2.4451  2.3690
  140OSM    C7F15346   4.201   2.047   7.304 -0.0768 -0.1127 -0.3946
  140OSM    H7F15347   4.292   2.058   7.241 -0.9313  1.4083 -1.4109
  140OSM    H7G15348   4.156   1.957   7.258 -1.1923  0.4666 -0.4593
  140OSM    C8F15349   4.219   2.044   7.454  0.6768  0.2780 -0.0333
  140OSM    H8F15350   4.129   2.001   7.504 -1.0002 -0.0256 -3.2197
  140OSM    H8G15351   4.236   2.143   7.501 -0.2593  0.1995  0.4833
  140OSM    C9F15352   4.333   1.950   7.490 -0.0598  0.4517  0.1964
  140OSM    H9F15353   4.307   1.845   7.469  1.1118 -0.0398  1.1730
  140OSM   C10F15354   4.456   1.979   7.530  0.3622 -0.6780 -0.2537
  140OSM   H10F15355   4.522   1.898   7.563  2.0476 -0.0698 -2.0411
  140OSM   C11F15356   4.514   2.115   7.559  0.3553 -0.0304 -0.4373
  140OSM   H11F15357   4.436   2.194   7.551 -0.3585 -0.7638 -0.8182
  140OSM   H11G15358   4.583   2.141   7.477  2.1598 -0.5136  0.8886
  140OSM   C12F15359   4.571   2.124   7.697 -0.6541  0.1864 -0.1865
  140OSM   H12F15360   4.632   2.214   7.718  1.5155 -1.4494  0.6688
  140OSM   H12G15361   4.650   2.048   7.712 -0.8451  0.0761  0.2935
  140OSM   C13F15362   4.473   2.114   7.813  0.1698  0.4349 -0.8524
  140OSM   H13F15363   4.413   2.021   7.808 -0.3282  0.6038  1.3462
  140OSM   H13G15364   4.397   2.192   7.791 -0.4241  0.0455 -0.2006
  140OSM   C14F15365   4.526   2.136   7.957  0.3408  0.1480 -0.1551
  140OSM   H14F15366   4.597   2.053   7.975  1.3027  1.7350  3.8275
  140OSM   H14G15367   4.436   2.121   8.021  0.1555 -1.4267 -0.7579
  140OSM   C15F15368   4.598   2.261   7.996  0.6019  0.6665 -1.0492
  140OSM   H15F15369   4.536   2.342   7.952  0.6359  1.1711 -0.1758
  140OSM   H15G15370   4.699   2.265   7.952  1.4958 -1.0885  0.7383
  140OSM   C16F15371   4.607   2.305   8.145 -0.1386  0.7317  0.0893
  140OSM   H16F15372   4.508   2.337   8.184  0.5442  2.7390  0.2268
  140OSM   H16G15373   4.684   2.385   8.147 -2.1365  2.6763  2.1426
  140OSM   C17F15374   4.655   2.182   8.225 -0.0024 -0.0288 -0.1475
  140OSM   H17F15375   4.730   2.136   8.157 -0.0972  0.1535 -0.3761
  140OSM   H17G15376   4.577   2.105   8.240 -0.8329  0.8604  0.1906
  140OSM   C18F15377   4.729   2.215   8.351 -0.1763 -0.3184  0.2290
  140OSM   H18F15378   4.668   2.250   8.438 -1.1673 -1.1814 -0.1159
  140OSM   H18G15379   4.818   2.279   8.331 -0.6908 -0.4658 -2.7480
  140OSM   H18H15380   4.768   2.127   8.406  2.0716 -0.1261 -0.9842
  141OSM      N15381   3.050   4.205   5.982 -0.5345  0.0419  0.8627
  141OSM    C1515382   2.945   4.306   5.954  0.0715 -0.1002  0.4627
  141OSM   H15A15383   2.874   4.309   6.035  1.0195 -2.4511  1.4523
  141OSM   H15B15384   2.890   4.289   5.863 -1.6668  2.1537  1.0685
  141OSM   H15C15385   2.992   4.402   5.937  1.1542 -0.3524  1.9246
  141OSM    C1415386   2.996   4.085   5.914  1.2656 -0.0044  0.3251
  141OSM   H14A15387   3.021   4.072   5.810  0.9810  0.3453  0.2143
  141OSM   H14B15388   2.889   4.089   5.923  1.2280  0.3581 -0.2849
  141OSM   H14C15389   3.031   3.995   5.963 -1.4991 -4.1418 -4.8037
  141OSM    C1315390   3.169   4.248   5.895 -0.4065  0.1465  0.2739
  141OSM   H13A15391   3.248   4.174   5.898 -0.6104 -0.0673  0.4346
  141OSM   H13B15392   3.217   4.340   5.925  1.3500 -0.6967  0.1448
  141OSM   H13C15393   3.143   4.262   5.791 -1.2533  1.8340  0.7001
  141OSM    C1215394   3.090   4.191   6.123 -0.5144  0.2178 -0.9461
  141OSM   H12A15395   3.149   4.277   6.153 -0.5136  0.5692 -1.9480
  141OSM   H12B15396   3.147   4.100   6.124 -0.1076  0.4205  3.1328
  141OSM    C1115397   2.989   4.184   6.244 -0.1265 -0.2211 -0.3206
  141OSM   H11A15398   3.061   4.173   6.328  0.3537  1.4005 -0.5075
  141OSM   H11B15399   2.937   4.085   6.246  0.6333 -0.6474 -1.1340
  141OSM      P15400   2.742   4.284   6.273  0.2518  0.2137  0.2044
  141OSM    O1315401   2.703   4.425   6.282  0.5645 -0.2010 -0.0737
  141OSM    O1415402   2.680   4.198   6.167 -0.5121 -0.4851 -0.1418
  141OSM    O1115403   2.724   4.210   6.411 -0.6900 -0.9430  0.3301
  141OSM    O1215404   2.905   4.293   6.260 -0.7073  0.5227 -0.2476
  141OSM    C1S15405   2.809   4.228   6.527 -0.2306 -0.2003 -0.0440
  141OSM    H1S15406   2.895   4.290   6.494  0.7284 -0.9880  0.9487
  141OSM    H1T15407   2.861   4.133   6.551 -0.2027 -0.4120 -0.9492
  141OSM     NF15408   2.823   4.306   6.757 -0.2603  0.4109 -0.5063
  141OSM    HNF15409   2.806   4.244   6.833 -1.8116 -0.3953 -1.4707
  141OSM    C2S15410   2.734   4.286   6.647  0.6354  0.3828  0.1267
  141OSM    H2S15411   2.691   4.384   6.617  0.1910 -0.1366 -0.9296
  141OSM    C3S15412   2.613   4.199   6.679  0.8547 -0.6238  0.4060
  141OSM    H3S15413   2.648   4.097   6.707  1.6725 -0.4481  0.0241
  141OSM     O315414   2.520   4.179   6.568 -0.5241  0.7783  0.5451
  141OSM    HO315415   2.577   4.223   6.505 -0.3977  1.0599  0.8542
  141OSM    C4S15416   2.526   4.257   6.791  0.3562  0.8760  0.3088
  141OSM    H4S15417   2.456   4.339   6.772  0.9443  1.2896 -0.0875
  141OSM    C5S15418   2.522   4.201   6.908 -0.1440  0.2551 -0.2867
  141OSM    H5S15419   2.575   4.107   6.928 -1.8051 -0.6478 -0.0282
  141OSM    C6S15420   2.444   4.256   7.023  0.3172 -0.0761  0.0658
  141OSM    H6S15421   2.359   4.185   7.032  2.6775 -3.2222 -1.5174
  141OSM    H6T15422   2.409   4.361   7.013  2.4710  0.6639  0.0961
  141OSM    C7S15423   2.532   4.233   7.147  0.3690 -0.1129 -0.1888
  141OSM    H7S15424   2.618   4.301   7.127 -0.5983  0.8760 -1.0195
  141OSM    H7T15425   2.557   4.125   7.154 -1.3027 -0.4623  0.5930
  141OSM    C8S15426   2.480   4.280   7.279  0.7420  0.4169 -0.2986
  141OSM    H8S15427   2.382   4.233   7.301  0.1462  2.2306  0.9695
  141OSM    H8T15428   2.448   4.386   7.284 -1.5063 -0.1709 -1.6180
  141OSM    C9S15429   2.582   4.236   7.384  0.1812  0.1638 -0.3205
  141OSM    H9S15430   2.670   4.297   7.356 -0.7981  1.9656  0.3758
  141OSM    H9T15431   2.612   4.130   7.389  0.2428  0.2090  0.3039
  141OSM   C10S15432   2.545   4.273   7.526  0.0530  1.0202  0.4524
  141OSM   H10S15433   2.443   4.236   7.548  1.4339 -1.2523  3.3072
  141OSM   H10T15434   2.543   4.384   7.524 -0.9248  0.9970 -0.5414
  141OSM   C11S15435   2.650   4.226   7.633 -0.2449  0.0942  0.2768
  141OSM   H11S15436   2.743   4.279   7.602 -0.5407  0.6971  0.4072
  141OSM   H11T15437   2.659   4.116   7.626 -1.3846  0.1044 -1.6753
  141OSM   C12S15438   2.605   4.259   7.780  0.8377 -0.4793 -1.2508
  141OSM   H12S15439   2.527   4.185   7.809  2.2340 -0.7874  1.8825
  141OSM   H12T15440   2.567   4.363   7.782  1.3257 -0.3207  0.2274
  141OSM   C13S15441   2.723   4.235   7.886 -0.0847  0.1767  0.2825
  141OSM   H13S15442   2.793   4.321   7.881 -1.7078  1.5423  0.5764
  141OSM   H13T15443   2.774   4.152   7.832  0.2941 -0.0754  1.0193
  141OSM   C14S15444   2.683   4.196   8.033  0.6520 -0.8901  0.5902
  141OSM   H14S15445   2.603   4.120   8.038 -0.1479 -0.1031 -0.1421
  141OSM   H14T15446   2.638   4.285   8.081  1.7687 -1.4965  2.8413
  141OSM   C15S15447   2.807   4.151   8.113 -0.4183 -0.2537 -0.0808
  141OSM   H15S15448   2.857   4.058   8.079  0.7756  0.0417  0.8334
  141OSM   H15T15449   2.776   4.136   8.218  3.6909  1.3428  1.4648
  141OSM   C16S15450   2.912   4.263   8.134 -0.0266  0.2593  0.3393
  141OSM   H16S15451   2.863   4.357   8.165 -0.4673 -0.0545  0.6018
  141OSM   H16T15452   2.967   4.286   8.040 -0.3159  0.0501  0.1184
  141OSM   C17S15453   3.002   4.235   8.247  0.3227 -0.3169  1.0248
  141OSM   H17S15454   3.045   4.134   8.229 -1.9142 -0.7564 -2.2535
  141OSM   H17T15455   2.939   4.233   8.338  0.1091  2.0398  0.9474
  141OSM   C18S15456   3.116   4.337   8.270 -0.2925  0.2683  0.2032
  141OSM   H18S15457   3.074   4.436   8.295  0.1293  0.8863 -1.4632
  141OSM   H18T15458   3.181   4.341   8.180  2.0203  0.0788  1.8169
  141OSM   H18U15459   3.173   4.310   8.362  0.4527  0.9772 -0.0501
  141OSM    C1F15460   2.911   4.402   6.764  0.0181 -0.1526  0.1649
  141OSM     OF15461   2.921   4.480   6.664 -0.6702  0.3350 -0.5323
  141OSM    C2F15462   2.992   4.413   6.893 -0.2600 -0.0140  0.2609
  141OSM    H2F15463   3.066   4.495   6.877 -0.3388  0.2672  1.3329
  141OSM    H2G15464   3.058   4.324   6.901 -0.0535  0.1985  0.9240
  141OSM    C3F15465   2.898   4.422   7.016  0.1934  0.2031 -0.3625
  141OSM    H3F15466   2.824   4.339   7.017 -1.8805  2.0182 -0.2738
  141OSM    H3G15467   2.842   4.517   7.024 -0.2645 -0.1361  0.5183
  141OSM    C4F15468   2.987   4.429   7.142 -0.0306  0.0374 -0.4817
  141OSM    H4F15469   3.085   4.472   7.114  0.1130 -1.1338 -1.8152
  141OSM    H4G15470   3.005   4.326   7.177  2.9855  0.5462 -0.4604
  141OSM    C5F15471   2.918   4.528   7.243  0.6865 -0.2601 -0.0701
  141OSM    H5F15472   2.807   4.525   7.238  0.7487 -0.5107 -1.5089
  141OSM    H5G15473   2.954   4.630   7.221  1.2944 -0.0152  1.9375
  141OSM    C6F15474   2.945   4.488   7.384  0.3106 -0.5439  0.2958
  141OSM    H6F15475   3.055   4.484   7.399  0.5391  2.7350 -0.2904
  141OSM    H6G15476   2.903   4.388   7.408  0.7613 -0.6002  0.8730
  141OSM    C7F15477   2.881   4.587   7.484 -0.0053  0.1165 -0.5335
  141OSM    H7F15478   2.771   4.594   7.471 -0.0917  0.2129  0.2828
  141OSM    H7G15479   2.934   4.680   7.457  0.3705 -0.8462 -3.2983
  141OSM    C8F15480   2.900   4.551   7.636  0.0602  0.0848 -0.5132
  141OSM    H8F15481   2.833   4.463   7.652 -1.9060  0.9596 -3.3837
  141OSM    H8G15482   2.852   4.640   7.682  1.9503  2.1670 -2.4127
  141OSM    C9F15483   3.036   4.530   7.694  0.0965  0.2764  0.6463
  141OSM    H9F15484   3.094   4.463   7.629 -1.7275 -0.2284 -0.4738
  141OSM   C10F15485   3.096   4.577   7.806  0.0987 -0.7540 -0.1366
  141OSM   H10F15486   3.194   4.532   7.828  0.3514  0.8477  2.2029
  141OSM   C11F15487   3.029   4.662   7.908 -0.4115  0.5836 -0.0134
  141OSM   H11F15488   2.927   4.634   7.943 -0.7024  0.3312 -1.0271
  141OSM   H11G15489   3.023   4.769   7.876  2.4522  0.6796 -0.2985
  141OSM   C12F15490   3.125   4.661   8.032  0.2647 -0.4177 -0.1044
  141OSM   H12F15491   3.226   4.696   8.005 -1.2403  2.0641 -2.8571
  141OSM   H12G15492   3.134   4.553   8.057 -0.9455 -0.1061  1.7807
  141OSM   C13F15493   3.082   4.759   8.137 -0.0509  0.1026 -0.6175
  141OSM   H13F15494   3.002   4.717   8.202  0.5299  0.9382  0.6588
  141OSM   H13G15495   3.028   4.847   8.095  0.8606  1.8321  1.7392
  141OSM   C14F15496   3.186   4.803   8.249 -0.1170  0.2576  0.0556
  141OSM   H14F15497   3.152   4.900   8.291 -0.0505  0.7069 -0.8941
  141OSM   H14G15498   3.285   4.814   8.197 -0.2344  0.8341 -0.0586
  141OSM   C15F15499   3.190   4.705   8.363  0.4250 -0.1211 -1.4495
  141OSM   H15F15500   3.218   4.601   8.339  3.0969  0.1953  0.0968
  141OSM   H15G15501   3.084   4.699   8.397  1.0322  2.8800  1.2698
  141OSM   C16F15502   3.268   4.743   8.489 -0.1558 -0.2359  0.0310
  141OSM   H16F15503   3.240   4.847   8.519  2.4491  0.5450 -0.1369
  141OSM   H16G15504   3.377   4.734   8.471 -0.4705 -3.1937 -0.5836
  141OSM   C17F15505   3.231   4.652   8.609  0.3975  0.3589 -0.0040
  141OSM   H17F15506   3.296   4.561   8.614  0.3844  0.3111 -0.7008
  141OSM   H17G15507   3.124   4.624   8.598  0.1640 -0.0462  2.9375
  141OSM   C18F15508   3.243   4.739   8.735 -0.1816  0.4998 -0.1439
  141OSM   H18F15509   3.214   4.688   8.830  1.2357  1.1076  0.6374
  141OSM   H18G15510   3.193   4.838   8.732  2.1773  1.7482  0.2624
  141OSM   H18H15511   3.351   4.762   8.747  0.0760 -0.8536  0.2620
  142OSM      N15512   3.305   5.777   6.060 -0.1162  0.1101 -0.5675
  142OSM    C1515513   3.280   5.690   6.177 -0.7493 -0.1589  0.9228
  142OSM   H15A15514   3.323   5.592   6.166  0.7802  0.6656 -0.6976
  142OSM   H15B15515   3.174   5.670   6.181 -1.1676  1.5036 -1.1001
  142OSM   H15C15516   3.305   5.745   6.267  0.2108 -0.0713  0.6131
  142OSM    C1415517   3.453   5.779   6.031  0.0286  0.3340  0.5863
  142OSM   H14A15518   3.491   5.825   5.941 -1.4073  1.6418  0.6348
  142OSM   H14B15519   3.489   5.680   6.058  1.5139  0.8026  0.4115
  142OSM   H14C15520   3.487   5.843   6.112 -2.0679  3.1840 -0.7496
  142OSM    C1315521   3.243   5.710   5.947  0.0629 -0.1587 -0.4673
  142OSM   H13A15522   3.139   5.699   5.975  0.2144 -0.6022 -0.1039
  142OSM   H13B15523   3.277   5.609   5.929 -0.7587 -0.7876  1.4462
  142OSM   H13C15524   3.249   5.768   5.855 -1.2437 -1.4925 -1.4226
  142OSM    C1215525   3.255   5.923   6.076  0.3358  0.3322 -0.5352
  142OSM   H12A15526   3.267   5.982   5.986 -0.4767 -0.4403 -1.1666
  142OSM   H12B15527   3.322   5.968   6.147  1.0607  1.6803 -2.0480
  142OSM    C1115528   3.110   5.939   6.130 -0.3830  0.6855 -0.3643
  142OSM   H11A15529   3.045   5.858   6.091  1.8802 -0.8009 -1.1983
  142OSM   H11B15530   3.067   6.034   6.090 -1.6855 -0.5008 -1.8282
  142OSM      P15531   2.990   5.917   6.362  0.0499 -0.1028  0.3018
  142OSM    O1315532   2.950   6.042   6.421  0.3516  0.2634  0.1358
  142OSM    O1415533   2.888   5.845   6.285  0.8403  0.2405  0.2122
  142OSM    O1115534   3.059   5.832   6.476 -0.6542  0.5539 -0.8572
  142OSM    O1215535   3.112   5.942   6.271 -0.3904 -0.6285  0.1384
  142OSM    C1S15536   3.167   5.889   6.551 -0.1254 -0.2314 -0.2911
  142OSM    H1S15537   3.233   5.951   6.487  0.7103 -0.0095  0.7866
  142OSM    H1T15538   3.248   5.817   6.576 -0.6047 -0.6068  0.1993
  142OSM     NF15539   3.220   6.031   6.746  0.0934 -0.5300 -0.5215
  142OSM    HNF15540   3.261   5.999   6.831  1.6272  0.7993 -0.7409
  142OSM    C2S15541   3.118   5.952   6.691 -0.5481  0.9832  0.2008
  142OSM    H2S15542   3.027   6.014   6.679 -0.6426  0.9678  0.8107
  142OSM    C3S15543   3.073   5.832   6.786 -0.0314 -0.3402 -0.4762
  142OSM    H3S15544   3.156   5.758   6.795 -1.4767 -2.0923 -1.3240
  142OSM     O315545   2.964   5.758   6.745  0.3969 -0.1943  0.3099
  142OSM    HO315546   2.910   5.805   6.682 -1.5131  0.1591  2.1495
  142OSM    C4S15547   3.042   5.891   6.920  0.0631 -0.4304  0.5584
  142OSM    H4S15548   3.119   5.862   6.993  0.6187  0.2552  0.2573
  142OSM    C5S15549   2.931   5.961   6.957 -0.0408  0.3487 -0.3248
  142OSM    H5S15550   2.856   5.972   6.877 -0.0553  2.3701 -0.0604
  142OSM    C6S15551   2.911   6.012   7.099 -0.9249 -0.0135  0.2463
  142OSM    H6S15552   2.823   5.964   7.148 -3.1111  1.0109 -2.5588
  142OSM    H6T15553   2.883   6.120   7.096 -0.9119 -0.0594 -1.5861
  142OSM    C7S15554   3.026   5.990   7.199 -0.0058 -0.0573 -0.7517
  142OSM    H7S15555   3.116   6.043   7.163  1.3784 -2.7213 -1.3988
  142OSM    H7T15556   3.061   5.885   7.214 -2.1940 -0.5293  1.3106
  142OSM    C8S15557   3.017   6.039   7.348 -0.2702  0.1867 -0.2480
  142OSM    H8S15558   2.999   6.149   7.344  0.3638  0.2826 -0.5572
  142OSM    H8T15559   3.120   6.030   7.389 -0.1268  0.4261 -0.5563
  142OSM    C9S15560   2.905   5.983   7.436  0.0916 -0.6960  0.2344
  142OSM    H9S15561   2.922   5.873   7.438 -2.0340 -1.0417 -0.4646
  142OSM    H9T15562   2.816   5.996   7.372 -0.3582 -0.2973  0.9381
  142OSM   C10S15563   2.892   6.043   7.575 -0.7592  0.1292  0.3748
  142OSM   H10S15564   2.811   5.991   7.630  1.5519 -2.0674  1.8017
  142OSM   H10T15565   2.864   6.150   7.565 -0.0668  0.3501  0.7887
  142OSM   C11S15566   3.019   6.033   7.661  0.6462  0.1049  0.3093
  142OSM   H11S15567   3.095   6.103   7.619  1.5884 -0.8044  0.4703
  142OSM   H11T15568   3.068   5.933   7.664  2.1365  0.8682  2.1218
  142OSM   C12S15569   2.991   6.069   7.810 -0.4321  0.2332  0.0529
  142OSM   H12S15570   3.062   6.013   7.874 -1.1482  0.2706  0.8885
  142OSM   H12T15571   2.891   6.028   7.837  0.6053 -0.8507  2.3023
  142OSM   C13S15572   3.006   6.221   7.851 -0.3618 -0.2742  0.2873
  142OSM   H13S15573   2.928   6.279   7.798  1.3287 -0.1014 -2.0913
  142OSM   H13T15574   3.105   6.263   7.822  0.7634 -2.2483  1.1815
  142OSM   C14S15575   2.992   6.238   8.005  0.2302  0.1335  0.3593
  142OSM   H14S15576   3.004   6.135   8.043 -1.0880 -0.2830 -0.3193
  142OSM   H14T15577   2.890   6.275   8.031  0.1415  0.9216 -1.0361
  142OSM   C15S15578   3.095   6.336   8.052  0.0367  1.1760  0.1191
  142OSM   H15S15579   3.090   6.439   8.011  1.1566  0.8288 -0.9217
  142OSM   H15T15580   3.196   6.299   8.023  0.0023  0.4640  0.8889
  142OSM   C16S15581   3.100   6.351   8.202  0.3607 -0.3071 -0.5077
  142OSM   H16S15582   3.131   6.249   8.233 -1.1185 -0.7550 -0.4824
  142OSM   H16T15583   2.998   6.365   8.243  0.3401 -0.4156 -0.5231
  142OSM   C17S15584   3.203   6.450   8.249 -0.3639  0.7117  0.2417
  142OSM   H17S15585   3.200   6.524   8.166 -3.5936  0.2640 -0.1413
  142OSM   H17T15586   3.297   6.390   8.251 -2.2841 -2.5205 -1.1952
  142OSM   C18S15587   3.179   6.520   8.376  0.7737  0.1974 -0.0365
  142OSM   H18S15588   3.268   6.578   8.407 -0.0420  1.3320  0.2256
  142OSM   H18T15589   3.168   6.446   8.458 -0.8232  0.8645  0.3653
  142OSM   H18U15590   3.098   6.596   8.372  0.6143 -0.0301 -1.3308
  142OSM    C1F15591   3.254   6.148   6.705 -0.2733 -0.5052 -0.5839
  142OSM     OF15592   3.206   6.208   6.615  0.1014 -0.5291 -0.0593
  142OSM    C2F15593   3.375   6.212   6.772  0.4087  0.2448 -0.0361
  142OSM    H2F15594   3.463   6.168   6.720  0.5851 -0.3303  0.7428
  142OSM    H2G15595   3.381   6.176   6.877 -0.8838  0.8590  0.2574
  142OSM    C3F15596   3.380   6.370   6.772 -0.0094 -0.1354 -0.4259
  142OSM    H3F15597   3.280   6.417   6.785  0.0276 -0.4228  0.9116
  142OSM    H3G15598   3.408   6.408   6.671  3.3179 -0.4786  0.3198
  142OSM    C4F15599   3.479   6.425   6.875  0.3076  0.9663  0.0757
  142OSM    H4F15600   3.502   6.528   6.838  2.1348 -0.2963 -2.4582
  142OSM    H4G15601   3.581   6.382   6.872 -0.2854 -0.5736  1.2642
  142OSM    C5F15602   3.423   6.450   7.012  0.0986 -0.3460  0.0618
  142OSM    H5F15603   3.397   6.352   7.058 -1.0987  0.5440  1.3673
  142OSM    H5G15604   3.328   6.508   7.003  1.8055  2.2284 -1.7927
  142OSM    C6F15605   3.521   6.523   7.104  0.3856  0.0516 -0.1437
  142OSM    H6F15606   3.516   6.622   7.055 -1.3001  1.2380  2.3142
  142OSM    H6G15607   3.624   6.483   7.109 -0.0950 -1.4654 -1.8870
  142OSM    C7F15608   3.464   6.526   7.244 -0.4552  0.2767  0.6120
  142OSM    H7F15609   3.437   6.425   7.280  0.0495  0.2162  0.8276
  142OSM    H7G15610   3.373   6.590   7.239 -1.4387 -1.0988  0.7305
  142OSM    C8F15611   3.558   6.580   7.353 -0.2997  0.6446  0.1028
  142OSM    H8F15612   3.662   6.567   7.318  0.4826  2.0327  1.8570
  142OSM    H8G15613   3.557   6.523   7.448 -1.1058  0.9288  0.2758
  142OSM    C9F15614   3.542   6.729   7.379 -0.5835 -0.3505 -1.1005
  142OSM    H9F15615   3.574   6.790   7.294  1.4131 -2.3762 -1.8598
  142OSM   C10F15616   3.520   6.780   7.504  0.0916 -0.6469 -0.4688
  142OSM   H10F15617   3.532   6.889   7.509  1.0758 -0.7457 -0.5716
  142OSM   C11F15618   3.486   6.721   7.639 -0.3341  0.3862  0.2128
  142OSM   H11F15619   3.488   6.610   7.633 -0.0024  0.4803 -2.3835
  142OSM   H11G15620   3.378   6.736   7.658 -0.0555  0.5036  1.7138
  142OSM   C12F15621   3.581   6.780   7.751 -0.0111  0.4883  1.2008
  142OSM   H12F15622   3.579   6.890   7.737  4.1978  0.7188  1.7333
  142OSM   H12G15623   3.687   6.747   7.742 -0.3426 -0.3309  0.2242
  142OSM   C13F15624   3.524   6.745   7.893 -0.2109  0.6314  0.3448
  142OSM   H13F15625   3.485   6.641   7.900  1.0099  0.0824 -0.7927
  142OSM   H13G15626   3.433   6.806   7.909  0.1381  1.2116  0.1429
  142OSM   C14F15627   3.624   6.769   8.007 -0.1252 -0.2186  0.0985
  142OSM   H14F15628   3.694   6.852   7.981 -0.6572 -0.3304 -1.7627
  142OSM   H14G15629   3.695   6.684   8.007  1.3405  0.9547 -2.0791
  142OSM   C15F15630   3.561   6.802   8.137  0.9931  0.9033  0.3431
  142OSM   H15F15631   3.490   6.887   8.127  2.1007  1.8524  0.4713
  142OSM   H15G15632   3.634   6.853   8.204 -0.2028  2.0321  0.8183
  142OSM   C16F15633   3.506   6.687   8.217  0.6980 -0.1928  0.0560
  142OSM   H16F15634   3.428   6.632   8.159 -0.3956  0.2891  1.0526
  142OSM   H16G15635   3.463   6.729   8.310  1.5927 -2.2822  1.4524
  142OSM   C17F15636   3.607   6.582   8.257 -0.2091  0.0995 -0.3216
  142OSM   H17F15637   3.704   6.635   8.271 -0.3647  0.2674  0.1394
  142OSM   H17G15638   3.625   6.528   8.162 -0.6495 -0.2398 -0.2162
  142OSM   C18F15639   3.569   6.483   8.368 -0.3130  0.3053  0.3033
  142OSM   H18F15640   3.602   6.526   8.465  0.8607  0.0653  0.0233
  142OSM   H18G15641   3.632   6.392   8.356 -0.9403  0.2058 -2.5794
  142OSM   H18H15642   3.460   6.463   8.367  0.3800 -3.9853  0.3090
  143OSM      N15643   4.867   1.538   5.996 -0.2189  0.3442 -0.2437
  143OSM    C1515644   4.950   1.605   5.891 -0.1794 -0.0907 -0.3215
  143OSM   H15A15645   4.959   1.543   5.803  0.2666  1.6885 -1.5547
  143OSM   H15B15646   5.050   1.625   5.925 -0.1984 -0.3092 -0.1351
  143OSM   H15C15647   4.914   1.701   5.856  0.7231 -0.1451 -1.4140
  143OSM    C1415648   4.893   1.393   5.985 -0.1338 -0.1322 -0.0026
  143OSM   H14A15649   4.997   1.363   5.993  0.6112  2.5540  0.7677
  143OSM   H14B15650   4.872   1.363   5.883  1.4590 -0.8814 -0.1259
  143OSM   H14C15651   4.829   1.340   6.054 -0.8099 -0.0161 -0.5276
  143OSM    C1315652   4.922   1.586   6.137 -0.0598 -0.7763 -0.1155
  143OSM   H13A15653   5.019   1.546   6.162  0.2276  0.6814  1.1424
  143OSM   H13B15654   4.849   1.558   6.211  0.6353 -2.5945 -0.0953
  143OSM   H13C15655   4.925   1.694   6.131 -1.8605 -0.7690 -1.4047
  143OSM    C1215656   4.714   1.581   5.982  0.4219  0.1558  0.3606
  143OSM   H12A15657   4.654   1.518   6.046  0.7339 -1.2124 -0.6812
  143OSM   H12B15658   4.680   1.562   5.882  0.7625 -0.7849  0.4239
  143OSM    C1115659   4.665   1.725   6.019 -0.3010 -0.0259  0.0276
  143OSM   H11A15660   4.558   1.734   5.989  0.1570 -0.0442 -1.6803
  143OSM   H11B15661   4.721   1.802   5.963  1.0227  0.0101  1.3608
  143OSM      P15662   4.593   1.666   6.263 -0.3542  0.1051  0.1879
  143OSM    O1315663   4.513   1.756   6.347  0.2405  0.2323  0.1213
  143OSM    O1415664   4.529   1.543   6.208 -0.0858  0.5809 -0.2621
  143OSM    O1115665   4.724   1.614   6.344  0.0128  0.3358  0.0893
  143OSM    O1215666   4.675   1.746   6.157 -0.0820 -0.4627  0.1643
  143OSM    C1S15667   4.807   1.706   6.415  0.2060  1.4539 -0.4199
  143OSM    H1S15668   4.783   1.811   6.390 -1.0382  1.1584 -0.4839
  143OSM    H1T15669   4.915   1.690   6.394 -0.5352 -1.8060 -2.0611
  143OSM     NF15670   4.876   1.784   6.639  0.8438  0.4297  0.1461
  143OSM    HNF15671   4.967   1.760   6.671  0.4172 -1.2548  0.1322
  143OSM    C2S15672   4.793   1.685   6.569 -0.8708 -0.0526  0.6298
  143OSM    H2S15673   4.687   1.708   6.594 -0.9750  0.5007 -0.3107
  143OSM    C3S15674   4.813   1.537   6.612 -0.3556  0.2420 -0.1242
  143OSM    H3S15675   4.918   1.500   6.608 -1.8661 -4.2482 -1.2151
  143OSM     O315676   4.749   1.437   6.533  0.1095  0.2568 -0.0216
  143OSM    HO315677   4.718   1.487   6.457  0.7200  2.8924  1.3826
  143OSM    C4S15678   4.754   1.528   6.752 -0.0149 -0.4232 -0.7054
  143OSM    H4S15679   4.655   1.563   6.784  1.1328  1.3012  1.0746
  143OSM    C5S15680   4.825   1.481   6.850  0.0350 -0.5950  0.7855
  143OSM    H5S15681   4.932   1.463   6.830 -0.5297 -1.0775 -2.1098
  143OSM    C6S15682   4.792   1.479   6.992  0.1191 -0.3964 -1.1855
  143OSM    H6S15683   4.857   1.548   7.049  1.8189 -2.3121 -0.7169
  143OSM    H6T15684   4.807   1.377   7.036  0.6988 -0.4398 -1.4688
  143OSM    C7S15685   4.650   1.518   7.037  0.0990 -0.0906 -0.1261
  143OSM    H7S15686   4.570   1.474   6.974 -0.2231  1.3548 -0.7346
  143OSM    H7T15687   4.642   1.629   7.039  1.5504  0.0093  3.1346
  143OSM    C8S15688   4.619   1.494   7.187  0.1167 -0.5937 -0.7987
  143OSM    H8S15689   4.615   1.387   7.216 -1.3755  0.2843  2.4763
  143OSM    H8T15690   4.522   1.537   7.220  1.1307  0.2324  1.2009
  143OSM    C9S15691   4.720   1.559   7.281  0.2898  1.1137 -0.8322
  143OSM    H9S15692   4.745   1.659   7.240  0.7343  1.6500  0.6866
  143OSM    H9T15693   4.812   1.498   7.281  0.3998  1.2613  0.2837
  143OSM   C10S15694   4.664   1.576   7.422 -0.0457 -0.2338  0.1577
  143OSM   H10S15695   4.593   1.498   7.454  1.8827 -2.0404  0.1183
  143OSM   H10T15696   4.616   1.676   7.414  3.7874  1.6056 -1.4160
  143OSM   C11S15697   4.760   1.589   7.532  0.5574  0.7376 -0.6761
  143OSM   H11S15698   4.832   1.670   7.507  1.3271  0.3995  0.4004
  143OSM   H11T15699   4.808   1.493   7.559 -0.8867  0.2478  0.2618
  143OSM   C12S15700   4.681   1.616   7.664  0.0179 -0.4021 -0.1460
  143OSM   H12S15701   4.616   1.530   7.691 -0.6057  0.5665  1.5354
  143OSM   H12T15702   4.616   1.707   7.667 -0.7494 -0.9993  2.1671
  143OSM   C13S15703   4.783   1.650   7.778  0.3791  0.4866 -0.8082
  143OSM   H13S15704   4.829   1.748   7.755  0.3824  0.6721 -0.0125
  143OSM   H13T15705   4.848   1.561   7.767  0.1392  0.3357 -1.0422
  143OSM   C14S15706   4.722   1.647   7.918 -0.1800  0.4061 -0.4696
  143OSM   H14S15707   4.644   1.568   7.920 -0.0787  0.3260  0.4744
  143OSM   H14T15708   4.665   1.742   7.911  0.5506  0.7519 -2.0386
  143OSM   C15S15709   4.820   1.663   8.033 -0.5975 -0.1819 -0.2606
  143OSM   H15S15710   4.904   1.732   8.009 -0.9575  0.3155 -0.1193
  143OSM   H15T15711   4.862   1.561   8.044 -0.7226 -0.3502 -1.3145
  143OSM   C16S15712   4.765   1.710   8.165  0.1761 -0.1789 -0.0552
  143OSM   H16S15713   4.719   1.626   8.222  1.0085 -0.4501  0.2168
  143OSM   H16T15714   4.693   1.794   8.156  0.6835  0.1581 -0.9390
  143OSM   C17S15715   4.877   1.763   8.260 -0.9498  0.3146  0.2623
  143OSM   H17S15716   4.911   1.848   8.197  0.0351 -0.0465  0.3040
  143OSM   H17T15717   4.962   1.691   8.265  0.4141  2.0062  1.7607
  143OSM   C18S15718   4.833   1.809   8.392  0.6478 -0.2350 -0.5805
  143OSM   H18S15719   4.785   1.725   8.446 -0.9975  0.2839 -1.2044
  143OSM   H18T15720   4.762   1.894   8.381  0.6376 -0.4579 -2.2824
  143OSM   H18U15721   4.914   1.844   8.460 -0.7956  2.2591 -0.0814
  143OSM    C1F15722   4.846   1.912   6.651  0.6340 -0.6801  0.1103
  143OSM     OF15723   4.734   1.955   6.623 -0.0495  0.1290  0.5316
  143OSM    C2F15724   4.961   1.992   6.689  0.8131 -0.1459 -0.5121
  143OSM    H2F15725   4.923   2.094   6.710  0.1635 -0.2793 -1.0140
  143OSM    H2G15726   5.031   1.992   6.603 -0.3891 -0.9492 -1.5077
  143OSM    C3F15727   5.023   1.937   6.819 -0.2971  0.2720 -0.8188
  143OSM    H3F15728   5.055   1.832   6.799 -1.1475  0.0679 -1.1364
  143OSM    H3G15729   4.947   1.923   6.899  1.0303 -0.7464  0.2942
  143OSM    C4F15730   5.140   2.026   6.872 -0.9696 -0.6075  1.1410
  143OSM    H4F15731   5.105   2.131   6.884  0.1572  0.3028 -3.0138
  143OSM    H4G15732   5.221   2.019   6.797 -2.3559 -2.5930 -0.2357
  143OSM    C5F15733   5.190   1.963   6.998  0.0196 -0.3307 -0.0049
  143OSM    H5F15734   5.280   2.019   7.029  0.2997 -1.3118  1.0166
  143OSM    H5G15735   5.210   1.855   6.980  1.4007 -0.1298  0.2646
  143OSM    C6F15736   5.091   1.979   7.118  0.2263  0.0294 -0.1985
  143OSM    H6F15737   5.012   1.903   7.100  1.9209 -1.6534 -0.6994
  143OSM    H6G15738   5.030   2.070   7.101  0.8488  0.5271  0.2436
  143OSM    C7F15739   5.159   1.972   7.259 -0.7493  0.3078 -0.2171
  143OSM    H7F15740   5.188   2.072   7.297 -0.9240  0.1479  0.3452
  143OSM    H7G15741   5.255   1.919   7.242 -1.4057 -0.9908  0.0720
  143OSM    C8F15742   5.071   1.901   7.359  0.3581 -0.7964 -0.2679
  143OSM    H8F15743   5.130   1.898   7.453 -1.8613  0.1126  1.1842
  143OSM    H8G15744   5.059   1.794   7.330 -1.1545 -0.2653 -1.7175
  143OSM    C9F15745   4.938   1.961   7.378 -0.1696 -0.2416  0.6582
  143OSM    H9F15746   4.875   1.949   7.289  1.2679 -0.7330 -0.3177
  143OSM   C10F15747   4.900   2.033   7.485 -0.3700  0.1461  0.5380
  143OSM   H10F15748   4.799   2.077   7.480 -0.9183 -0.9314  1.7509
  143OSM   C11F15749   4.977   2.071   7.609  0.3907  0.3484  0.3692
  143OSM   H11F15750   5.082   2.037   7.601  0.2629 -0.0394  0.3190
  143OSM   H11G15751   4.925   2.010   7.686  2.4087  0.9094  2.2079
  143OSM   C12F15752   4.967   2.221   7.624 -0.1249  0.2969 -0.6030
  143OSM   H12F15753   4.866   2.263   7.645  0.7678  2.7348 -1.1046
  143OSM   H12G15754   5.022   2.271   7.541  2.6514  0.3593  1.2014
  143OSM   C13F15755   5.056   2.279   7.740  0.8162  0.3026 -0.6012
  143OSM   H13F15756   5.166   2.267   7.731  1.0867  2.0284  0.2975
  143OSM   H13G15757   5.028   2.220   7.830  0.5656  0.7463 -0.3868
  143OSM   C14F15758   5.013   2.421   7.765 -0.2416 -0.1538  0.0985
  143OSM   H14F15759   4.903   2.406   7.768  0.0513 -2.5031  0.2603
  143OSM   H14G15760   5.035   2.489   7.681  1.2164  0.3911  0.9171
  143OSM   C15F15761   5.050   2.475   7.902 -0.3276  0.3197  0.3652
  143OSM   H15F15762   5.155   2.511   7.894 -0.4155  0.3802 -0.5883
  143OSM   H15G15763   5.029   2.403   7.984 -1.7433  1.1766  0.7769
  143OSM   C16F15764   4.972   2.604   7.933  0.3807 -0.0588  0.1558
  143OSM   H16F15765   4.870   2.586   7.894  1.1888 -1.6417 -1.2941
  143OSM   H16G15766   5.008   2.699   7.886 -3.1101  2.1966  1.8152
  143OSM   C17F15767   4.975   2.623   8.089  0.7212  0.4952 -0.2692
  143OSM   H17F15768   5.082   2.611   8.114  0.7368 -0.7943 -0.9353
  143OSM   H17G15769   4.924   2.535   8.133  0.2000 -0.0106 -1.8746
  143OSM   C18F15770   4.909   2.750   8.135  0.4350 -0.6046 -0.0215
  143OSM   H18F15771   4.802   2.721   8.150 -0.2050  0.3525 -2.4705
  143OSM   H18G15772   4.923   2.839   8.070 -1.4478 -1.2094 -1.2973
  143OSM   H18H15773   4.946   2.764   8.239  1.5695  0.1526 -0.5228
  144OSM      N15774   3.843   0.539   6.204  0.1875  0.8187  0.4901
  144OSM    C1515775   3.769   0.650   6.137  0.2566  0.3601  0.3672
  144OSM   H15A15776   3.783   0.660   6.031 -0.5525  0.1349  0.2386
  144OSM   H15B15777   3.795   0.748   6.177  1.6196 -1.3284  3.8346
  144OSM   H15C15778   3.666   0.632   6.163 -0.3232  0.5236 -1.7261
  144OSM    C1415779   3.812   0.539   6.351  0.1653 -0.6929  0.5064
  144OSM   H14A15780   3.883   0.472   6.397  2.4584 -0.4671 -2.4985
  144OSM   H14B15781   3.708   0.510   6.362  0.0678 -2.4170 -3.8780
  144OSM   H14C15782   3.832   0.641   6.381 -1.6310  0.4623 -1.9950
  144OSM    C1315783   3.799   0.411   6.140 -0.2680 -0.0020 -0.0424
  144OSM   H13A15784   3.832   0.407   6.038  0.2610 -1.7662  0.1793
  144OSM   H13B15785   3.691   0.411   6.135 -0.3312 -2.5382  0.6105
  144OSM   H13C15786   3.828   0.329   6.204 -0.3363 -0.9139 -1.1716
  144OSM    C1215787   3.986   0.564   6.186  0.1161 -0.1299  0.5114
  144OSM   H12A15788   4.010   0.588   6.083 -2.5677  1.8346  0.2804
  144OSM   H12B15789   4.051   0.486   6.222 -0.4081 -0.8635 -0.0987
  144OSM    C1115790   4.041   0.680   6.276  0.3404  0.9507  0.5304
  144OSM   H11A15791   4.149   0.680   6.251  0.2716 -0.7796  0.1728
  144OSM   H11B15792   4.034   0.652   6.383 -2.2069  1.6165  0.5805
  144OSM      P15793   3.995   0.904   6.142 -0.0731  0.0314 -0.0979
  144OSM    O1315794   4.050   0.834   6.025  0.0442 -0.3097  0.0402
  144OSM    O1415795   3.877   0.993   6.130 -0.5445 -0.1110  0.3157
  144OSM    O1115796   4.110   1.003   6.208  0.3617  0.2877 -0.0258
  144OSM    O1215797   3.965   0.805   6.255  0.4602 -0.4697  0.3972
  144OSM    C1S15798   4.079   1.075   6.332  0.0489  0.0134  0.2261
  144OSM    H1S15799   3.980   1.124   6.328  0.0475 -0.0735 -0.9326
  144OSM    H1T15800   4.144   1.164   6.341 -0.5723  0.4489  0.3959
  144OSM     NF15801   4.015   1.057   6.579  0.4917  0.0802  0.0025
  144OSM    HNF15802   4.072   1.084   6.656 -0.5530  1.5784  0.2882
  144OSM    C2S15803   4.078   0.993   6.470  0.0447  0.9545 -0.0280
  144OSM    H2S15804   4.016   0.900   6.464  1.4834 -0.1374  1.4773
  144OSM    C3S15805   4.224   0.953   6.501 -0.1100  0.5661 -0.7240
  144OSM    H3S15806   4.271   1.053   6.512  1.4297 -0.3355  1.2406
  144OSM     O315807   4.283   0.874   6.396  0.1656 -0.0966 -0.3199
  144OSM    HO315808   4.237   0.906   6.318  1.2974 -0.1020 -0.9994
  144OSM    C4S15809   4.245   0.877   6.639 -0.5240  0.2502  0.8670
  144OSM    H4S15810   4.249   0.945   6.725  0.5613  2.8094 -1.1435
  144OSM    C5S15811   4.232   0.741   6.656 -0.2339  0.0754 -0.7802
  144OSM    H5S15812   4.202   0.678   6.571 -0.2090  2.2462 -2.4493
  144OSM    C6S15813   4.245   0.670   6.789  0.6074  0.3761 -0.3059
  144OSM    H6S15814   4.313   0.585   6.767  3.5112  2.3400  0.7803
  144OSM    H6T15815   4.145   0.631   6.820  1.1031 -1.5919 -1.1278
  144OSM    C7S15816   4.311   0.749   6.902  0.5236 -0.3528 -0.4080
  144OSM    H7S15817   4.263   0.849   6.904  1.8222  0.2518  1.0387
  144OSM    H7T15818   4.419   0.773   6.893  0.0321  1.0943 -2.9077
  144OSM    C8S15819   4.287   0.682   7.037 -0.0609 -0.0647  0.0841
  144OSM    H8S15820   4.340   0.585   7.045  0.0901 -0.0912 -1.0873
  144OSM    H8T15821   4.177   0.665   7.038 -0.0316 -0.6380 -2.4014
  144OSM    C9S15822   4.343   0.774   7.153 -0.0821 -0.7438  0.0434
  144OSM    H9S15823   4.302   0.876   7.137  0.0420 -0.6034  0.5876
  144OSM    H9T15824   4.452   0.782   7.133  0.0503  0.0222  0.9933
  144OSM   C10S15825   4.318   0.718   7.296  0.0478 -0.5641  0.0813
  144OSM   H10S15826   4.363   0.617   7.308  1.0583 -0.0716  0.5037
  144OSM   H10T15827   4.212   0.688   7.312 -0.6212  0.7881 -1.6587
  144OSM   C11S15828   4.369   0.804   7.415 -0.0383  0.2657 -0.0925
  144OSM   H11S15829   4.351   0.912   7.397 -2.5163 -0.0262  0.4512
  144OSM   H11T15830   4.480   0.791   7.411  0.0102  0.4437  0.5680
  144OSM   C12S15831   4.313   0.747   7.552  0.6599 -0.0444 -0.3438
  144OSM   H12S15832   4.334   0.638   7.554 -1.3789 -0.5310 -2.6854
  144OSM   H12T15833   4.204   0.763   7.539  0.5738 -0.7285 -0.4716
  144OSM   C13S15834   4.358   0.810   7.675  0.1600  0.7950  0.3234
  144OSM   H13S15835   4.297   0.902   7.692 -1.2803  0.0187 -0.6111
  144OSM   H13T15836   4.464   0.843   7.674  0.6627 -0.8057 -1.0550
  144OSM   C14S15837   4.358   0.715   7.802  0.2565 -0.3156 -0.5692
  144OSM   H14S15838   4.424   0.627   7.785  0.7091  0.1269 -1.1199
  144OSM   H14T15839   4.265   0.656   7.815  1.0662 -1.4354  0.2351
  144OSM   C15S15840   4.397   0.780   7.938  1.4356 -0.8630  0.2291
  144OSM   H15S15841   4.322   0.859   7.958  1.1958 -1.1872  0.6198
  144OSM   H15T15842   4.497   0.823   7.917  1.8320 -1.4475  0.9049
  144OSM   C16S15843   4.380   0.677   8.048  0.2494  0.5174 -0.3580
  144OSM   H16S15844   4.471   0.623   8.013 -0.6084  0.5739 -2.7381
  144OSM   H16T15845   4.283   0.624   8.044 -0.2958  1.1546  2.7045
  144OSM   C17S15846   4.395   0.733   8.194  0.1737  0.5412 -0.1622
  144OSM   H17S15847   4.348   0.660   8.264 -0.1646 -0.2061 -1.1569
  144OSM   H17T15848   4.326   0.820   8.189 -2.3176 -1.4957 -3.6987
  144OSM   C18S15849   4.534   0.787   8.237  0.1186  0.2956  0.3993
  144OSM   H18S15850   4.524   0.863   8.317  0.8353  0.0817  0.6929
  144OSM   H18T15851   4.581   0.831   8.146 -0.8991 -0.4472 -0.5064
  144OSM   H18U15852   4.592   0.699   8.272 -0.1896  0.0469  0.2864
  144OSM    C1F15853   3.885   1.083   6.586  0.3042 -0.0602  0.1356
  144OSM     OF15854   3.813   1.019   6.516  0.3715 -0.5291  0.1798
  144OSM    C2F15855   3.825   1.194   6.680 -0.0070  0.0133  0.0609
  144OSM    H2F15856   3.835   1.288   6.621 -0.9653  0.0034 -0.1321
  144OSM    H2G15857   3.892   1.195   6.768 -1.5076 -2.1919  1.2748
  144OSM    C3F15858   3.672   1.159   6.703 -0.3998 -0.3842  0.7041
  144OSM    H3F15859   3.669   1.057   6.747 -0.5255 -0.3704  0.7275
  144OSM    H3G15860   3.616   1.184   6.610 -0.2608  0.3960  0.8246
  144OSM    C4F15861   3.614   1.255   6.812 -0.3742 -0.1716 -0.7574
  144OSM    H4F15862   3.504   1.257   6.796 -0.4373  0.5665 -0.2194
  144OSM    H4G15863   3.643   1.361   6.797 -0.6904  0.2977  1.7099
  144OSM    C5F15864   3.644   1.225   6.961 -0.1152  0.4676 -0.3130
  144OSM    H5F15865   3.750   1.257   6.968 -0.7366  2.3135  0.9746
  144OSM    H5G15866   3.641   1.114   6.964  2.5884  0.3151 -1.3065
  144OSM    C6F15867   3.564   1.296   7.069  1.2174  0.0255 -0.0290
  144OSM    H6F15868   3.473   1.236   7.090  2.0858 -1.3782 -0.1637
  144OSM    H6G15869   3.530   1.398   7.043 -0.4308 -0.4243  0.3160
  144OSM    C7F15870   3.655   1.299   7.197  0.1550  0.4896  0.1254
  144OSM    H7F15871   3.723   1.211   7.194  1.8299  1.7757 -0.4579
  144OSM    H7G15872   3.593   1.288   7.289  1.8120  1.7255  1.4090
  144OSM    C8F15873   3.737   1.432   7.217  0.8292 -0.0534 -0.0091
  144OSM    H8F15874   3.671   1.520   7.226 -3.9119 -3.4700  0.9311
  144OSM    H8G15875   3.813   1.447   7.138 -1.3800 -2.0640 -2.6071
  144OSM    C9F15876   3.809   1.436   7.350 -0.6428  0.7866 -0.1447
  144OSM    H9F15877   3.909   1.391   7.339 -1.8920 -2.6852  1.8465
  144OSM   C10F15878   3.749   1.460   7.468 -0.0438 -0.3659 -0.7803
  144OSM   H10F15879   3.810   1.449   7.559  2.7648 -0.1933 -2.5527
  144OSM   C11F15880   3.605   1.493   7.492 -0.4964 -0.0711  0.5853
  144OSM   H11F15881   3.546   1.509   7.399  0.3232  0.1704  0.0965
  144OSM   H11G15882   3.597   1.589   7.546 -0.1133  1.4470 -1.9714
  144OSM   C12F15883   3.524   1.384   7.568 -0.1854  0.4623 -0.0553
  144OSM   H12F15884   3.526   1.410   7.676 -1.6044 -1.5920  0.4963
  144OSM   H12G15885   3.568   1.282   7.564  1.4381  1.1921 -1.5681
  144OSM   C13F15886   3.384   1.371   7.526  0.0144  0.5340  0.3195
  144OSM   H13F15887   3.377   1.388   7.417  1.4762 -0.8045  0.0013
  144OSM   H13G15888   3.321   1.449   7.573  0.0196 -0.5727  2.2305
  144OSM   C14F15889   3.326   1.232   7.565 -0.6799  0.1036 -0.5463
  144OSM   H14F15890   3.332   1.209   7.673  0.7144  0.0477 -0.6297
  144OSM   H14G15891   3.376   1.147   7.514  1.4148  1.1277 -0.2721
  144OSM   C15F15892   3.173   1.217   7.537 -0.2020  0.2579  0.3478
  144OSM   H15F15893   3.112   1.304   7.570 -1.1136  0.2275 -1.2221
  144OSM   H15G15894   3.138   1.134   7.602  0.0730 -0.4848 -0.4326
  144OSM   C16F15895   3.140   1.167   7.393 -0.7387 -0.0996  0.1481
  144OSM   H16F15896   3.187   1.071   7.363 -1.0810  0.3988 -2.0534
  144OSM   H16G15897   3.186   1.245   7.329 -1.8026  0.7028  0.3589
  144OSM   C17F15898   2.988   1.163   7.356 -0.4034 -0.0312  0.4140
  144OSM   H17F15899   2.951   1.259   7.397 -0.0054  0.6353 -0.7671
  144OSM   H17G15900   2.940   1.080   7.413 -1.1962  0.0311 -0.1548
  144OSM   C18F15901   2.958   1.164   7.204 -0.0645  0.3689 -0.1582
  144OSM   H18F15902   2.854   1.194   7.178 -0.1561  1.0296  0.9271
  144OSM   H18G15903   2.999   1.071   7.158  0.3397 -0.7308  2.3472
  144OSM   H18H15904   3.021   1.249   7.170  1.0990 -0.8954 -1.1759
  145SAPE     N15905   1.768   2.785  10.808  0.8029  0.1440  0.0315
  145SAPE   HN115906   1.850   2.824  10.757 -1.4038  1.0562 -2.9722
  145SAPE   HN215907   1.718   2.867  10.847  0.3995  0.6235 -1.4541
  145SAPE   HN315908   1.796   2.737  10.896  1.5049  1.2052  0.4027
  145SAPE   C1215909   1.696   2.701  10.716 -0.2135  0.6095  0.0888
  145SAPE  H12A15910   1.603   2.659  10.759  0.2138 -0.2541  0.2048
  145SAPE  H12B15911   1.762   2.616  10.687 -0.6439  0.3258 -0.0546
  145SAPE   C1115912   1.662   2.782  10.592  1.3591 -0.0856 -0.1512
  145SAPE  H11A15913   1.583   2.858  10.609  1.5557  0.2481 -0.7055
  145SAPE  H11B15914   1.620   2.712  10.517 -0.5040 -0.0771  0.8622
  145SAPE     P15915   1.882   2.793  10.442  0.0638  0.5014  0.0218
  145SAPE   O1315916   1.973   2.896  10.390 -0.4944  0.0412  0.3935
  145SAPE   O1415917   1.949   2.678  10.510 -0.0366  0.1961 -0.4065
  145SAPE   O1215918   1.774   2.857  10.534  0.2009 -0.3680  0.1854
  145SAPE   O1115919   1.803   2.727  10.325 -0.3976 -0.5285 -0.3533
  145SAPE    C115920   1.789   2.579  10.318  0.2171 -0.8631  0.1480
  145SAPE    HA15921   1.792   2.526  10.416 -3.5679 -1.6305 -0.0784
  145SAPE    HB15922   1.687   2.571  10.275  0.7838  1.9544 -1.7838
  145SAPE    C215923   1.885   2.526  10.215  0.4038  0.6466 -0.1928
  145SAPE    HS15924   1.986   2.548  10.256  0.3237  0.0593  0.3472
  145SAPE   O2115925   1.858   2.580  10.086  0.3602 -0.2915  0.3977
  145SAPE   C2115926   1.952   2.579   9.995 -0.2082 -0.0513 -0.1116
  145SAPE   O2215927   2.069   2.550  10.027  0.0764 -0.2338 -0.1569
  145SAPE   C2215928   1.913   2.635   9.860  0.2505 -0.4787 -0.1361
  145SAPE   H2R15929   1.804   2.613   9.856  0.1489  0.2474 -3.1334
  145SAPE   H2S15930   1.938   2.743   9.847  0.6574 -0.6794 -1.0550
  145SAPE    C315931   1.857   2.367  10.225  0.0899  0.5494  0.1206
  145SAPE    HX15932   1.749   2.344  10.224  0.1392  0.3250  0.0883
  145SAPE    HY15933   1.898   2.341  10.325  1.1866 -1.3607 -0.7951
  145SAPE   O3115934   1.939   2.288  10.143  0.9087 -0.9150  0.2435
  145SAPE   C3115935   1.900   2.159  10.151  0.7874  0.0410  0.1664
  145SAPE   O3215936   1.832   2.118  10.244  0.3178 -0.0570 -0.2838
  145SAPE   C3215937   1.944   2.072  10.035 -0.2441 -0.6450  0.2787
  145SAPE   H2X15938   1.928   1.964  10.056  2.4202 -0.9566  0.9200
  145SAPE   H2Y15939   2.053   2.081  10.017 -0.3800  2.0942  0.6068
  145SAPE   C2315940   1.979   2.550   9.753  0.0996 -0.1406 -0.0008
  145SAPE   H3R15941   1.995   2.451   9.801 -1.6038 -0.4641 -0.0828
  145SAPE   H3S15942   2.083   2.584   9.733  0.4701 -1.5227 -0.5322
  145SAPE   C2415943   1.882   2.530   9.634 -0.1685  1.0480 -0.3230
  145SAPE   H4R15944   1.790   2.492   9.682  0.9369 -1.7035 -0.2837
  145SAPE   H4S15945   1.921   2.444   9.574  0.8793 -0.1467  1.9875
  145SAPE   C2515946   1.851   2.665   9.563 -0.5646 -0.0193  0.1256
  145SAPE   H5R15947   1.786   2.726   9.628  1.8853  2.8193 -0.0176
  145SAPE   C2615948   1.920   2.718   9.456  0.5417  0.5711 -0.1126
  145SAPE   H6R15949   1.893   2.815   9.411  1.3062  0.0064 -1.8361
  145SAPE   C2715950   2.030   2.645   9.390 -0.0473  0.9730 -0.7138
  145SAPE   H7R15951   1.986   2.555   9.341  2.7157 -1.1669  0.5468
  145SAPE   H7S15952   2.103   2.612   9.467 -1.2698  0.9630  0.4597
  145SAPE   C2815953   2.098   2.723   9.283 -0.7700 -0.1530 -0.0819
  145SAPE   H8R15954   2.185   2.779   9.321 -2.1029  1.3457  0.8667
  145SAPE   C2915955   2.073   2.744   9.152  0.1951  0.5660 -0.2773
  145SAPE   H9R15956   2.146   2.802   9.093  0.2265  1.4914  0.6763
  145SAPE  C21015957   1.957   2.690   9.069  0.4084 -0.4318 -0.4162
  145SAPE  H10R15958   1.897   2.618   9.129  0.1567 -2.3346 -2.8490
  145SAPE  H10S15959   1.989   2.651   8.970  1.2385 -0.0579 -0.3029
  145SAPE  C21115960   1.872   2.811   9.038 -0.3507 -0.0886 -0.7807
  145SAPE  H11R15961   1.815   2.848   9.125  1.6014  1.6844 -0.1961
  145SAPE  C21215962   1.831   2.860   8.918 -0.2426 -0.2221  0.6131
  145SAPE  H12R15963   1.771   2.952   8.918  2.2174  1.4608  1.0530
  145SAPE  C21315964   1.859   2.808   8.780 -0.0957 -0.0225 -0.0475
  145SAPE  H13R15965   1.786   2.851   8.709 -0.1424 -2.2767 -1.4339
  145SAPE  H13S15966   1.834   2.700   8.788  0.6902 -0.2849 -1.0327
  145SAPE  C21415967   2.002   2.831   8.742 -0.5907  0.3449 -0.4963
  145SAPE  H14R15968   2.075   2.788   8.812 -0.1254  0.5159 -0.8770
  145SAPE  C21515969   2.045   2.886   8.625 -0.3986 -0.4557 -0.3840
  145SAPE  H15R15970   2.153   2.885   8.606 -0.0968  0.8981  1.1122
  145SAPE  C21615971   1.960   2.945   8.513 -0.1030  0.0639 -0.5477
  145SAPE  H16R15972   2.015   3.035   8.478  0.5146 -0.9702 -2.2975
  145SAPE  H16S15973   1.858   2.971   8.548 -0.2427  1.8640 -2.1568
  145SAPE  C21715974   1.934   2.879   8.387 -0.3206 -0.1340 -0.6842
  145SAPE  H17R15975   1.872   2.954   8.332 -0.0951 -0.5015 -1.4406
  145SAPE  H17S15976   1.879   2.785   8.407 -0.5406  0.4574  1.6970
  145SAPE  C21815977   2.064   2.855   8.314  0.2898 -0.2007  0.1170
  145SAPE  H18R15978   2.123   2.773   8.361  2.7851  0.1804 -2.1908
  145SAPE  H18S15979   2.131   2.941   8.330  0.8562 -0.1473 -2.3188
  145SAPE  C21915980   2.041   2.837   8.160 -0.2209 -0.0747  0.6680
  145SAPE  H19R15981   2.137   2.817   8.107 -0.2978  1.0009  0.1169
  145SAPE  H19S15982   1.999   2.926   8.109  1.5897  2.5267  3.5402
  145SAPE  C22015983   1.936   2.729   8.123  0.1654  0.5814  0.0465
  145SAPE  H20R15984   1.951   2.645   8.194 -2.5200  0.6943  0.7933
  145SAPE  H20S15985   1.961   2.681   8.026  0.4074 -1.2491  0.9906
  145SAPE  H20T15986   1.834   2.771   8.136  0.2399  1.1731 -1.1754
  145SAPE   C3315987   1.857   2.107   9.909 -0.5316 -0.1614 -0.3659
  145SAPE   H3X15988   1.856   2.218   9.897 -1.0837 -0.2299 -1.0146
  145SAPE   H3Y15989   1.757   2.064   9.927  0.1381 -1.3910  0.4274
  145SAPE   C3415990   1.908   2.044   9.777 -0.1350 -0.7044  0.2625
  145SAPE   H4X15991   1.914   1.933   9.779  2.0610 -0.6588 -1.8631
  145SAPE   H4Y15992   2.015   2.071   9.769 -0.3216  0.0022  0.0525
  145SAPE   C3515993   1.830   2.106   9.663 -0.5559  1.0751  0.4869
  145SAPE   H5X15994   1.830   2.217   9.665 -1.0758  1.0778  0.5663
  145SAPE   H5Y15995   1.724   2.077   9.679  0.1430 -2.0466 -0.1343
  145SAPE   C3615996   1.868   2.050   9.523  0.3637  0.3034  0.4360
  145SAPE   H6X15997   1.847   1.941   9.524  1.2851  0.1218  1.9496
  145SAPE   H6Y15998   1.977   2.071   9.518  0.3885 -0.1617 -1.4168
  145SAPE   C3715999   1.793   2.131   9.417 -0.8723  0.4065 -0.8869
  145SAPE   H7X16000   1.812   2.240   9.426  1.8663 -0.0332 -1.0824
  145SAPE   H7Y16001   1.682   2.125   9.430 -0.6193 -1.0605  0.6464
  145SAPE   C3816002   1.828   2.110   9.272 -0.2690 -0.4230  0.3428
  145SAPE   H8X16003   1.820   2.000   9.257  2.4205 -0.7056  0.6206
  145SAPE   H8Y16004   1.938   2.120   9.259 -0.6554 -0.4991 -3.3863
  145SAPE   C3916005   1.735   2.183   9.173 -0.1000  0.1977 -0.3073
  145SAPE   H9X16006   1.752   2.292   9.183  0.0659  0.2466 -1.1265
  145SAPE   H9Y16007   1.627   2.167   9.190 -0.4601  1.9602 -0.8707
  145SAPE  C31016008   1.752   2.142   9.028  0.3023  0.1533 -0.5120
  145SAPE  H10X16009   1.719   2.038   9.010  0.3708 -0.4183  2.3134
  145SAPE  H10Y16010   1.859   2.143   9.000 -0.0622  0.5042 -1.9087
  145SAPE  C31116011   1.673   2.225   8.925 -0.4047  0.0330  0.8898
  145SAPE  H11X16012   1.707   2.330   8.921 -1.9050  0.5827  2.3044
  145SAPE  H11Y16013   1.570   2.230   8.967 -0.2447  0.9369  1.1831
  145SAPE  C31216014   1.664   2.162   8.780 -0.0299  0.2057 -0.3396
  145SAPE  H12X16015   1.639   2.053   8.783 -1.9971  0.6789  1.6374
  145SAPE  H12Y16016   1.762   2.169   8.728  1.0228  0.5821  1.6549
  145SAPE  C31316017   1.554   2.221   8.689  0.1741 -0.0901 -0.3422
  145SAPE  H13X16018   1.580   2.327   8.665  2.2080 -0.4643  0.0951
  145SAPE  H13Y16019   1.461   2.232   8.750  1.9246 -2.1389  2.8313
  145SAPE  C31416020   1.526   2.145   8.563 -0.0725  0.0027 -0.6172
  145SAPE  H14X16021   1.489   2.044   8.592  1.2832 -0.1834  0.5386
  145SAPE  H14Y16022   1.621   2.119   8.511  1.3056  0.1294  1.7336
  145SAPE  C31516023   1.417   2.210   8.466 -0.5152  0.0673  0.0021
  145SAPE  H15X16024   1.451   2.315   8.456 -1.3681  0.3258 -0.2044
  145SAPE  H15Y16025   1.322   2.204   8.524  0.7327  0.3511  2.1249
  145SAPE  C31616026   1.398   2.138   8.333  0.1287  0.5130 -0.2259
  145SAPE  H16X16027   1.378   2.031   8.355  1.2436  0.6446  1.4645
  145SAPE  H16Y16028   1.492   2.141   8.274 -0.3342 -0.0536 -1.0166
  145SAPE  C31716029   1.292   2.189   8.235  0.0585  0.6426  0.0623
  145SAPE  H17X16030   1.323   2.294   8.215  0.5366  0.4997  0.0464
  145SAPE  H17Y16031   1.192   2.192   8.283  1.0679  1.5737  2.1437
  145SAPE  C31816032   1.304   2.106   8.101  0.5292  0.0889 -0.3381
  145SAPE  H18X16033   1.327   2.000   8.123 -0.6300 -0.5398 -2.0685
  145SAPE  H18Y16034   1.399   2.138   8.051  0.0447  1.3675 -0.4546
  145SAPE  H18Z16035   1.215   2.113   8.035 -0.1872  0.0115  0.6051
  146SAPE     N16036   1.425   3.770  10.576 -0.0041 -0.3681  0.4955
  146SAPE   HN116037   1.518   3.796  10.612 -0.1144 -0.8074  1.1017
  146SAPE   HN216038   1.412   3.667  10.584 -0.0151 -0.4757 -0.7793
  146SAPE   HN316039   1.410   3.789  10.474  0.6996  1.5232  0.7304
  146SAPE   C1216040   1.333   3.852  10.661  0.7092  0.4578  0.1134
  146SAPE  H12A16041   1.367   3.957  10.654 -1.0752  1.0957  0.6488
  146SAPE  H12B16042   1.349   3.816  10.765  2.4718  1.7431  0.2993
  146SAPE   C1116043   1.180   3.828  10.630 -0.7488 -0.1251 -0.4937
  146SAPE  H11A16044   1.158   3.873  10.531 -0.3152 -1.2008 -1.0948
  146SAPE  H11B16045   1.129   3.873  10.718  1.4828  2.4303 -0.4213
  146SAPE     P16046   1.002   3.640  10.622  0.0256 -0.4872 -0.0001
  146SAPE   O1316047   0.993   3.498  10.575 -0.2361 -0.4275 -0.0565
  146SAPE   O1416048   0.938   3.669  10.754 -0.1493  0.1685  0.2877
  146SAPE   O1216049   1.157   3.687  10.625  0.5319 -0.2632 -0.7616
  146SAPE   O1116050   0.932   3.735  10.516 -0.1960 -0.0536 -0.3639
  146SAPE    C116051   0.882   3.682  10.400 -0.3236 -0.5430  0.2549
  146SAPE    HA16052   0.962   3.638  10.337  0.1827  0.8548 -0.1057
  146SAPE    HB16053   0.803   3.610  10.431 -0.2957 -0.6405  0.0997
  146SAPE    C216054   0.815   3.786  10.315 -0.1508 -0.3268  0.8662
  146SAPE    HS16055   0.770   3.870  10.373 -1.1904  0.1733 -0.6310
  146SAPE   O2116056   0.731   3.727  10.210 -0.4229  0.2532  0.4776
  146SAPE   C2116057   0.619   3.671  10.243  0.3796  0.5205 -0.5376
  146SAPE   O2216058   0.560   3.693  10.351  0.3212  0.1980  0.2796
  146SAPE   C2216059   0.558   3.583  10.131 -0.6379  0.0822  0.2011
  146SAPE   H2R16060   0.554   3.640  10.035 -2.0545 -2.4097 -1.2905
  146SAPE   H2S16061   0.631   3.502  10.111 -0.2108 -0.2272  2.8967
  146SAPE    C316062   0.927   3.862  10.242 -0.3303 -0.6333 -0.3478
  146SAPE    HX16063   0.993   3.914  10.314 -1.6952 -1.5583  1.6166
  146SAPE    HY16064   0.876   3.939  10.181 -0.3876 -1.1386 -0.9495
  146SAPE   O3116065   1.008   3.778  10.154  0.2111 -0.4010  0.4164
  146SAPE   C3116066   1.143   3.788  10.159  0.2950 -0.3203 -0.1083
  146SAPE   O3216067   1.201   3.883  10.209  0.0172  0.4752 -0.1071
  146SAPE   C3216068   1.206   3.681  10.073 -0.2356  0.2907 -0.1918
  146SAPE   H2X16069   1.124   3.651  10.004  0.0371 -0.2330 -0.2980
  146SAPE   H2Y16070   1.240   3.589  10.126 -1.6730 -0.5592 -0.6919
  146SAPE   C2316071   0.419   3.521  10.166  0.3207 -0.0295  0.0778
  146SAPE   H3R16072   0.362   3.581  10.241  0.3782 -1.0866  0.9736
  146SAPE   H3S16073   0.456   3.430  10.218  0.2496  0.2611  0.6380
  146SAPE   C2416074   0.320   3.504  10.048 -1.2760  0.1635 -0.7815
  146SAPE   H4R16075   0.231   3.442  10.072 -0.5530  0.1581  1.9806
  146SAPE   H4S16076   0.380   3.458   9.966  1.7944 -1.2463  2.1549
  146SAPE   C2516077   0.283   3.643  10.008  0.2180  0.4637 -0.5733
  146SAPE   H5R16078   0.241   3.696  10.095  1.0543  0.3431 -0.0887
  146SAPE   C2616079   0.308   3.714   9.900 -0.5764  0.5904 -0.0934
  146SAPE   H6R16080   0.271   3.818   9.896  1.2709  1.3325  1.0802
  146SAPE   C2716081   0.366   3.660   9.772  0.9364 -0.0239 -0.2716
  146SAPE   H7R16082   0.455   3.599   9.798  1.8423  0.4223 -2.2653
  146SAPE   H7S16083   0.387   3.748   9.707  1.6274  0.0004 -0.0262
  146SAPE   C2816084   0.253   3.579   9.707  0.7305 -0.5756  0.3894
  146SAPE   H8R16085   0.165   3.556   9.769 -1.0124  1.7936 -1.1489
  146SAPE   C2916086   0.253   3.539   9.579  0.3780  0.4787  0.1326
  146SAPE   H9R16087   0.167   3.476   9.551 -0.0010 -0.3567  2.9965
  146SAPE  C21016088   0.366   3.556   9.474  0.6209 -0.5175 -0.2811
  146SAPE  H10R16089   0.454   3.509   9.524  0.2898 -0.6080  0.2323
  146SAPE  H10S16090   0.403   3.660   9.462  1.2201 -0.6875  0.0709
  146SAPE  C21116091   0.342   3.485   9.345 -0.7307  0.8549 -0.0179
  146SAPE  H11R16092   0.342   3.376   9.358  0.5285  0.9471  0.8648
  146SAPE  C21216093   0.321   3.537   9.220 -0.0771  0.5290 -0.0661
  146SAPE  H12R16094   0.323   3.467   9.135 -0.6963  0.0050  0.3547
  146SAPE  C21316095   0.315   3.682   9.186 -0.0216 -0.8402 -0.1898
  146SAPE  H13R16096   0.284   3.744   9.272 -1.5586  0.0078 -1.3337
  146SAPE  H13S16097   0.236   3.692   9.109  0.0703 -1.0773 -0.3171
  146SAPE  C21416098   0.431   3.755   9.124  0.1166  0.2588  0.0102
  146SAPE  H14R16099   0.501   3.798   9.196 -0.7968 -0.2031  1.1946
  146SAPE  C21516100   0.456   3.760   8.993  0.4434 -0.1400  0.7241
  146SAPE  H15R16101   0.545   3.813   8.957  0.5640  0.4785  1.8842
  146SAPE  C21616102   0.378   3.696   8.881 -0.6844  0.3422 -0.0459
  146SAPE  H16R16103   0.320   3.775   8.828 -2.0190  0.4798  1.5743
  146SAPE  H16S16104   0.300   3.625   8.916  0.2215 -1.1251 -0.9755
  146SAPE  C21716105   0.472   3.622   8.780 -0.3893  0.7689  0.1336
  146SAPE  H17R16106   0.549   3.692   8.743 -2.4848  2.4871 -1.1402
  146SAPE  H17S16107   0.415   3.577   8.696  0.2843  0.9627 -0.4271
  146SAPE  C21816108   0.534   3.499   8.840 -0.2188  0.0082  0.0573
  146SAPE  H18R16109   0.540   3.505   8.951 -1.1162  1.1802  0.0502
  146SAPE  H18S16110   0.634   3.471   8.802  0.7881  1.1931  1.7761
  146SAPE  C21916111   0.447   3.372   8.804 -0.2737 -0.1723  0.4982
  146SAPE  H19R16112   0.436   3.363   8.694  0.1903 -1.2337  0.5355
  146SAPE  H19S16113   0.343   3.378   8.843 -1.4404  0.1724 -2.5273
  146SAPE  C22016114   0.516   3.245   8.857  0.0431 -0.6275  0.5065
  146SAPE  H20R16115   0.444   3.161   8.846 -1.5064  0.7584 -0.0062
  146SAPE  H20S16116   0.529   3.251   8.967 -0.6428 -2.3830  0.6922
  146SAPE  H20T16117   0.609   3.213   8.804  0.5390  1.5928 -0.0076
  146SAPE   C3316118   1.333   3.720  10.002  0.3559 -0.4903 -0.2928
  146SAPE   H3X16119   1.413   3.746  10.075  0.0043  1.1308 -0.4641
  146SAPE   H3Y16120   1.320   3.800   9.927 -0.0896  0.1236  0.4259
  146SAPE   C3416121   1.395   3.611   9.919 -0.7464  0.0047 -0.3773
  146SAPE   H4X16122   1.413   3.519   9.979  0.2087 -0.7814 -1.8311
  146SAPE   H4Y16123   1.492   3.648   9.880 -1.2551 -0.0959 -1.7884
  146SAPE   C3516124   1.307   3.580   9.791 -1.0969  0.8266 -0.1120
  146SAPE   H5X16125   1.202   3.611   9.812 -1.5679 -0.5804 -0.3884
  146SAPE   H5Y16126   1.311   3.470   9.780  0.3550  0.8217  0.4508
  146SAPE   C3616127   1.362   3.650   9.670  0.1908 -0.5451 -0.3772
  146SAPE   H6X16128   1.466   3.622   9.643  0.4900  0.9328 -0.7909
  146SAPE   H6Y16129   1.353   3.760   9.680  1.0518 -0.4424 -0.6559
  146SAPE   C3716130   1.263   3.621   9.550 -0.2783  0.8144  0.1253
  146SAPE   H7X16131   1.162   3.640   9.591  0.2368  0.6445  1.5073
  146SAPE   H7Y16132   1.260   3.510   9.544 -2.4616  0.9033 -0.9250
  146SAPE   C3816133   1.298   3.681   9.403 -0.1801 -0.3297 -0.0509
  146SAPE   H8X16134   1.310   3.792   9.404 -0.6801 -0.2738 -0.3835
  146SAPE   H8Y16135   1.211   3.651   9.341  0.1063  0.5034 -0.8671
  146SAPE   C3916136   1.428   3.630   9.333  0.7823  0.0455 -0.2845
  146SAPE   H9X16137   1.420   3.521   9.316 -3.2617  0.3824 -0.9810
  146SAPE   H9Y16138   1.515   3.636   9.402  0.3487  0.1397  0.2554
  146SAPE  C31016139   1.438   3.703   9.200 -0.1690 -0.4018  0.4010
  146SAPE  H10X16140   1.467   3.809   9.217 -0.9814 -0.2018  0.5409
  146SAPE  H10Y16141   1.333   3.701   9.164 -0.1428 -1.5551  0.3714
  146SAPE  C31116142   1.536   3.634   9.107  0.2054  0.0537 -0.3030
  146SAPE  H11X16143   1.503   3.529   9.092  1.0462 -0.1647 -0.6374
  146SAPE  H11Y16144   1.634   3.642   9.159  0.8122  0.5107 -1.4980
  146SAPE  C31216145   1.531   3.701   8.965  0.3098 -0.2830 -0.1288
  146SAPE  H12X16146   1.541   3.812   8.972  0.4842 -0.3537  0.9472
  146SAPE  H12Y16147   1.439   3.675   8.910  0.1218 -0.5596  0.3091
  146SAPE  C31316148   1.647   3.657   8.877 -0.4293  0.5513  0.3601
  146SAPE  H13X16149   1.642   3.548   8.853 -0.8161  0.1298  2.2035
  146SAPE  H13Y16150   1.746   3.682   8.921 -0.1914  0.2658 -0.0078
  146SAPE  C31416151   1.645   3.745   8.745 -0.4371  0.0604  0.6468
  146SAPE  H14X16152   1.620   3.851   8.767  1.3034  0.3111  1.4688
  146SAPE  H14Y16153   1.553   3.715   8.691 -0.8654  1.3172  0.6541
  146SAPE  C31516154   1.774   3.717   8.661 -0.3280 -0.9548  0.6639
  146SAPE  H15X16155   1.772   3.608   8.638 -1.0962 -0.2198 -3.0427
  146SAPE  H15Y16156   1.866   3.727   8.722 -0.3980 -2.0314  0.9705
  146SAPE  C31616157   1.784   3.800   8.531  0.1755  0.7328  0.4150
  146SAPE  H16X16158   1.706   3.758   8.464 -1.8866  1.6351  2.2080
  146SAPE  H16Y16159   1.891   3.795   8.499  0.2715 -1.9316  1.0694
  146SAPE  C31716160   1.746   3.947   8.547  0.0523  0.0540 -0.0202
  146SAPE  H17X16161   1.794   3.976   8.643 -0.7105  1.4655 -0.0475
  146SAPE  H17Y16162   1.635   3.952   8.558  0.0768  0.4553  0.0597
  146SAPE  C31816163   1.786   4.031   8.426 -0.4366  0.0362  0.7266
  146SAPE  H18X16164   1.842   4.125   8.448  2.6416 -1.5291 -0.1916
  146SAPE  H18Y16165   1.703   4.062   8.360 -0.0084 -1.8178 -0.7080
  146SAPE  H18Z16166   1.854   3.972   8.361  0.4780  1.9966 -0.1732
  147SAPE     N16167   2.740   6.403  10.820 -0.0237  0.1049  0.0733
  147SAPE   HN116168   2.827   6.420  10.767 -0.3167  2.1342  0.2027
  147SAPE   HN216169   2.746   6.306  10.857  0.4939  0.5521  1.1535
  147SAPE   HN316170   2.656   6.409  10.759  1.0997  2.0844 -1.3094
  147SAPE   C1216171   2.702   6.519  10.913 -0.3487  0.1659 -0.0707
  147SAPE  H12A16172   2.688   6.613  10.855  0.0789 -0.2280 -0.8285
  147SAPE  H12B16173   2.781   6.531  10.990  1.2341  0.7695 -1.7300
  147SAPE   C1116174   2.573   6.482  10.983 -0.8743  0.4286 -0.3887
  147SAPE  H11A16175   2.572   6.552  11.070 -0.9496 -0.1687  0.0918
  147SAPE  H11B16176   2.559   6.377  11.016  0.0252  0.5966  0.5400
  147SAPE     P16177   2.322   6.504  10.952 -0.0328 -0.1994 -0.3738
  147SAPE   O1316178   2.339   6.502  11.103  0.4536  0.0029  0.2820
  147SAPE   O1416179   2.246   6.612  10.886  0.0179 -0.6788  0.1284
  147SAPE   O1216180   2.463   6.508  10.900  0.2482  0.1383  0.1437
  147SAPE   O1116181   2.254   6.363  10.904 -0.8088  0.3758 -0.5168
  147SAPE    C116182   2.345   6.275  10.831  0.4035 -0.1292  0.1431
  147SAPE    HA16183   2.451   6.287  10.859  0.1069  0.6252  0.9564
  147SAPE    HB16184   2.329   6.170  10.864 -2.8894  0.5192  0.7763
  147SAPE    C216185   2.321   6.285  10.679  0.5854 -0.5522  0.2306
  147SAPE    HS16186   2.405   6.227  10.635 -0.1669 -1.6995  0.2940
  147SAPE   O2116187   2.319   6.425  10.632 -0.2206 -0.2742 -0.7663
  147SAPE   C2116188   2.435   6.491  10.615  0.2887  0.1883 -0.7690
  147SAPE   O2216189   2.547   6.444  10.625 -0.4820  0.1896  0.3236
  147SAPE   C2216190   2.413   6.631  10.566  0.2774 -0.3840  0.2766
  147SAPE   H2R16191   2.324   6.632  10.499  2.7664 -0.0830 -3.1231
  147SAPE   H2S16192   2.395   6.699  10.652  0.6547  1.0737 -0.7729
  147SAPE    C316193   2.183   6.219  10.627 -1.1603  0.4513 -0.5792
  147SAPE    HX16194   2.099   6.289  10.646 -1.7917 -0.3228 -0.5192
  147SAPE    HY16195   2.160   6.130  10.689 -1.4137  2.3100  2.0862
  147SAPE   O3116196   2.192   6.188  10.491  0.0351 -0.5984  0.5493
  147SAPE   C3116197   2.151   6.065  10.450  0.4641 -0.1636  0.2519
  147SAPE   O3216198   2.119   5.974  10.527 -0.3005  0.6087  0.2896
  147SAPE   C3216199   2.136   6.059  10.302 -0.1557 -0.2826  0.0814
  147SAPE   H2X16200   2.106   5.954  10.280  1.0212 -0.6249  0.0482
  147SAPE   H2Y16201   2.238   6.069  10.258 -1.1950  0.8414 -2.1291
  147SAPE   C2316202   2.531   6.678  10.480  0.0561  0.1996  0.2435
  147SAPE   H3R16203   2.542   6.617  10.387  1.2705 -0.0613  0.5435
  147SAPE   H3S16204   2.626   6.682  10.537  0.0404  0.6996  0.2327
  147SAPE   C2416205   2.499   6.821  10.430  0.2138 -0.2339  0.4400
  147SAPE   H4R16206   2.528   6.886  10.515 -0.5904  1.6852 -0.6999
  147SAPE   H4S16207   2.389   6.834  10.417  0.2000  0.1175  0.8784
  147SAPE   C2516208   2.576   6.866  10.311  0.0371 -0.5978  0.2514
  147SAPE   H5R16209   2.674   6.909  10.334 -0.0525  0.6454 -1.5919
  147SAPE   C2616210   2.546   6.852  10.183 -0.0927 -0.0174  0.2984
  147SAPE   H6R16211   2.606   6.894  10.101  1.7220 -2.2768  0.4159
  147SAPE   C2716212   2.415   6.798  10.142  0.2760 -0.0633 -0.0828
  147SAPE   H7R16213   2.357   6.888  10.112 -0.7431 -0.5851  0.2772
  147SAPE   H7S16214   2.355   6.775  10.233  1.5867 -0.0996  0.7812
  147SAPE   C2816215   2.421   6.680  10.048  0.7325 -0.0091  0.4046
  147SAPE   H8R16216   2.443   6.585  10.099 -1.3379 -0.9159 -0.3174
  147SAPE   C2916217   2.381   6.688   9.918  0.5692 -0.3898  0.3739
  147SAPE   H9R16218   2.388   6.599   9.853 -3.0891  0.5486 -1.4414
  147SAPE  C21016219   2.325   6.807   9.837 -0.0607  0.0669 -0.2942
  147SAPE  H10R16220   2.247   6.858   9.898  1.6814  0.7120  1.4291
  147SAPE  H10S16221   2.266   6.769   9.750 -0.0970  0.0878 -0.2794
  147SAPE  C21116222   2.416   6.919   9.798 -0.2646  0.2770 -0.2086
  147SAPE  H11R16223   2.487   6.949   9.877  2.8954 -1.0428 -2.4301
  147SAPE  C21216224   2.398   6.988   9.681  0.0926  0.0789 -0.7476
  147SAPE  H12R16225   2.466   7.068   9.647 -1.0998  1.5383  0.2084
  147SAPE  C21316226   2.298   6.954   9.577 -0.6172  0.0394  0.5466
  147SAPE  H13R16227   2.204   6.922   9.626 -0.6615  0.8101  0.9776
  147SAPE  H13S16228   2.325   6.863   9.520 -0.4722  0.6028 -0.3051
  147SAPE  C21416229   2.271   7.057   9.474 -0.6998 -0.3067 -0.2739
  147SAPE  H14R16230   2.245   7.155   9.518  0.0395 -0.6707  0.9935
  147SAPE  C21516231   2.272   7.048   9.338  0.5602 -0.5790  0.0326
  147SAPE  H15R16232   2.243   7.136   9.280  1.1373 -1.5191 -1.7149
  147SAPE  C21616233   2.302   6.927   9.250 -0.0614 -0.1071 -0.0041
  147SAPE  H16R16234   2.314   6.829   9.299  3.5469  0.2565 -0.0736
  147SAPE  H16S16235   2.395   6.944   9.193  0.2499 -0.9091  0.2662
  147SAPE  C21716236   2.186   6.919   9.142 -0.4841  0.5187 -0.5196
  147SAPE  H17R16237   2.166   7.022   9.105  2.0361  1.6058  1.0043
  147SAPE  H17S16238   2.089   6.893   9.190 -0.4026  0.3563 -0.4437
  147SAPE  C21816239   2.210   6.831   9.025  0.8021 -0.1996 -0.3095
  147SAPE  H18R16240   2.216   6.728   9.065  0.3740  0.1606  0.7034
  147SAPE  H18S16241   2.293   6.858   8.958  1.3914  2.2135  1.3452
  147SAPE  C21916242   2.085   6.831   8.935  0.1179 -0.7901  0.1600
  147SAPE  H19R16243   2.061   6.938   8.917  1.9803 -0.6896 -1.9592
  147SAPE  H19S16244   1.996   6.786   8.984  0.1262 -2.3758 -1.2411
  147SAPE  C22016245   2.103   6.782   8.796  0.0869  0.1294 -0.3499
  147SAPE  H20R16246   2.031   6.824   8.724  1.7488  1.3456 -1.3532
  147SAPE  H20S16247   2.095   6.671   8.797  3.8537 -0.2966  4.4426
  147SAPE  H20T16248   2.204   6.805   8.755  0.0999  2.9619  1.1573
  147SAPE   C3316249   2.035   6.153  10.243 -0.1148  0.5458 -0.6422
  147SAPE   H3X16250   2.087   6.250  10.234  1.6687 -0.2036  1.1805
  147SAPE   H3Y16251   1.955   6.163  10.320  0.6127  1.1380  0.0390
  147SAPE   C3416252   1.971   6.120  10.115  0.1261  0.2909  0.8490
  147SAPE   H4X16253   1.936   6.016  10.126 -0.5504  0.3097 -0.9489
  147SAPE   H4Y16254   2.038   6.128  10.026 -0.1449 -0.9519  0.5232
  147SAPE   C3516255   1.843   6.202  10.092 -0.4182 -0.0499  0.1337
  147SAPE   H5X16256   1.863   6.311  10.106 -0.7913 -0.0359  0.5894
  147SAPE   H5Y16257   1.770   6.188  10.175 -0.6676 -0.9176 -0.2340
  147SAPE   C3616258   1.767   6.185   9.959  0.3839  0.4564 -0.1163
  147SAPE   H6X16259   1.731   6.285   9.927  2.0907  1.3232  0.5915
  147SAPE   H6Y16260   1.688   6.107   9.958  0.1741  0.5476  3.5674
  147SAPE   C3716261   1.852   6.145   9.834 -0.4859  0.3653 -0.2225
  147SAPE   H7X16262   1.862   6.035   9.829 -2.7430  0.1433 -0.5409
  147SAPE   H7Y16263   1.942   6.209   9.826  0.4234 -0.9174 -0.3702
  147SAPE   C3816264   1.780   6.171   9.699  0.3582 -0.2649  0.1430
  147SAPE   H8X16265   1.709   6.252   9.724  0.1056 -0.4652  0.0713
  147SAPE   H8Y16266   1.733   6.079   9.659 -1.5331  0.8518 -0.2342
  147SAPE   C3916267   1.882   6.215   9.591  0.5388  0.0289 -0.0874
  147SAPE   H9X16268   1.975   6.155   9.599  0.3930  0.0854  2.7803
  147SAPE   H9Y16269   1.905   6.323   9.606  1.9385 -0.1604 -0.8137
  147SAPE  C31016270   1.828   6.202   9.446  0.0744 -0.8158  0.3497
  147SAPE  H10X16271   1.902   6.246   9.375  2.5465 -1.8955  2.1829
  147SAPE  H10Y16272   1.738   6.265   9.428  0.0244 -0.3874  1.9981
  147SAPE  C31116273   1.794   6.061   9.396 -0.1826  0.2504  0.0765
  147SAPE  H11X16274   1.700   6.042   9.453  1.0964  0.1812  2.2146
  147SAPE  H11Y16275   1.863   5.980   9.424 -2.1237 -1.5930 -0.3576
  147SAPE  C31216276   1.769   6.043   9.246  0.2551 -0.1449  0.2459
  147SAPE  H12X16277   1.751   5.936   9.223 -0.8118  0.4465 -1.8045
  147SAPE  H12Y16278   1.859   6.076   9.188  0.4408  0.0566  0.6446
  147SAPE  C31316279   1.649   6.125   9.190  0.4560 -0.0981  0.5766
  147SAPE  H13X16280   1.698   6.222   9.166  0.0817 -0.0957 -0.1842
  147SAPE  H13Y16281   1.584   6.148   9.277  0.9536 -1.4271  1.3208
  147SAPE  C31416282   1.581   6.065   9.065 -0.6871  0.0572 -0.9204
  147SAPE  H14X16283   1.500   6.138   9.043  0.5354  1.7425  0.0729
  147SAPE  H14Y16284   1.518   5.978   9.093  1.5947 -1.0808  0.8530
  147SAPE  C31516285   1.675   6.038   8.942  0.0988  0.3338 -0.1797
  147SAPE  H15X16286   1.603   5.982   8.879  0.4766  0.5746 -0.8258
  147SAPE  H15Y16287   1.759   5.970   8.966 -0.1587  0.2294  0.4406
  147SAPE  C31616288   1.709   6.169   8.871  0.1006  0.3526  0.4732
  147SAPE  H16X16289   1.782   6.232   8.926 -1.4360  3.2448 -0.6921
  147SAPE  H16Y16290   1.620   6.235   8.865  1.1032  1.5004 -2.6165
  147SAPE  C31716291   1.764   6.149   8.724 -0.7462  0.6461  0.9846
  147SAPE  H17X16292   1.699   6.076   8.670  1.3354  1.1442 -2.3107
  147SAPE  H17Y16293   1.860   6.097   8.741 -0.5971  0.1425 -1.2249
  147SAPE  C31816294   1.780   6.281   8.652  0.0401  0.1095 -0.0861
  147SAPE  H18X16295   1.862   6.343   8.694 -0.9113 -0.0054  1.9954
  147SAPE  H18Y16296   1.684   6.336   8.665  1.1734  2.1900 -0.3481
  147SAPE  H18Z16297   1.794   6.275   8.542  1.4248 -0.8667  0.1200
  148SAPE     N16298   3.785   2.524  10.460 -0.5247 -0.0009 -0.6555
  148SAPE   HN116299   3.788   2.623  10.491  0.4381 -0.5763  1.1638
  148SAPE   HN216300   3.685   2.498  10.452 -0.4858 -0.8858  1.3070
  148SAPE   HN316301   3.804   2.461  10.541 -0.7517  0.8426  0.0655
  148SAPE   C1216302   3.870   2.488  10.338  0.0283  0.6171 -0.1016
  148SAPE  H12A16303   3.956   2.558  10.336 -1.0557  2.0478  1.6215
  148SAPE  H12B16304   3.810   2.493  10.244  0.8895  0.0033 -0.6832
  148SAPE   C1116305   3.923   2.341  10.351 -0.3900 -0.5264 -0.1466
  148SAPE  H11A16306   3.999   2.349  10.431 -1.0724 -0.9882  0.5504
  148SAPE  H11B16307   3.970   2.315  10.254 -1.4269 -2.1061 -0.2478
  148SAPE     P16308   3.855   2.089  10.386 -0.1114 -0.4727  0.2973
  148SAPE   O1316309   3.954   2.066  10.495  0.0190  0.5267  0.2945
  148SAPE   O1416310   3.724   2.024  10.391 -0.5200 -0.9169 -0.4324
  148SAPE   O1216311   3.824   2.249  10.394 -0.5587 -0.6801 -0.1411
  148SAPE   O1116312   3.934   2.069  10.250 -0.2811  0.2188  0.9182
  148SAPE    C116313   3.877   1.983  10.150 -0.5273 -0.3504 -0.5879
  148SAPE    HA16314   3.771   2.011  10.137 -1.6337 -1.9945  3.9676
  148SAPE    HB16315   3.941   1.991  10.059  0.4575  0.5927  0.1776
  148SAPE    C216316   3.887   1.836  10.188 -0.7893 -0.3807  0.5176
  148SAPE    HS16317   3.832   1.820  10.283 -0.5458  2.4200  1.1997
  148SAPE   O2116318   4.026   1.808  10.202  0.3048 -0.2296 -0.0081
  148SAPE   C2116319   4.065   1.701  10.257 -0.2002  0.2852  0.2139
  148SAPE   O2216320   3.998   1.617  10.308  0.0116 -0.1349  0.5184
  148SAPE   C2216321   4.217   1.694  10.261  0.4930  0.5895  0.8643
  148SAPE   H2R16322   4.268   1.765  10.193  1.9644 -1.0613  0.1833
  148SAPE   H2S16323   4.247   1.694  10.368  0.9336 -1.1245  0.7600
  148SAPE    C316324   3.823   1.746  10.080  0.4239  0.4890  0.2758
  148SAPE    HX16325   3.842   1.641  10.111 -0.5636 -0.2670 -1.5849
  148SAPE    HY16326   3.869   1.764   9.981 -2.1399 -1.7794 -1.4265
  148SAPE   O3116327   3.681   1.773  10.071  0.0417  0.3437 -0.0621
  148SAPE   C3116328   3.613   1.658  10.033 -0.4131  0.7274 -0.2689
  148SAPE   O3216329   3.662   1.551  10.010  0.5012 -0.1027  0.4603
  148SAPE   C3216330   3.458   1.687  10.023  0.4659  0.0686  0.0954
  148SAPE   H2X16331   3.421   1.742  10.112 -1.3986  0.9750 -1.2147
  148SAPE   H2Y16332   3.415   1.585  10.035 -1.4545  0.7859 -0.5984
  148SAPE   C2316333   4.255   1.549  10.211  0.1776 -0.1827 -0.1729
  148SAPE   H3R16334   4.198   1.474  10.270 -3.1146  1.7688 -0.7098
  148SAPE   H3S16335   4.365   1.546  10.225 -0.0415 -1.7596  1.3837
  148SAPE   C2416336   4.235   1.522  10.062  0.2537 -0.2971  0.8103
  148SAPE   H4R16337   4.284   1.424  10.047 -2.0298 -1.4995  0.9971
  148SAPE   H4S16338   4.296   1.599  10.009 -2.8320  1.1897 -0.7156
  148SAPE   C2516339   4.093   1.507  10.019  0.0070 -0.2264  0.0144
  148SAPE   H5R16340   4.030   1.454  10.093 -0.1863  1.5429  1.1293
  148SAPE   C2616341   4.047   1.563   9.903 -0.5440 -0.6756 -0.0279
  148SAPE   H6R16342   3.940   1.558   9.877 -0.4000  0.4546 -0.8722
  148SAPE   C2716343   4.129   1.638   9.804 -0.2973  0.0590  0.6301
  148SAPE   H7R16344   4.076   1.630   9.707  0.0250 -0.7064  0.5121
  148SAPE   H7S16345   4.227   1.588   9.786 -0.7055 -1.2440  1.9530
  148SAPE   C2816346   4.149   1.780   9.844 -0.1028 -0.5369  0.5139
  148SAPE   H8R16347   4.229   1.794   9.919 -0.6253 -0.9983  1.1648
  148SAPE   C2916348   4.073   1.882   9.808  0.1731 -0.3187 -0.3055
  148SAPE   H9R16349   4.114   1.980   9.836  1.8815 -0.6642 -1.5215
  148SAPE  C21016350   3.950   1.877   9.722 -0.5739 -0.6217 -0.0488
  148SAPE  H10R16351   3.902   1.780   9.749 -0.4335  0.1399  3.1728
  148SAPE  H10S16352   3.985   1.867   9.617 -0.0543  1.8427 -0.1400
  148SAPE  C21116353   3.842   1.987   9.739 -0.0770 -0.2919 -0.8165
  148SAPE  H11R16354   3.821   2.024   9.840 -0.6362 -1.6666 -0.4183
  148SAPE  C21216355   3.770   2.040   9.641  0.0550  0.5178  0.0364
  148SAPE  H12R16356   3.698   2.117   9.673 -0.2509  1.2697 -2.3424
  148SAPE  C21316357   3.782   2.016   9.497  0.2527 -0.0463  0.0691
  148SAPE  H13R16358   3.876   1.961   9.474 -0.2901 -2.0496  2.4427
  148SAPE  H13S16359   3.799   2.115   9.448 -0.5553 -1.0163 -2.2343
  148SAPE  C21416360   3.669   1.949   9.425 -0.1119  0.2168 -0.4157
  148SAPE  H14R16361   3.693   1.842   9.419  0.5114  0.4418 -2.2547
  148SAPE  C21516362   3.556   1.999   9.371 -0.3804  0.0627  0.5329
  148SAPE  H15R16363   3.487   1.926   9.326 -1.3702  0.0708  2.0366
  148SAPE  C21616364   3.521   2.147   9.368  0.5959 -0.1988 -0.2064
  148SAPE  H16R16365   3.580   2.199   9.447 -0.7821  2.0112 -0.5726
  148SAPE  H16S16366   3.413   2.164   9.385  1.0467  2.7639  0.1126
  148SAPE  C21716367   3.561   2.204   9.226 -0.2069 -0.7921 -0.3564
  148SAPE  H17R16368   3.668   2.177   9.210  0.2405  1.1431 -0.7359
  148SAPE  H17S16369   3.563   2.315   9.233  0.9879 -0.7629 -0.9251
  148SAPE  C21816370   3.474   2.154   9.115  0.3543 -0.2257 -0.2271
  148SAPE  H18R16371   3.369   2.140   9.148  0.5798  0.9262  1.0434
  148SAPE  H18S16372   3.494   2.050   9.083  0.5704 -0.8236  1.7762
  148SAPE  C21916373   3.466   2.255   8.998  0.5440  0.2922  0.2630
  148SAPE  H19R16374   3.481   2.361   9.030 -0.5042  0.7745 -0.8106
  148SAPE  H19S16375   3.380   2.249   8.929  1.8785 -1.8709 -1.2642
  148SAPE  C22016376   3.585   2.228   8.911 -0.3563 -0.6294  0.4527
  148SAPE  H20R16377   3.677   2.222   8.972  0.0364  1.0726  0.0414
  148SAPE  H20S16378   3.610   2.306   8.836  0.6373 -1.1426  0.2392
  148SAPE  H20T16379   3.574   2.135   8.850  0.2272 -2.2104  2.6858
  148SAPE   C3316380   3.408   1.763   9.900  0.3301 -0.1294  0.1505
  148SAPE   H3X16381   3.437   1.712   9.806  1.1415 -1.8353  1.2960
  148SAPE   H3Y16382   3.447   1.866   9.886 -0.0059 -0.3277 -2.5854
  148SAPE   C3416383   3.248   1.771   9.915 -0.0680 -0.4201  0.3006
  148SAPE   H4X16384   3.211   1.827  10.004  1.4046  0.1896  0.5458
  148SAPE   H4Y16385   3.222   1.664   9.928 -1.0199 -0.4620 -1.8459
  148SAPE   C3516386   3.170   1.827   9.796  0.2573 -0.0218  0.4947
  148SAPE   H5X16387   3.199   1.933   9.781 -0.4913  0.3762  1.7252
  148SAPE   H5Y16388   3.060   1.825   9.817  0.4742 -0.8288  1.6181
  148SAPE   C3616389   3.191   1.746   9.669  1.1591  0.2037  0.2560
  148SAPE   H6X16390   3.154   1.643   9.687 -0.4850  0.4347 -1.6296
  148SAPE   H6Y16391   3.299   1.756   9.646  1.3483 -1.5232  0.2968
  148SAPE   C3716392   3.116   1.819   9.557  0.7401 -0.2582  0.1953
  148SAPE   H7X16393   3.156   1.922   9.572  0.8586 -0.6363  2.5933
  148SAPE   H7Y16394   3.008   1.817   9.584  1.5112 -0.9523  3.3645
  148SAPE   C3816395   3.154   1.771   9.418  0.2045  0.9932  0.2111
  148SAPE   H8X16396   3.097   1.676   9.407  0.7298  0.7405 -0.4108
  148SAPE   H8Y16397   3.264   1.752   9.422  0.3027  1.1562 -1.2982
  148SAPE   C3916398   3.123   1.867   9.306  0.5363 -0.6486 -0.4152
  148SAPE   H9X16399   3.167   1.963   9.338 -0.6057 -0.0436 -0.6236
  148SAPE   H9Y16400   3.014   1.880   9.291  0.7427 -0.1480 -1.5587
  148SAPE  C31016401   3.180   1.827   9.177  0.0943 -0.4670 -0.2012
  148SAPE  H10X16402   3.166   1.718   9.161  0.1045 -0.7709  1.7831
  148SAPE  H10Y16403   3.288   1.852   9.176 -0.3176  1.4519  1.1598
  148SAPE  C31116404   3.107   1.914   9.062  0.4467  0.3640 -0.1821
  148SAPE  H11X16405   3.094   2.018   9.101  4.0099  0.5570  0.6252
  148SAPE  H11Y16406   3.005   1.876   9.043 -0.3612  3.0455 -1.5665
  148SAPE  C31216407   3.185   1.908   8.933  0.1297 -0.1054  0.1319
  148SAPE  H12X16408   3.286   1.951   8.951 -0.1003 -0.1731  1.6748
  148SAPE  H12Y16409   3.159   1.992   8.865  2.0540 -1.4190 -2.2812
  148SAPE  C31316410   3.191   1.774   8.862 -0.5434  0.6713 -0.0786
  148SAPE  H13X16411   3.087   1.745   8.834  0.4669 -1.6872 -1.5850
  148SAPE  H13Y16412   3.228   1.698   8.934  2.7592  0.3794 -1.9668
  148SAPE  C31416413   3.276   1.784   8.734 -0.0230  0.1586 -0.0374
  148SAPE  H14X16414   3.374   1.830   8.758 -0.6783  0.2298  2.6541
  148SAPE  H14Y16415   3.210   1.845   8.667  0.1992  1.4396  0.8909
  148SAPE  C31516416   3.306   1.648   8.662 -0.0749 -0.2032  0.5292
  148SAPE  H15X16417   3.357   1.663   8.564 -1.2399  1.2366  0.1343
  148SAPE  H15Y16418   3.215   1.587   8.642  0.9697 -1.6948  0.1791
  148SAPE  C31616419   3.413   1.564   8.739  0.2009  1.3942  0.1361
  148SAPE  H16X16420   3.379   1.531   8.839  0.1090  2.1311  0.3513
  148SAPE  H16Y16421   3.510   1.617   8.749  0.9379 -0.0550  0.7318
  148SAPE  C31716422   3.435   1.423   8.667 -0.6817  0.5790 -0.3112
  148SAPE  H17X16423   3.466   1.442   8.562  1.1261 -0.7221 -0.0503
  148SAPE  H17Y16424   3.338   1.371   8.677  0.0426 -0.4098  1.8249
  148SAPE  C31816425   3.532   1.334   8.742 -0.2291 -0.2443 -1.1179
  148SAPE  H18X16426   3.608   1.396   8.794 -1.9173  1.0388 -0.1387
  148SAPE  H18Y16427   3.591   1.281   8.665 -2.6811 -0.3809 -2.9426
  148SAPE  H18Z16428   3.471   1.272   8.811  0.7052 -1.3019 -1.2284
  149SAPE     N16429   6.627   4.698  10.888  0.2660 -0.1844  0.2565
  149SAPE   HN116430   6.729   4.681  10.898  0.6130  2.7554  2.2162
  149SAPE   HN216431   6.593   4.740  10.799  2.8681  0.8900 -0.2575
  149SAPE   HN316432   6.598   4.773  10.954  0.4341  1.1514 -1.1775
  149SAPE   C1216433   6.536   4.573  10.909  0.2342 -0.6467 -0.2874
  149SAPE  H12A16434   6.547   4.505  10.822  1.4004 -1.5706  0.5618
  149SAPE  H12B16435   6.437   4.619  10.925  1.4919  1.3941  1.9277
  149SAPE   C1116436   6.571   4.491  11.031  0.6198  0.3753 -0.4583
  149SAPE  H11A16437   6.533   4.533  11.126  0.5249  3.3680 -1.7780
  149SAPE  H11B16438   6.682   4.495  11.033  0.6107  0.5781 -0.2984
  149SAPE     P16439   6.371   4.320  11.035  0.3671 -0.3544 -0.2064
  149SAPE   O1316440   6.328   4.318  11.178  0.1313  0.1808  0.5590
  149SAPE   O1416441   6.296   4.407  10.939  0.3977  0.5385  0.3586
  149SAPE   O1216442   6.525   4.355  11.015 -0.0096  0.1376 -0.5696
  149SAPE   O1116443   6.359   4.168  10.987  0.6031 -0.1608  0.6417
  149SAPE    C116444   6.425   4.125  10.873 -0.3844 -0.4565  0.4628
  149SAPE    HA16445   6.534   4.147  10.870 -0.7356  1.4002  0.9497
  149SAPE    HB16446   6.427   4.014  10.869  3.1800 -0.4360 -0.1653
  149SAPE    C216447   6.348   4.163  10.741  0.3718  0.3139 -0.0334
  149SAPE    HS16448   6.315   4.267  10.757  1.4892  0.7651 -0.5845
  149SAPE   O2116449   6.229   4.084  10.728  0.2063  0.1784 -0.3625
  149SAPE   C2116450   6.139   4.146  10.645  0.5271  0.0447  0.6626
  149SAPE   O2216451   6.158   4.250  10.586  0.2689  0.1693 -0.0138
  149SAPE   C2216452   6.022   4.059  10.612 -0.1739 -0.0013  0.2180
  149SAPE   H2R16453   6.057   3.957  10.587 -0.8429 -0.1639 -0.0468
  149SAPE   H2S16454   5.972   4.052  10.711  1.2031  1.6374  1.0467
  149SAPE    C316455   6.444   4.158  10.616 -0.5721  0.0345 -0.2758
  149SAPE    HX16456   6.527   4.231  10.629  0.0835 -0.6403 -0.6159
  149SAPE    HY16457   6.394   4.184  10.521 -0.5424  1.9609  0.2233
  149SAPE   O3116458   6.501   4.025  10.614  0.6977 -0.6962  0.2071
  149SAPE   C3116459   6.447   3.935  10.534  0.0932 -0.4692  0.0697
  149SAPE   O3216460   6.357   3.959  10.448 -0.2419  0.7149  0.0597
  149SAPE   C3216461   6.506   3.801  10.558 -0.4946  0.2005 -0.2375
  149SAPE   H2X16462   6.614   3.818  10.578 -0.3311 -1.0317  0.0062
  149SAPE   H2Y16463   6.494   3.731  10.473 -0.6673 -1.1169  0.8487
  149SAPE   C2316464   5.927   4.101  10.509 -0.5362  0.0603 -0.5996
  149SAPE   H3R16465   5.891   4.204  10.533  0.5826 -0.2266  2.5599
  149SAPE   H3S16466   5.840   4.032  10.509  1.5262 -2.6317 -1.3896
  149SAPE   C2416467   5.987   4.094  10.362  0.3106 -0.5403 -0.4594
  149SAPE   H4R16468   6.070   4.168  10.358 -0.3026  0.2077  0.3441
  149SAPE   H4S16469   5.907   4.141  10.301  1.1904  1.8228  0.1707
  149SAPE   C2516470   6.034   3.957  10.309 -0.0305 -0.1480  0.3190
  149SAPE   H5R16471   6.085   3.891  10.381 -0.3310 -0.6749  0.0515
  149SAPE   C2616472   5.998   3.906  10.188  0.1723 -0.3091 -0.0489
  149SAPE   H6R16473   6.040   3.816  10.142  1.6493 -0.8178  2.1933
  149SAPE   C2716474   5.909   3.988  10.096 -0.1966 -0.1736 -0.8283
  149SAPE   H7R16475   5.965   4.077  10.059  0.4321 -0.2210 -0.0117
  149SAPE   H7S16476   5.815   4.015  10.149 -0.0413 -0.9397 -0.1565
  149SAPE   C2816477   5.870   3.902   9.976 -0.4787 -0.1299 -0.0283
  149SAPE   H8R16478   5.862   3.793   9.993  1.6545 -0.5369 -1.4741
  149SAPE   C2916479   5.820   3.952   9.859 -0.1203 -0.6343 -0.4274
  149SAPE   H9R16480   5.791   3.884   9.777 -0.5631  0.2014 -0.9674
  149SAPE  C21016481   5.807   4.103   9.837  0.6074 -0.1474  0.4060
  149SAPE  H10R16482   5.826   4.167   9.926 -1.3639  0.0818  0.6720
  149SAPE  H10S16483   5.705   4.131   9.802  0.4639 -0.5821  0.4864
  149SAPE  C21116484   5.911   4.152   9.736 -0.5978  0.4103  0.2269
  149SAPE  H11R16485   6.009   4.176   9.780  0.5243  1.3445 -2.6811
  149SAPE  C21216486   5.892   4.156   9.601 -0.5228  0.0920 -0.0109
  149SAPE  H12R16487   5.982   4.177   9.542 -0.0177  1.9714  1.3780
  149SAPE  C21316488   5.766   4.120   9.523  0.2502 -0.1615 -0.9026
  149SAPE  H13R16489   5.746   4.194   9.443 -0.1196 -0.4268 -1.0577
  149SAPE  H13S16490   5.672   4.131   9.581  0.5415 -0.6945 -0.3166
  149SAPE  C21416491   5.765   3.990   9.450 -0.1015  0.8006 -0.1186
  149SAPE  H14R16492   5.690   3.921   9.489 -1.9996  1.9932 -1.5721
  149SAPE  C21516493   5.821   3.955   9.336  0.1320 -0.0778  0.1005
  149SAPE  H15R16494   5.812   3.848   9.309 -0.4036 -0.2702  1.0134
  149SAPE  C21616495   5.910   4.039   9.251  0.3511  0.1761  1.0628
  149SAPE  H16R16496   6.006   3.985   9.240 -1.0017 -1.5714 -3.2887
  149SAPE  H16S16497   5.931   4.137   9.300  0.0855  1.1039 -0.6013
  149SAPE  C21716498   5.866   4.070   9.110  0.3365 -0.0482 -0.3810
  149SAPE  H17R16499   5.770   4.126   9.106 -0.8734 -2.0926 -1.1384
  149SAPE  H17S16500   5.845   3.979   9.049 -2.9161  0.2004  0.2604
  149SAPE  C21816501   5.978   4.152   9.030 -0.6055  0.5745 -0.1239
  149SAPE  H18R16502   5.969   4.126   8.922 -1.1906 -3.3075  0.7781
  149SAPE  H18S16503   6.074   4.113   9.071 -0.6893  0.9098  0.3791
  149SAPE  C21916504   5.966   4.302   9.046 -0.3122 -0.2052 -0.7213
  149SAPE  H19R16505   6.065   4.353   9.056 -1.4743  2.1446 -0.7790
  149SAPE  H19S16506   5.902   4.325   9.134 -2.1028  2.7795 -2.7146
  149SAPE  C22016507   5.903   4.377   8.921  0.4107  0.0045  0.7752
  149SAPE  H20R16508   5.815   4.318   8.886  2.1809 -1.5206 -1.2022
  149SAPE  H20S16509   5.978   4.376   8.839 -0.7005  0.8048 -0.2613
  149SAPE  H20T16510   5.862   4.476   8.953 -0.1598 -0.3438  1.1331
  149SAPE   C3316511   6.447   3.732  10.680  0.3115 -0.5879 -0.0414
  149SAPE   H3X16512   6.486   3.782  10.771  1.0157  0.2501 -0.7892
  149SAPE   H3Y16513   6.498   3.633  10.684  0.9348 -0.2634  0.1168
  149SAPE   C3416514   6.289   3.732  10.675  0.7666  0.1744 -0.1000
  149SAPE   H4X16515   6.251   3.837  10.674  1.5937  0.4846 -2.8417
  149SAPE   H4Y16516   6.255   3.686  10.770  0.9401  0.2309 -0.0107
  149SAPE   C3516517   6.211   3.670  10.558  0.1807  0.3770 -0.0374
  149SAPE   H5X16518   6.223   3.730  10.466 -0.8283  0.9016  0.1702
  149SAPE   H5Y16519   6.104   3.685  10.583  0.0638 -1.0835  0.4244
  149SAPE   C3616520   6.242   3.521  10.538 -0.1247 -0.5535 -0.2583
  149SAPE   H6X16521   6.255   3.493  10.644 -1.3731 -1.3420 -0.3010
  149SAPE   H6Y16522   6.336   3.515  10.478  0.4229  0.2091  0.5224
  149SAPE   C3716523   6.124   3.436  10.484 -0.1711  0.0956 -0.6890
  149SAPE   H7X16524   6.056   3.435  10.573 -0.5660 -0.3041 -0.9915
  149SAPE   H7Y16525   6.152   3.329  10.471  2.4959  0.5379  1.0773
  149SAPE   C3816526   6.047   3.498  10.366 -0.1648 -0.1828 -0.3499
  149SAPE   H8X16527   5.995   3.592  10.397  2.8822  1.6043 -0.4595
  149SAPE   H8Y16528   5.976   3.416  10.344 -1.3239  1.0339 -1.1832
  149SAPE   C3916529   6.139   3.518  10.247 -0.1460  0.5504 -0.5306
  149SAPE   H9X16530   6.212   3.436  10.265  3.2826  3.4089 -0.9311
  149SAPE   H9Y16531   6.181   3.620  10.256 -0.4836  0.6945 -0.5813
  149SAPE  C31016532   6.067   3.508  10.108 -0.0279  0.1427 -0.2696
  149SAPE  H10X16533   5.983   3.580  10.110 -0.3850 -0.2869  0.1126
  149SAPE  H10Y16534   6.010   3.415  10.090  0.5100 -0.3773  0.6896
  149SAPE  C31116535   6.158   3.521   9.983  0.0875  1.3419  0.1252
  149SAPE  H11X16536   6.225   3.432   9.985 -0.8156  0.6629  0.5820
  149SAPE  H11Y16537   6.221   3.612   9.992 -0.3716  1.5007  1.9631
  149SAPE  C31216538   6.073   3.533   9.855 -0.3839  0.3516  0.4541
  149SAPE  H12X16539   6.004   3.618   9.871  2.0255  3.4526 -4.4424
  149SAPE  H12Y16540   6.021   3.437   9.833  0.3055  0.3417 -1.2578
  149SAPE  C31316541   6.161   3.560   9.734 -0.2919 -0.1323  0.2204
  149SAPE  H13X16542   6.229   3.474   9.711  1.0065  1.1694 -0.9444
  149SAPE  H13Y16543   6.232   3.640   9.763 -0.9671  0.7560 -0.5583
  149SAPE  C31416544   6.078   3.596   9.605  0.3084  0.8885  0.6964
  149SAPE  H14X16545   6.043   3.701   9.606 -2.8635 -0.1108  2.5467
  149SAPE  H14Y16546   5.993   3.525   9.613  0.3454  0.7397 -0.1320
  149SAPE  C31516547   6.147   3.564   9.471 -0.4198  0.0210  0.2458
  149SAPE  H15X16548   6.182   3.460   9.481  1.7604  0.5647 -1.4179
  149SAPE  H15Y16549   6.234   3.632   9.453 -1.0538 -0.0780 -3.3825
  149SAPE  C31616550   6.053   3.562   9.353  0.0847 -0.3240  0.3826
  149SAPE  H16X16551   5.988   3.648   9.326  0.7419 -0.1601 -0.6647
  149SAPE  H16Y16552   5.986   3.480   9.389 -1.4196  1.8119  2.6745
  149SAPE  C31716553   6.117   3.528   9.220  0.2179  0.4771 -0.0220
  149SAPE  H17X16554   6.207   3.465   9.238  1.6567  1.8713 -2.1420
  149SAPE  H17Y16555   6.155   3.623   9.176 -0.1653  0.5803 -0.1298
  149SAPE  C31816556   6.017   3.467   9.126  0.9001  0.6717  0.2346
  149SAPE  H18X16557   5.935   3.541   9.118  1.0900  1.0057  1.3008
  149SAPE  H18Y16558   5.969   3.375   9.164  1.2490 -1.3527 -3.9557
  149SAPE  H18Z16559   6.063   3.437   9.030  0.9620  0.6003  0.2883
  150SAPE     N16560   0.942   3.268  10.729  0.4714  0.3670  0.5830
  150SAPE   HN116561   0.991   3.306  10.813  0.5435 -1.5118  1.4002
  150SAPE   HN216562   0.940   3.331  10.646 -2.9726 -0.6500 -0.2121
  150SAPE   HN316563   0.842   3.249  10.750  0.4649  0.0132  0.2354
  150SAPE   C1216564   1.002   3.124  10.703 -0.2614 -0.1250  0.1966
  150SAPE  H12A16565   1.110   3.144  10.688 -0.3566  1.1255  1.0453
  150SAPE  H12B16566   0.960   3.087  10.607 -3.0060 -0.8063  1.6207
  150SAPE   C1116567   0.979   3.036  10.829  0.5643  0.1283  0.3503
  150SAPE  H11A16568   1.023   3.081  10.920  1.6122  0.7766 -0.4635
  150SAPE  H11B16569   1.029   2.938  10.812 -0.4842 -0.3539 -0.0211
  150SAPE     P16570   0.759   2.890  10.805  0.0472 -0.3031 -0.4868
  150SAPE   O1316571   0.781   2.773  10.898 -0.5876 -0.1005 -0.4010
  150SAPE   O1416572   0.621   2.937  10.785 -0.4103 -0.0782  0.3722
  150SAPE   O1216573   0.837   3.012  10.855 -0.0192  0.3141 -0.5546
  150SAPE   O1116574   0.817   2.861  10.658  0.5628  0.0122 -0.5716
  150SAPE    C116575   0.872   2.732  10.633  0.1739 -0.1610 -0.1122
  150SAPE    HA16576   0.928   2.687  10.717  0.6830  1.2576  0.3322
  150SAPE    HB16577   0.790   2.662  10.607 -0.1034 -0.0745  0.5164
  150SAPE    C216578   0.960   2.737  10.509 -1.3219 -0.0623 -0.3556
  150SAPE    HS16579   1.027   2.826  10.515 -0.7854 -0.4649 -0.2930
  150SAPE   O2116580   0.877   2.739  10.393 -0.1661  0.4111 -0.1486
  150SAPE   C2116581   0.905   2.823  10.299  0.5719 -0.5975  0.1964
  150SAPE   O2216582   0.991   2.905  10.289 -0.8541  0.4361 -0.1156
  150SAPE   C2216583   0.793   2.807  10.190 -0.9327 -0.2325 -0.7582
  150SAPE   H2R16584   0.785   2.698  10.170  0.4635 -0.1071 -2.1501
  150SAPE   H2S16585   0.697   2.845  10.229  0.0835  0.2161  1.3932
  150SAPE    C316586   1.058   2.614  10.508 -0.0577 -0.1472  0.1977
  150SAPE    HX16587   1.005   2.517  10.519  1.3566 -0.8125  1.2692
  150SAPE    HY16588   1.132   2.615  10.590  0.6675 -1.7303 -0.4120
  150SAPE   O3116589   1.148   2.613  10.395 -0.6470  0.1391  0.6771
  150SAPE   C3116590   1.247   2.698  10.387 -0.8894 -0.2444 -0.0307
  150SAPE   O3216591   1.269   2.788  10.464 -0.2185  0.3708 -0.1430
  150SAPE   C3216592   1.333   2.668  10.267  1.0289 -0.4101  0.5877
  150SAPE   H2X16593   1.286   2.580  10.219 -0.9605  1.2786 -0.6785
  150SAPE   H2Y16594   1.431   2.635  10.306  1.2939 -1.0616 -0.6317
  150SAPE   C2316595   0.837   2.863  10.049 -0.3413  0.2051 -0.2057
  150SAPE   H3R16596   0.877   2.965  10.066 -1.4095  0.4917  0.6938
  150SAPE   H3S16597   0.748   2.878   9.983 -0.4520  1.3449  0.1808
  150SAPE   C2416598   0.941   2.780   9.977 -0.3821  0.3126  0.6061
  150SAPE   H4R16599   1.032   2.768  10.038  0.0651  1.4914  0.1962
  150SAPE   H4S16600   0.974   2.840   9.889  0.4987 -1.5092 -0.3250
  150SAPE   C2516601   0.892   2.647   9.925  0.1769 -0.3310 -0.2183
  150SAPE   H5R16602   0.872   2.580  10.010  1.0653  0.2595  0.4601
  150SAPE   C2616603   0.877   2.612   9.794 -0.3545 -0.0175 -0.3331
  150SAPE   H6R16604   0.842   2.508   9.786 -2.1510  0.5131  0.2920
  150SAPE   C2716605   0.917   2.696   9.670 -1.0009  0.4582  0.3110
  150SAPE   H7R16606   0.950   2.802   9.680 -0.1091  0.0654  1.7496
  150SAPE   H7S16607   0.825   2.703   9.609 -1.2463 -1.7169  0.4273
  150SAPE   C2816608   1.040   2.643   9.605 -0.8264  0.1472  0.3379
  150SAPE   H8R16609   1.121   2.614   9.673  0.7033  0.0810 -1.4583
  150SAPE   C2916610   1.066   2.659   9.473 -0.3170  0.5431  0.9949
  150SAPE   H9R16611   1.164   2.622   9.440 -0.7376 -1.8101  2.2499
  150SAPE  C21016612   0.982   2.731   9.358 -0.6767 -0.6513 -0.2380
  150SAPE  H10R16613   0.995   2.841   9.359 -1.4306 -0.5564 -0.1238
  150SAPE  H10S16614   0.875   2.708   9.377 -0.1090 -0.9731  2.8877
  150SAPE  C21116615   1.019   2.670   9.222 -0.1823  0.9312  0.3460
  150SAPE  H11R16616   1.053   2.566   9.218 -1.7937  0.4367 -1.5411
  150SAPE  C21216617   1.003   2.719   9.099 -0.4700 -0.7861 -0.1012
  150SAPE  H12R16618   1.045   2.670   9.010 -0.4711 -0.2580 -0.3955
  150SAPE  C21316619   0.950   2.860   9.067  0.0830  0.9407 -0.5395
  150SAPE  H13R16620   0.947   2.913   9.165 -0.0984  0.5435 -0.3261
  150SAPE  H13S16621   0.843   2.851   9.040  0.7865  1.6513 -3.7028
  150SAPE  C21416622   1.042   2.927   8.971 -0.7816 -0.0709  0.4054
  150SAPE  H14R16623   1.136   2.964   9.015 -1.0677  2.1689 -0.8201
  150SAPE  C21516624   1.019   2.931   8.837 -0.2183 -0.0459 -0.0648
  150SAPE  H15R16625   1.091   2.988   8.776  1.0180 -0.0233  1.3663
  150SAPE  C21616626   0.903   2.871   8.762  0.3277  0.3678  0.0629
  150SAPE  H16R16627   0.825   2.827   8.828  0.1329  0.9124  0.1926
  150SAPE  H16S16628   0.943   2.796   8.689 -0.7245 -1.0884  0.9529
  150SAPE  C21716629   0.823   2.980   8.682 -0.4940  0.0285 -0.1685
  150SAPE  H17R16630   0.879   3.022   8.596  0.0359 -0.1651  0.0775
  150SAPE  H17S16631   0.793   3.061   8.753  3.1431  0.9270  0.4681
  150SAPE  C21816632   0.692   2.929   8.627  0.1717  0.4826 -0.0079
  150SAPE  H18R16633   0.650   3.019   8.578 -0.3917 -0.1538 -0.7053
  150SAPE  H18S16634   0.615   2.908   8.705 -1.1123  0.3906 -1.2698
  150SAPE  C21916635   0.704   2.814   8.516 -0.5397 -0.7060  0.1392
  150SAPE  H19R16636   0.808   2.820   8.477  0.0798 -0.5160  1.7836
  150SAPE  H19S16637   0.645   2.837   8.425  0.4573  0.9317 -0.1244
  150SAPE  C22016638   0.662   2.673   8.551  0.3747 -0.2436  0.2793
  150SAPE  H20R16639   0.678   2.657   8.660 -0.4881  0.2345  0.4818
  150SAPE  H20S16640   0.714   2.588   8.502 -0.4938 -0.5346 -0.1348
  150SAPE  H20T16641   0.553   2.655   8.541  0.8401 -3.9654  1.1779
  150SAPE   C3316642   1.343   2.781  10.171 -1.2550  0.0352 -0.3425
  150SAPE   H3X16643   1.393   2.863  10.226  1.1335 -1.9571  0.5579
  150SAPE   H3Y16644   1.240   2.815  10.146 -1.7448  0.7673  2.4922
  150SAPE   C3416645   1.412   2.746  10.039 -0.0217 -0.4515  0.7646
  150SAPE   H4X16646   1.379   2.647  10.002  0.3523  0.0465 -0.9977
  150SAPE   H4Y16647   1.521   2.750  10.060  0.3852  0.9869 -1.4475
  150SAPE   C3516648   1.366   2.836   9.920  0.4177  0.0235 -0.2696
  150SAPE   H5X16649   1.399   2.940   9.942 -0.0187 -0.1477  1.1915
  150SAPE   H5Y16650   1.256   2.825   9.909  0.3400  0.1177  0.4191
  150SAPE   C3616651   1.432   2.798   9.786 -0.0241  0.2959  0.0249
  150SAPE   H6X16652   1.418   2.688   9.776  1.8516  0.1008 -0.6725
  150SAPE   H6Y16653   1.542   2.806   9.790  0.2652 -2.1964 -1.5404
  150SAPE   C3716654   1.388   2.875   9.665 -0.1766 -1.0973  0.3402
  150SAPE   H7X16655   1.418   2.982   9.670  0.8497 -1.3316 -0.7797
  150SAPE   H7Y16656   1.279   2.868   9.643 -0.4236  1.7719  0.5271
  150SAPE   C3816657   1.468   2.826   9.541  0.0116  0.4422  0.5435
  150SAPE   H8X16658   1.438   2.720   9.527  0.9672  0.0142  1.6508
  150SAPE   H8Y16659   1.573   2.828   9.575  0.5180 -2.1758 -0.7111
  150SAPE   C3916660   1.440   2.907   9.412 -0.7268 -0.4974  0.0889
  150SAPE   H9X16661   1.443   3.013   9.445 -2.7237 -0.5069  0.3423
  150SAPE   H9Y16662   1.342   2.897   9.362  0.1080  1.6322 -2.1008
  150SAPE  C31016663   1.558   2.892   9.316 -0.8209  0.0848  0.5330
  150SAPE  H10X16664   1.587   2.785   9.315  2.1144  0.8443 -1.2647
  150SAPE  H10Y16665   1.650   2.950   9.339 -1.0157  1.3331 -1.7179
  150SAPE  C31116666   1.513   2.910   9.174  0.1363  0.1857 -0.3313
  150SAPE  H11X16667   1.407   2.878   9.162 -0.1605  0.7602  0.6513
  150SAPE  H11Y16668   1.582   2.852   9.109  0.7477  3.4629 -2.7313
  150SAPE  C31216669   1.504   3.062   9.132  0.4691  0.1270 -0.0077
  150SAPE  H12X16670   1.497   3.042   9.023  0.8887  0.2949 -0.0662
  150SAPE  H12Y16671   1.595   3.117   9.167 -0.4345  1.1667  0.7428
  150SAPE  C31316672   1.375   3.132   9.178  0.2014 -0.0651 -0.5189
  150SAPE  H13X16673   1.358   3.126   9.288 -0.6766  0.8600 -0.5942
  150SAPE  H13Y16674   1.293   3.077   9.126  1.5665 -3.5612  0.8590
  150SAPE  C31416675   1.375   3.279   9.142  0.1931  0.6768 -0.0252
  150SAPE  H14X16676   1.470   3.327   9.175 -0.1736  0.9804  0.6104
  150SAPE  H14Y16677   1.294   3.339   9.189  2.4213  3.3472  0.5234
  150SAPE  C31516678   1.344   3.293   8.989  0.1349 -1.3028 -0.0120
  150SAPE  H15X16679   1.422   3.242   8.928 -0.3032  2.0711 -3.6074
  150SAPE  H15Y16680   1.348   3.400   8.958  3.4463 -1.4854 -0.3876
  150SAPE  C31616681   1.202   3.265   8.947 -0.6893  0.5660  0.1607
  150SAPE  H16X16682   1.135   3.297   9.029  1.2091  3.7137  0.5506
  150SAPE  H16Y16683   1.183   3.156   8.933 -0.6114  0.6096 -0.3261
  150SAPE  C31716684   1.153   3.344   8.827  0.1265 -0.1409 -0.7586
  150SAPE  H17X16685   1.230   3.322   8.750  0.2160 -1.9042 -0.1785
  150SAPE  H17Y16686   1.156   3.454   8.842 -3.4200 -0.0871 -0.0074
  150SAPE  C31816687   1.013   3.313   8.772  0.0451 -0.7213 -0.3731
  150SAPE  H18X16688   0.929   3.337   8.842  0.4092 -0.3231 -0.0738
  150SAPE  H18Y16689   1.000   3.206   8.743  0.2740 -1.4223  1.9840
  150SAPE  H18Z16690   1.006   3.380   8.684 -1.1522  1.5687  1.3878
  151SAPE     N16691   5.101   0.094  10.475  0.0492 -0.1319 -0.1747
  151SAPE   HN116692   5.075   0.064  10.378 -3.5942 -0.1135  0.7060
  151SAPE   HN216693   5.128   0.193  10.461 -2.1402  0.3587 -1.3171
  151SAPE   HN316694   5.186   0.038  10.492 -0.3645 -0.2838  1.4464
  151SAPE   C1216695   4.994   0.077  10.577 -0.4002 -0.4537  0.5519
  151SAPE  H12A16696   5.033   0.106  10.677  1.7539 -0.5687 -0.2416
  151SAPE  H12B16697   4.970  -0.031  10.570 -2.5725  0.0528 -0.4363
  151SAPE   C1116698   4.872   0.158  10.535 -0.0808 -0.3573 -0.1084
  151SAPE  H11A16699   4.905   0.264  10.522  0.1854 -0.3958  0.2404
  151SAPE  H11B16700   4.790   0.153  10.610  1.5342  2.7298  1.9757
  151SAPE     P16701   4.733  -0.025  10.398 -0.2166  0.0688 -0.4357
  151SAPE   O1316702   4.829  -0.132  10.355  0.0868 -0.0749 -0.1139
  151SAPE   O1416703   4.656  -0.046  10.522 -0.0609 -0.3518  0.0668
  151SAPE   O1216704   4.817   0.107  10.412 -0.0802 -0.0261  0.1730
  151SAPE   O1116705   4.626   0.009  10.286 -0.2971  0.2595  0.6259
  151SAPE    C116706   4.608   0.136  10.222  0.1023 -1.0729  0.5623
  151SAPE    HA16707   4.507   0.141  10.177 -0.1518  2.3667  1.4144
  151SAPE    HB16708   4.623   0.217  10.296  1.4139 -1.7886  1.0989
  151SAPE    C216709   4.710   0.163  10.100  0.3291  0.2773  0.1224
  151SAPE    HS16710   4.804   0.190  10.152 -0.6132  2.2255  0.8800
  151SAPE   O2116711   4.664   0.283  10.032  0.3951  0.2636  0.1711
  151SAPE   C2116712   4.760   0.354   9.986 -0.7509  0.0193  0.0435
  151SAPE   O2216713   4.882   0.331   9.991 -0.4143  0.0494 -0.1477
  151SAPE   C2216714   4.703   0.478   9.924 -0.4391  0.2215  0.6604
  151SAPE   H2R16715   4.599   0.465   9.885 -0.4619 -0.1020  0.8267
  151SAPE   H2S16716   4.688   0.550  10.007 -1.1104  1.9002 -0.8809
  151SAPE    C316717   4.721   0.045  10.007  0.0846  0.1754  0.0726
  151SAPE    HX16718   4.617   0.013   9.982  0.6765 -0.5130 -1.5497
  151SAPE    HY16719   4.761  -0.041  10.065 -0.3692 -0.6911 -0.8747
  151SAPE   O3116720   4.793   0.071   9.885  0.3227  0.3064  0.3462
  151SAPE   C3116721   4.922   0.042   9.898  0.3966 -0.4222  0.2437
  151SAPE   O3216722   4.970  -0.002  10.000  0.0696 -0.2223  0.7020
  151SAPE   C3216723   5.001   0.078   9.769 -0.5308  0.4778  0.0027
  151SAPE   H2X16724   4.981   0.187   9.756  0.8678  0.7971  0.5040
  151SAPE   H2Y16725   4.951   0.026   9.684  2.2797 -3.6620  0.7559
  151SAPE   C2316726   4.792   0.559   9.834  0.7347  0.3599  0.0272
  151SAPE   H3R16727   4.889   0.565   9.887 -0.1956  3.4335  1.5486
  151SAPE   H3S16728   4.750   0.661   9.818 -3.1843 -1.0572  0.6563
  151SAPE   C2416729   4.820   0.484   9.700 -0.3637  0.5786  0.7262
  151SAPE   H4R16730   4.721   0.450   9.663 -0.5377  1.5858  0.2535
  151SAPE   H4S16731   4.879   0.392   9.718  0.8735  1.1543 -0.2658
  151SAPE   C2516732   4.872   0.573   9.592 -0.4371  0.0545 -0.1110
  151SAPE   H5R16733   4.798   0.626   9.529  0.7832  0.7221 -1.0037
  151SAPE   C2616734   5.001   0.590   9.563 -0.9734 -0.1287  0.6206
  151SAPE   H6R16735   5.037   0.646   9.475  2.3841  0.2034  2.1224
  151SAPE   C2716736   5.119   0.520   9.635  0.3881  0.5895  0.2543
  151SAPE   H7R16737   5.121   0.411   9.610  1.1280  0.7915 -0.5907
  151SAPE   H7S16738   5.096   0.527   9.743 -0.5782 -0.3366  0.1275
  151SAPE   C2816739   5.260   0.566   9.642 -0.0186  0.1461  0.1620
  151SAPE   H8R16740   5.293   0.594   9.743 -0.1532  1.6495 -0.2097
  151SAPE   C2916741   5.352   0.559   9.544 -0.1363  0.2403 -0.2313
  151SAPE   H9R16742   5.448   0.611   9.562  0.8967 -1.0315 -1.8720
  151SAPE  C21016743   5.315   0.509   9.406 -0.5227  0.0087  0.0389
  151SAPE  H10R16744   5.250   0.588   9.364 -1.2841  0.6938  2.3936
  151SAPE  H10S16745   5.249   0.421   9.419  1.0086 -1.1950 -0.2893
  151SAPE  C21116746   5.434   0.460   9.323  0.4367 -0.3177 -0.3719
  151SAPE  H11R16747   5.492   0.380   9.372  1.8333  0.0285 -1.4331
  151SAPE  C21216748   5.469   0.525   9.212 -0.5567  0.2456  0.7105
  151SAPE  H12R16749   5.556   0.490   9.154 -1.6223  0.3065 -0.9496
  151SAPE  C21316750   5.400   0.638   9.137  0.6127  0.2700  0.0721
  151SAPE  H13R16751   5.470   0.724   9.140  1.3265 -0.0848 -3.4536
  151SAPE  H13S16752   5.314   0.675   9.196 -0.3467  1.7879 -2.2164
  151SAPE  C21416753   5.358   0.589   8.998 -0.3157  0.2674 -0.1813
  151SAPE  H14R16754   5.300   0.495   8.997 -3.0617  1.8481  1.2017
  151SAPE  C21516755   5.362   0.665   8.884  0.1389  0.2024  0.9688
  151SAPE  H15R16756   5.322   0.620   8.792  0.1425 -1.9969  2.0143
  151SAPE  C21616757   5.406   0.801   8.869 -0.1166 -0.5087  0.3581
  151SAPE  H16R16758   5.432   0.837   8.971  0.2807 -1.0796  0.4589
  151SAPE  H16S16759   5.320   0.865   8.838 -1.0007 -2.7950 -2.1170
  151SAPE  C21716760   5.527   0.815   8.777  0.2456 -0.3200 -0.5222
  151SAPE  H17R16761   5.501   0.777   8.675 -3.0885  1.7180 -0.5043
  151SAPE  H17S16762   5.612   0.757   8.818 -0.0829 -2.4974 -2.7377
  151SAPE  C21816763   5.573   0.961   8.749  0.4211 -0.0492  0.5551
  151SAPE  H18R16764   5.492   1.011   8.691 -0.7967 -2.0904  0.4360
  151SAPE  H18S16765   5.664   0.951   8.686  0.4964  0.7159  0.5434
  151SAPE  C21916766   5.603   1.050   8.870 -0.0579 -0.7720  0.1188
  151SAPE  H19R16767   5.695   1.016   8.924  0.9369  2.5688  0.6316
  151SAPE  H19S16768   5.519   1.043   8.942  0.7136  0.9039  1.2194
  151SAPE  C22016769   5.627   1.187   8.810 -0.2610 -1.3981 -0.2360
  151SAPE  H20R16770   5.679   1.257   8.878  0.1323 -0.5729 -1.3636
  151SAPE  H20S16771   5.533   1.244   8.794  1.3267  1.9212  1.5945
  151SAPE  H20T16772   5.680   1.186   8.712 -0.7852 -0.7489 -0.5278
  151SAPE   C3316773   5.155   0.045   9.759 -0.5012 -0.2384 -0.2748
  151SAPE   H3X16774   5.165  -0.065   9.773 -2.8237 -0.7239 -2.2583
  151SAPE   H3Y16775   5.184   0.086   9.858  0.5955  0.0295 -0.6988
  151SAPE   C3416776   5.229   0.102   9.643  0.1593 -0.6232  0.5544
  151SAPE   H4X16777   5.203   0.209   9.658  0.3241 -0.6851  1.2989
  151SAPE   H4Y16778   5.187   0.062   9.548  2.5265  1.4393 -1.4395
  151SAPE   C3516779   5.373   0.064   9.627  0.2576 -0.6262  0.3857
  151SAPE   H5X16780   5.382  -0.043   9.652 -0.5274 -0.4703  1.3591
  151SAPE   H5Y16781   5.428   0.124   9.703 -0.2517 -0.5207  0.6797
  151SAPE   C3616782   5.431   0.080   9.479  0.6394 -0.8445 -0.4499
  151SAPE   H6X16783   5.541   0.068   9.469  1.0808  3.7770 -2.1290
  151SAPE   H6Y16784   5.416   0.186   9.450  1.4594 -0.7448 -0.5046
  151SAPE   C3716785   5.357   0.001   9.367  0.0963  0.7301 -0.5224
  151SAPE   H7X16786   5.252   0.035   9.356 -0.4017 -0.9427 -1.1080
  151SAPE   H7Y16787   5.364  -0.108   9.387 -1.1407  0.4608 -1.4748
  151SAPE   C3816788   5.414   0.031   9.231  0.7387 -0.7772 -0.2627
  151SAPE   H8X16789   5.521   0.000   9.231  1.3764  1.4001 -0.2914
  151SAPE   H8Y16790   5.394   0.138   9.214 -0.6415 -1.1061 -0.7680
  151SAPE   C3916791   5.343  -0.044   9.122 -0.6362 -0.1389  0.2426
  151SAPE   H9X16792   5.232  -0.031   9.121 -0.4941  1.1505 -0.7571
  151SAPE   H9Y16793   5.351  -0.154   9.137  1.2312 -0.1482 -0.6909
  151SAPE  C31016794   5.396  -0.009   8.985  0.2545  0.7279  0.2721
  151SAPE  H10X16795   5.364  -0.092   8.918 -1.3043  1.4136  0.1485
  151SAPE  H10Y16796   5.507  -0.007   8.975  0.0632  0.7401 -1.9890
  151SAPE  C31116797   5.337   0.120   8.922  0.3462 -0.6630 -0.6148
  151SAPE  H11X16798   5.396   0.208   8.958  0.1992 -0.9347  0.3222
  151SAPE  H11Y16799   5.230   0.124   8.952 -0.0012 -3.4780 -1.3435
  151SAPE  C31216800   5.352   0.130   8.772 -0.0444 -0.1937 -0.0732
  151SAPE  H12X16801   5.287   0.052   8.728 -2.7457  2.3918 -0.8685
  151SAPE  H12Y16802   5.458   0.115   8.744 -0.4487 -2.9869 -0.2195
  151SAPE  C31316803   5.306   0.267   8.717  0.5465 -0.2086  0.2948
  151SAPE  H13X16804   5.317   0.288   8.608  0.4966 -3.6730 -0.4359
  151SAPE  H13Y16805   5.373   0.343   8.761  0.1604 -0.1419  0.7741
  151SAPE  C31416806   5.162   0.314   8.755 -0.0503  1.0797 -0.3868
  151SAPE  H14X16807   5.153   0.407   8.694 -0.9570  1.6087  0.5371
  151SAPE  H14Y16808   5.163   0.338   8.864 -0.8996  0.2535 -0.1943
  151SAPE  C31516809   5.061   0.213   8.711 -0.2589  0.8656  0.1894
  151SAPE  H15X16810   5.051   0.127   8.781  1.4130 -0.9410 -1.7248
  151SAPE  H15Y16811   5.096   0.165   8.617 -2.6548  1.0887 -0.8565
  151SAPE  C31616812   4.917   0.263   8.691 -0.2176  0.4642 -0.0825
  151SAPE  H16X16813   4.883   0.333   8.770  0.6586  0.3335  0.4145
  151SAPE  H16Y16814   4.839   0.185   8.708  0.3052  0.3816  2.1386
  151SAPE  C31716815   4.886   0.335   8.556  0.1897 -0.6147  0.1782
  151SAPE  H17X16816   4.950   0.289   8.478  0.3639  2.0057 -1.2598
  151SAPE  H17Y16817   4.925   0.438   8.570  0.6224 -0.6833 -0.5218
  151SAPE  C31816818   4.740   0.345   8.514  0.2582 -0.0296  0.4608
  151SAPE  H18X16819   4.709   0.245   8.477  1.4332 -0.1291 -0.3077
  151SAPE  H18Y16820   4.730   0.409   8.423  2.8498 -1.8414 -1.1789
  151SAPE  H18Z16821   4.672   0.377   8.595  0.6249 -0.9129  1.1214
  152SAPE     N16822   6.602   6.222  10.527 -0.0897 -0.2856 -0.0601
  152SAPE   HN116823   6.579   6.231  10.426 -1.5932  0.3354  0.3318
  152SAPE   HN216824   6.702   6.251  10.534 -0.6558  1.4097  1.2986
  152SAPE   HN316825   6.582   6.122  10.545 -0.8350 -0.1157  0.0582
  152SAPE   C1216826   6.518   6.305  10.620 -0.0891  0.3076 -0.0328
  152SAPE  H12A16827   6.555   6.293  10.724 -0.7800  2.9930  0.5654
  152SAPE  H12B16828   6.412   6.272  10.611 -0.1407  0.0400  1.4689
  152SAPE   C1116829   6.531   6.449  10.570 -0.4056  0.4868 -0.1189
  152SAPE  H11A16830   6.456   6.503  10.631 -0.3898  0.3678  0.0069
  152SAPE  H11B16831   6.508   6.456  10.462  0.7445  2.3393 -0.2595
  152SAPE     P16832   6.687   6.652  10.596 -0.4690 -0.0129  0.1389
  152SAPE   O1316833   6.576   6.729  10.656 -0.7968  0.6306  0.4778
  152SAPE   O1416834   6.818   6.678  10.656 -0.0441 -0.1177 -0.0793
  152SAPE   O1216835   6.663   6.499  10.596 -0.2243  0.3844 -0.1871
  152SAPE   O1116836   6.687   6.698  10.438  0.3773  0.3226 -0.3401
  152SAPE    C116837   6.771   6.616  10.355  0.9039 -0.2392 -0.4292
  152SAPE    HA16838   6.879   6.641  10.356 -0.1516  4.7763 -0.9860
  152SAPE    HB16839   6.767   6.506  10.375  0.9776 -0.2931 -0.7047
  152SAPE    C216840   6.717   6.643  10.204  0.4277 -0.7494 -0.0332
  152SAPE    HS16841   6.769   6.571  10.137 -2.6654 -2.3740 -0.8111
  152SAPE   O2116842   6.752   6.773  10.154  0.5877  0.1431 -0.2682
  152SAPE   C2116843   6.874   6.795  10.133 -0.5378 -0.3027 -0.0698
  152SAPE   O2216844   6.963   6.717  10.144 -0.4185 -0.0029 -0.1685
  152SAPE   C2216845   6.893   6.936  10.080  0.1511  0.2104  0.9145
  152SAPE   H2R16846   6.794   6.987  10.089 -1.2660 -1.9911 -1.2104
  152SAPE   H2S16847   6.947   6.997  10.154  0.1804  0.8039  0.4119
  152SAPE    C316848   6.568   6.619  10.186  0.2603 -0.0245  0.0768
  152SAPE    HX16849   6.520   6.716  10.214 -0.5651 -0.5800  0.6334
  152SAPE    HY16850   6.540   6.552  10.270  2.3144 -0.6844  0.2532
  152SAPE   O3116851   6.520   6.591  10.046 -0.0327 -0.2184  0.7048
  152SAPE   C3116852   6.541   6.467  10.011 -0.0614  0.7131  0.3497
  152SAPE   O3216853   6.592   6.380  10.080 -0.4776 -0.4376 -0.0062
  152SAPE   C3216854   6.499   6.454   9.867 -0.4460 -0.7214  0.2279
  152SAPE   H2X16855   6.403   6.510   9.862 -0.3483 -0.6107 -0.4449
  152SAPE   H2Y16856   6.487   6.346   9.843 -1.5343 -0.7143  0.7186
  152SAPE   C2316857   6.954   6.948   9.937 -0.7516  0.0430 -0.3867
  152SAPE   H3R16858   7.049   6.890   9.939  0.5890  2.1980  0.4587
  152SAPE   H3S16859   6.977   7.055   9.920 -0.9013  0.2734  0.7910
  152SAPE   C2416860   6.854   6.907   9.832 -0.2010 -0.3591 -0.1068
  152SAPE   H4R16861   6.801   6.997   9.794  0.6931 -0.2877 -1.2325
  152SAPE   H4S16862   6.781   6.840   9.880  0.3049 -1.2871 -0.6191
  152SAPE   C2516863   6.921   6.835   9.721 -0.6166 -0.0488 -0.3494
  152SAPE   H5R16864   7.018   6.786   9.742 -1.6498 -2.2837 -0.6190
  152SAPE   C2616865   6.871   6.819   9.597  0.0476 -0.5665 -0.9026
  152SAPE   H6R16866   6.933   6.761   9.527 -0.6535 -1.3254 -0.9034
  152SAPE   C2716867   6.749   6.875   9.545  0.2599 -0.2375  0.8393
  152SAPE   H7R16868   6.686   6.917   9.625  0.5277 -0.9723  1.4417
  152SAPE   H7S16869   6.677   6.808   9.493 -1.5076 -0.5921  3.6481
  152SAPE   C2816870   6.786   6.980   9.451 -0.0351 -0.1002 -0.5606
  152SAPE   H8R16871   6.845   7.058   9.500 -0.1148  0.5540 -1.4861
  152SAPE   C2916872   6.758   6.997   9.321  0.6931  0.0170  0.1653
  152SAPE   H9R16873   6.790   7.084   9.262 -0.9377  1.2020  0.9725
  152SAPE  C21016874   6.669   6.901   9.242 -0.3327  0.1235  0.6962
  152SAPE  H10R16875   6.616   6.952   9.159 -0.9300  0.8522  1.5205
  152SAPE  H10S16876   6.587   6.868   9.309 -0.0298  2.1150  2.0731
  152SAPE  C21116877   6.753   6.789   9.196  0.1406  0.0968  0.0393
  152SAPE  H11R16878   6.828   6.762   9.271  0.3713 -0.8032 -0.5150
  152SAPE  C21216879   6.742   6.718   9.087  0.2345  0.7697  0.1769
  152SAPE  H12R16880   6.817   6.639   9.071 -0.0633  0.7487 -1.1691
  152SAPE  C21316881   6.646   6.746   8.972  0.0361  0.5273 -0.4444
  152SAPE  H13R16882   6.636   6.856   8.963 -2.5474  0.3900  0.3097
  152SAPE  H13S16883   6.554   6.688   8.997  0.8986  0.0150  1.6327
  152SAPE  C21416884   6.704   6.677   8.845 -0.3934 -0.1879 -0.2441
  152SAPE  H14R16885   6.795   6.617   8.855 -0.6695 -0.6009 -0.1894
  152SAPE  C21516886   6.667   6.704   8.714  0.7162  0.4329 -0.0573
  152SAPE  H15R16887   6.726   6.662   8.632 -1.8805 -2.6522 -0.4154
  152SAPE  C21616888   6.557   6.799   8.676 -0.1611 -0.1000 -0.4349
  152SAPE  H16R16889   6.589   6.906   8.675  1.3302 -0.5226  0.0866
  152SAPE  H16S16890   6.484   6.805   8.760 -0.1507 -2.4461 -0.2186
  152SAPE  C21716891   6.478   6.756   8.554  0.1520  0.3158  0.6399
  152SAPE  H17R16892   6.462   6.646   8.563  0.5698  0.2753  0.8837
  152SAPE  H17S16893   6.533   6.774   8.459  3.6834 -2.3341  2.0800
  152SAPE  C21816894   6.344   6.828   8.535  0.0237 -0.1223 -0.4104
  152SAPE  H18R16895   6.276   6.829   8.623 -0.8136 -1.5922 -1.0130
  152SAPE  H18S16896   6.302   6.767   8.452 -0.7863 -0.1974  0.0495
  152SAPE  C21916897   6.368   6.975   8.496  0.3422 -0.3896 -0.0799
  152SAPE  H19R16898   6.433   6.981   8.406  0.3195 -3.9754 -0.4373
  152SAPE  H19S16899   6.429   7.026   8.574  0.2868  1.1589 -1.0311
  152SAPE  C22016900   6.236   7.051   8.479 -0.4180  0.1331 -0.5164
  152SAPE  H20R16901   6.166   7.012   8.402  1.3433 -0.5280 -1.8003
  152SAPE  H20S16902   6.244   7.161   8.467 -1.0347  0.0894 -1.3699
  152SAPE  H20T16903   6.183   7.035   8.576 -0.0051 -1.3733 -0.5315
  152SAPE   C3316904   6.612   6.508   9.767  0.4091 -0.2676  0.4074
  152SAPE   H3X16905   6.703   6.458   9.805  0.4929 -1.3245 -1.1672
  152SAPE   H3Y16906   6.618   6.618   9.779  1.1901 -0.3079  0.4125
  152SAPE   C3416907   6.590   6.455   9.621  0.3184 -0.1016  0.0325
  152SAPE   H4X16908   6.511   6.507   9.563 -1.0198 -1.2180  0.8255
  152SAPE   H4Y16909   6.560   6.348   9.619 -0.6169  0.1699 -1.1913
  152SAPE   C3516910   6.718   6.475   9.538 -0.4326  0.0981  0.0383
  152SAPE   H5X16911   6.795   6.397   9.553  1.0052  0.9485 -2.5195
  152SAPE   H5Y16912   6.760   6.571   9.574  0.7238 -0.9393  1.5188
  152SAPE   C3616913   6.684   6.481   9.384 -0.5706 -0.1318  0.3707
  152SAPE   H6X16914   6.777   6.490   9.324  0.5105 -3.9955  1.4013
  152SAPE   H6Y16915   6.614   6.565   9.362 -0.8973 -0.8056 -1.2647
  152SAPE   C3716916   6.614   6.353   9.334 -0.0148  0.3484 -0.0030
  152SAPE   H7X16917   6.514   6.330   9.376 -0.4493 -2.6334 -2.5220
  152SAPE   H7Y16918   6.683   6.269   9.358  1.9641  1.7814 -0.4854
  152SAPE   C3816919   6.583   6.372   9.183  0.2228 -0.4906 -0.1660
  152SAPE   H8X16920   6.678   6.357   9.128  0.6601 -1.3688  0.8111
  152SAPE   H8Y16921   6.539   6.474   9.172  1.7527  0.2010  0.0009
  152SAPE   C3916922   6.472   6.284   9.128  0.2909 -0.0059 -0.1562
  152SAPE   H9X16923   6.383   6.313   9.188 -0.0313 -3.1748  0.9835
  152SAPE   H9Y16924   6.488   6.176   9.148  3.5777  0.6045  0.7463
  152SAPE  C31016925   6.445   6.311   8.980 -0.6062  0.6164 -1.0314
  152SAPE  H10X16926   6.530   6.273   8.918 -0.2981  1.4986 -1.1634
  152SAPE  H10Y16927   6.433   6.421   8.983 -2.5998  0.4379 -1.7804
  152SAPE  C31116928   6.328   6.229   8.932 -0.0321  0.6007  0.2759
  152SAPE  H11X16929   6.241   6.246   8.998  0.3123  0.3131  0.8116
  152SAPE  H11Y16930   6.364   6.124   8.946 -2.0054 -0.1774 -0.3372
  152SAPE  C31216931   6.302   6.259   8.783  0.3095 -0.2983 -0.3773
  152SAPE  H12X16932   6.338   6.362   8.760 -2.2015  0.9731  1.1468
  152SAPE  H12Y16933   6.194   6.246   8.759 -0.0921 -1.3767  1.8648
  152SAPE  C31316934   6.377   6.163   8.687  0.2502 -0.7596  0.4496
  152SAPE  H13X16935   6.482   6.176   8.721  0.1424 -0.5660  0.7114
  152SAPE  H13Y16936   6.372   6.213   8.588  1.1973 -2.4882 -0.4897
  152SAPE  C31416937   6.314   6.019   8.673 -0.3030 -0.8125 -0.9726
  152SAPE  H14X16938   6.215   6.018   8.621  0.6823  2.5759 -3.1167
  152SAPE  H14Y16939   6.299   5.976   8.774  0.2963 -1.6882 -1.2548
  152SAPE  C31516940   6.407   5.928   8.595 -0.1185  0.3078  0.2519
  152SAPE  H15X16941   6.375   5.823   8.609  1.5146 -0.0968  1.0658
  152SAPE  H15Y16942   6.510   5.930   8.637  0.5170  2.7543 -1.3236
  152SAPE  C31616943   6.424   5.953   8.450  0.0650  0.2105  0.3968
  152SAPE  H16X16944   6.452   6.059   8.434 -0.6732  0.0985 -1.8226
  152SAPE  H16Y16945   6.329   5.936   8.394  0.0679  0.4693  0.3111
  152SAPE  C31716946   6.532   5.867   8.375  0.3618  0.1485 -0.0121
  152SAPE  H17X16947   6.477   5.778   8.339 -2.7814  1.9162  0.1782
  152SAPE  H17Y16948   6.607   5.836   8.451  1.1113 -1.5295 -1.4103
  152SAPE  C31816949   6.595   5.944   8.263  0.2534 -0.7464 -0.5054
  152SAPE  H18X16950   6.561   6.050   8.256  0.0951 -0.8598 -1.5137
  152SAPE  H18Y16951   6.580   5.893   8.166 -0.9038  0.1890 -0.8376
  152SAPE  H18Z16952   6.704   5.949   8.278  0.3391  0.2909 -1.4053
  153SAPE     N16953   6.188   0.647  10.683 -0.2969  0.7275 -0.1139
  153SAPE   HN116954   6.272   0.595  10.717  1.4690  1.2516 -3.4577
  153SAPE   HN216955   6.117   0.621  10.755 -0.4455  1.0849 -0.1329
  153SAPE   HN316956   6.166   0.626  10.584  0.2400  1.4786 -0.3962
  153SAPE   C1216957   6.230   0.791  10.682 -0.2696 -0.3652 -0.2608
  153SAPE  H12A16958   6.212   0.825  10.787  1.0845 -0.1002 -0.1152
  153SAPE  H12B16959   6.162   0.846  10.614  1.5720 -0.3068 -2.0945
  153SAPE   C1116960   6.379   0.813  10.651  0.2003  0.3080 -0.1412
  153SAPE  H11A16961   6.394   0.922  10.635  1.3860  0.3771  1.3050
  153SAPE  H11B16962   6.396   0.761  10.555  3.3132 -0.0510  0.5391
  153SAPE     P16963   6.555   0.641  10.752  0.6380  0.0111  0.7203
  153SAPE   O1316964   6.623   0.633  10.882  0.1094  0.1678  0.3027
  153SAPE   O1416965   6.474   0.521  10.718 -1.0137 -0.7268 -0.1708
  153SAPE   O1216966   6.453   0.760  10.759  0.5869  0.3177  0.1589
  153SAPE   O1116967   6.640   0.668  10.636  0.3326  0.1589 -0.1036
  153SAPE    C116968   6.705   0.791  10.603 -0.2562  0.3830 -0.0402
  153SAPE    HA16969   6.667   0.881  10.655  0.3713  1.5863 -1.6311
  153SAPE    HB16970   6.813   0.786  10.631 -0.5417 -0.7408  0.8990
  153SAPE    C216971   6.720   0.805  10.454 -0.9156  0.5799 -0.3040
  153SAPE    HS16972   6.812   0.861  10.427 -0.8591  1.1695  1.0635
  153SAPE   O2116973   6.602   0.854  10.389 -0.2664  0.0298  0.0072
  153SAPE   C2116974   6.584   0.982  10.387 -0.1179  0.6971  0.1045
  153SAPE   O2216975   6.657   1.064  10.447  0.3174 -0.0573 -0.1139
  153SAPE   C2216976   6.464   1.032  10.306 -0.1923  0.0000  0.5826
  153SAPE   H2R16977   6.374   0.991  10.356 -1.9336 -0.6750 -2.9099
  153SAPE   H2S16978   6.462   1.143  10.297  3.3018  0.1313  0.6582
  153SAPE    C316979   6.759   0.669  10.388 -0.1014  0.3614 -0.4017
  153SAPE    HX16980   6.673   0.601  10.405 -0.7898  0.6129 -2.6203
  153SAPE    HY16981   6.847   0.636  10.446 -0.0157  1.1541 -0.0690
  153SAPE   O3116982   6.790   0.687  10.249 -0.0432 -0.0333 -0.3968
  153SAPE   C3116983   6.702   0.642  10.159 -0.1922  0.1849 -0.0676
  153SAPE   O3216984   6.591   0.592  10.181 -0.5016  0.0412 -0.3818
  153SAPE   C3216985   6.763   0.675  10.026 -0.0732  0.0933 -0.9535
  153SAPE   H2X16986   6.868   0.642  10.018  0.5099  1.2462  1.4919
  153SAPE   H2Y16987   6.768   0.786  10.021 -0.0484  0.0733 -1.4663
  153SAPE   C2316988   6.458   0.971  10.158  0.4233  0.8504 -0.1705
  153SAPE   H3R16989   6.363   0.993  10.106  0.2932 -1.1996 -0.8478
  153SAPE   H3S16990   6.453   0.861  10.168  2.6965  0.7256 -0.0230
  153SAPE   C2416991   6.579   1.012  10.064 -0.1166  0.2263 -0.2637
  153SAPE   H4R16992   6.580   0.949   9.973  1.3606 -1.0762  0.6220
  153SAPE   H4S16993   6.672   0.984  10.117 -0.5007  0.1544  0.3803
  153SAPE   C2516994   6.586   1.157  10.032  1.0096 -0.5623 -0.1195
  153SAPE   H5R16995   6.578   1.221  10.121 -0.5977  0.6548 -1.1167
  153SAPE   C2616996   6.595   1.216   9.908  0.9322  0.4752 -0.2511
  153SAPE   H6R16997   6.605   1.325   9.907  2.3622  0.3549 -0.6290
  153SAPE   C2716998   6.609   1.150   9.774  0.0809 -0.0059 -0.4987
  153SAPE   H7R16999   6.711   1.106   9.770 -0.5632 -1.5073 -0.4430
  153SAPE   H7S17000   6.605   1.236   9.704  0.3368 -1.2993 -2.1194
  153SAPE   C2817001   6.511   1.050   9.727 -0.2509  0.2555  0.2296
  153SAPE   H8R17002   6.460   0.997   9.809 -0.3304  1.0841  0.7248
  153SAPE   C2917003   6.475   1.014   9.602  0.0763  0.0784  0.0965
  153SAPE   H9R17004   6.399   0.935   9.590  2.0120 -1.5496 -2.0263
  153SAPE  C21017005   6.539   1.065   9.475 -0.0787  0.6037 -0.0832
  153SAPE  H10R17006   6.602   0.983   9.435  1.7613  1.0432  1.8214
  153SAPE  H10S17007   6.621   1.131   9.511  0.0919  0.6167 -0.4952
  153SAPE  C21117008   6.453   1.122   9.362 -0.1295  0.1042  0.7056
  153SAPE  H11R17009   6.413   1.222   9.383 -0.9930 -0.3154  1.0877
  153SAPE  C21217010   6.419   1.051   9.250 -0.0979  0.7675 -0.2713
  153SAPE  H12R17011   6.346   1.093   9.179  1.2781  0.0884 -2.1345
  153SAPE  C21317012   6.461   0.908   9.233  0.6564 -0.1447 -0.0227
  153SAPE  H13R17013   6.465   0.861   9.334 -1.1447  1.8653  1.0161
  153SAPE  H13S17014   6.570   0.901   9.213  1.2560 -0.4586  3.0402
  153SAPE  C21417015   6.379   0.824   9.135 -0.1708  0.4658  0.4754
  153SAPE  H14R17016   6.300   0.772   9.190 -0.5579  0.4688 -0.0771
  153SAPE  C21517017   6.385   0.813   8.994 -0.4758 -0.1236 -0.4807
  153SAPE  H15R17018   6.309   0.755   8.940 -1.5708 -0.0726  0.9641
  153SAPE  C21617019   6.485   0.894   8.907 -0.8194 -0.3646 -0.3540
  153SAPE  H16R17020   6.485   0.841   8.809  0.9863 -1.8694  0.4334
  153SAPE  H16S17021   6.590   0.875   8.938 -1.3241 -1.6849  0.6017
  153SAPE  C21717022   6.446   1.037   8.888  0.2513 -0.2827  0.1965
  153SAPE  H17R17023   6.471   1.113   8.965 -0.1597 -0.5609  0.6021
  153SAPE  H17S17024   6.335   1.041   8.892  0.2746 -0.4164  0.9425
  153SAPE  C21817025   6.473   1.088   8.744  0.1175 -0.3240  0.3926
  153SAPE  H18R17026   6.429   1.023   8.666  0.7530  0.5644 -0.7331
  153SAPE  H18S17027   6.583   1.101   8.737  0.0743  1.3771  2.3871
  153SAPE  C21917028   6.417   1.228   8.718  0.1682  0.0178 -0.1259
  153SAPE  H19R17029   6.461   1.296   8.793 -0.0478 -0.1957  0.1949
  153SAPE  H19S17030   6.310   1.236   8.747  1.0454 -0.6309  3.4881
  153SAPE  C22017031   6.433   1.276   8.576 -0.5971 -0.4796  0.3520
  153SAPE  H20R17032   6.358   1.234   8.506  0.3674 -3.0211  0.7872
  153SAPE  H20S17033   6.538   1.256   8.546 -0.2769 -1.1194  1.8569
  153SAPE  H20T17034   6.411   1.385   8.578 -1.5272 -0.6505 -0.0862
  153SAPE   C3317035   6.689   0.612   9.911 -0.6149 -0.0315  0.3675
  153SAPE   H3X17036   6.583   0.641   9.895 -0.5213  1.0686  1.6434
  153SAPE   H3Y17037   6.691   0.502   9.920 -1.6412  0.0299  1.2975
  153SAPE   C3417038   6.751   0.639   9.776 -0.9147 -0.0181  0.0462
  153SAPE   H4X17039   6.845   0.580   9.770 -1.0957 -0.2541 -0.4685
  153SAPE   H4Y17040   6.776   0.745   9.759 -0.5270 -0.5007 -2.6298
  153SAPE   C3517041   6.660   0.600   9.666  0.9908  0.1229  0.0639
  153SAPE   H5X17042   6.560   0.643   9.687 -0.0488  0.5513 -4.9522
  153SAPE   H5Y17043   6.637   0.492   9.671 -0.9756  0.5099 -0.1270
  153SAPE   C3617044   6.722   0.647   9.537 -0.1437 -0.5643 -0.2086
  153SAPE   H6X17045   6.829   0.619   9.534 -0.3648 -1.4447  0.0360
  153SAPE   H6Y17046   6.713   0.757   9.523  1.9037 -0.2515  0.8497
  153SAPE   C3717047   6.659   0.579   9.418  0.3166 -0.5584 -0.1612
  153SAPE   H7X17048   6.558   0.624   9.406  0.2247 -0.8476 -0.4820
  153SAPE   H7Y17049   6.650   0.471   9.438 -0.3566 -0.3377  0.7549
  153SAPE   C3817050   6.745   0.613   9.296 -0.3450  0.2797 -0.1013
  153SAPE   H8X17051   6.850   0.574   9.301 -0.1618  0.7185 -0.4766
  153SAPE   H8Y17052   6.762   0.722   9.284 -0.2939  0.4276  1.2569
  153SAPE   C3917053   6.682   0.569   9.162  0.1077 -0.1227 -0.2993
  153SAPE   H9X17054   6.600   0.634   9.125  0.1053 -0.8860 -1.6779
  153SAPE   H9Y17055   6.645   0.465   9.171 -1.3438  0.5654  2.0281
  153SAPE  C31017056   6.786   0.543   9.054 -0.3029  0.1053 -0.1484
  153SAPE  H10X17057   6.856   0.466   9.091 -0.1919  1.0073  1.5799
  153SAPE  H10Y17058   6.833   0.640   9.025 -0.3109  0.5313  1.2553
  153SAPE  C31117059   6.724   0.502   8.920  0.2921 -0.0145 -0.1802
  153SAPE  H11X17060   6.684   0.589   8.863 -1.1703  0.0750  0.9540
  153SAPE  H11Y17061   6.629   0.446   8.933 -0.4120  1.2570  0.2074
  153SAPE  C31217062   6.811   0.408   8.828  0.6553 -0.9188  0.4085
  153SAPE  H12X17063   6.814   0.306   8.871 -0.1538 -0.5887  1.2726
  153SAPE  H12Y17064   6.916   0.439   8.815 -0.0419  0.2983 -2.7356
  153SAPE  C31317065   6.739   0.387   8.690 -0.2492  0.4590  0.3017
  153SAPE  H13X17066   6.725   0.485   8.639  1.1539  0.9864  0.9139
  153SAPE  H13Y17067   6.633   0.358   8.709 -0.2141  1.3075  1.8857
  153SAPE  C31417068   6.807   0.292   8.593  0.3591  0.3189 -0.3494
  153SAPE  H14X17069   6.802   0.190   8.636 -1.6834 -0.5489 -2.5684
  153SAPE  H14Y17070   6.912   0.330   8.590  0.8220 -0.4103  3.9551
  153SAPE  C31517071   6.748   0.285   8.452 -0.4392  0.5084  0.1275
  153SAPE  H15X17072   6.719   0.384   8.412 -2.5561  0.3850  1.2396
  153SAPE  H15Y17073   6.650   0.233   8.462 -2.1098  3.6356  0.8041
  153SAPE  C31617074   6.834   0.209   8.353  0.0958 -0.2763  0.1299
  153SAPE  H16X17075   6.902   0.137   8.403  0.7097  1.5023  1.9253
  153SAPE  H16Y17076   6.896   0.280   8.294 -0.0930 -0.4175 -0.2410
  153SAPE  C31717077   6.748   0.128   8.251  0.2451  1.1115  0.3834
  153SAPE  H17X17078   6.677   0.190   8.193  0.2608 -0.1821 -1.0650
  153SAPE  H17Y17079   6.675   0.061   8.303 -2.2163  1.6016 -2.3366
  153SAPE  C31817080   6.834   0.049   8.155  0.1048  0.1207 -0.1772
  153SAPE  H18X17081   6.911  -0.007   8.213 -0.3310 -0.4964 -0.1856
  153SAPE  H18Y17082   6.888   0.120   8.089  0.3598 -2.5800 -2.9954
  153SAPE  H18Z17083   6.777  -0.015   8.085 -0.2772  0.6997 -0.3975
  154SAPE     N17084   1.252   0.455  10.747 -0.5549 -0.0564 -0.2603
  154SAPE   HN117085   1.326   0.383  10.749  1.4892  1.9620 -1.2399
  154SAPE   HN217086   1.269   0.510  10.659 -0.8116 -0.2394 -0.4278
  154SAPE   HN317087   1.260   0.511  10.834  0.2249  0.9129 -0.9442
  154SAPE   C1217088   1.107   0.406  10.736 -0.4680 -0.3767 -0.0681
  154SAPE  H12A17089   1.093   0.312  10.794 -0.0156 -0.6853 -0.4575
  154SAPE  H12B17090   1.081   0.381  10.631 -0.2057 -2.1628  0.2764
  154SAPE   C1117091   1.015   0.516  10.788 -0.4295  0.1085  0.3092
  154SAPE  H11A17092   1.020   0.529  10.898  2.4660  1.5589  0.0635
  154SAPE  H11B17093   0.908   0.490  10.779 -0.6099  0.3156  1.7491
  154SAPE     P17094   1.017   0.777  10.776  0.1707 -0.0599 -0.0798
  154SAPE   O1317095   0.957   0.763  10.909  0.4721  0.1783 -0.1105
  154SAPE   O1417096   1.139   0.864  10.769 -0.4126 -0.0868 -0.0278
  154SAPE   O1217097   1.045   0.633  10.713  0.1692 -0.9698  0.4054
  154SAPE   O1117098   0.908   0.833  10.678  0.3149 -0.1162  0.1889
  154SAPE    C117099   0.786   0.765  10.645  0.1181  0.2837  0.0331
  154SAPE    HA17100   0.772   0.662  10.684  1.1539  0.8396  1.9278
  154SAPE    HB17101   0.709   0.832  10.690 -0.9486 -0.8460 -0.0816
  154SAPE    C217102   0.762   0.773  10.490 -0.4629  0.4608  0.0898
  154SAPE    HS17103   0.660   0.734  10.469  0.5032 -2.4321  0.5330
  154SAPE   O2117104   0.863   0.697  10.419 -0.1208 -0.3880 -0.5212
  154SAPE   C2117105   0.849   0.570  10.424  0.4726  0.5028  0.2091
  154SAPE   O2217106   0.755   0.498  10.459  0.0458 -0.0035  0.5628
  154SAPE   C2217107   0.972   0.521  10.348  0.1604 -0.3806  0.0344
  154SAPE   H2R17108   0.978   0.576  10.252 -0.1593 -0.1144  0.1686
  154SAPE   H2S17109   1.064   0.556  10.401  0.5222 -0.3283 -0.6248
  154SAPE    C317110   0.771   0.919  10.442  0.2867  0.7815  0.1821
  154SAPE    HX17111   0.873   0.948  10.475  0.7012 -0.5462  0.0867
  154SAPE    HY17112   0.694   0.983  10.490 -1.2609 -0.2163 -0.9258
  154SAPE   O3117113   0.768   0.922  10.295 -0.2694  0.5622  0.1146
  154SAPE   C3117114   0.654   0.936  10.244 -0.3898 -0.3770 -0.1771
  154SAPE   O3217115   0.546   0.936  10.306 -0.5282  0.0819  0.6727
  154SAPE   C3217116   0.673   0.941  10.091 -0.4002 -0.1332  0.8474
  154SAPE   H2X17117   0.763   1.004  10.077 -0.1569 -0.6734 -0.0256
  154SAPE   H2Y17118   0.573   0.964  10.047  0.1401  0.6857  0.0397
  154SAPE   C2317119   0.978   0.367  10.321  0.9842 -0.1690 -0.1106
  154SAPE   H3R17120   0.901   0.306  10.374  0.6796 -0.1092 -0.4816
  154SAPE   H3S17121   1.077   0.322  10.342  0.2233 -2.3382 -0.9436
  154SAPE   C2417122   0.959   0.346  10.166 -0.8697  0.0423 -0.3590
  154SAPE   H4R17123   0.994   0.243  10.141  0.8025  0.3621  0.5832
  154SAPE   H4S17124   1.041   0.415  10.135 -0.4544 -0.4034 -0.2582
  154SAPE   C2517125   0.826   0.378  10.104  0.5179 -0.0803 -0.5033
  154SAPE   H5R17126   0.741   0.337  10.160 -0.2880 -0.8090 -2.2495
  154SAPE   C2617127   0.806   0.453   9.993 -0.1246  0.4050 -1.1945
  154SAPE   H6R17128   0.711   0.455   9.938 -1.4483  1.8673  1.1035
  154SAPE   C2717129   0.910   0.524   9.910  1.0257 -0.0946 -0.4510
  154SAPE   H7R17130   0.968   0.589   9.978  1.2012 -1.5402  0.8181
  154SAPE   H7S17131   0.860   0.587   9.833  0.7212 -1.0516 -1.0485
  154SAPE   C2817132   1.002   0.432   9.833  0.2180  0.6714  0.0899
  154SAPE   H8R17133   1.060   0.358   9.890  0.9600  4.2756  4.3236
  154SAPE   C2917134   1.043   0.448   9.706  1.5579  0.2731 -0.6763
  154SAPE   H9R17135   1.114   0.374   9.665  1.4123  0.0612 -0.5414
  154SAPE  C21017136   1.001   0.546   9.606  0.4633  0.0953 -0.7664
  154SAPE  H10R17137   1.078   0.553   9.526  0.7181  0.9377 -0.4517
  154SAPE  H10S17138   0.990   0.652   9.637 -0.9331  0.1688 -1.5086
  154SAPE  C21117139   0.871   0.509   9.538 -0.4752  0.5415  0.2118
  154SAPE  H11R17140   0.789   0.555   9.595  0.9884  0.5424  2.3985
  154SAPE  C21217141   0.851   0.450   9.421 -1.3248 -0.0007  0.1505
  154SAPE  H12R17142   0.753   0.444   9.371 -0.5376 -0.7700 -1.3460
  154SAPE  C21317143   0.963   0.410   9.332  0.2755  0.9345 -0.3405
  154SAPE  H13R17144   1.053   0.381   9.391  0.7623  0.1198 -1.4713
  154SAPE  H13S17145   0.992   0.499   9.273 -1.1645  1.2647 -0.5553
  154SAPE  C21417146   0.920   0.306   9.240  0.1482 -0.3364  0.2311
  154SAPE  H14R17147   0.915   0.206   9.285 -1.5768  0.1957  1.2394
  154SAPE  C21517148   0.873   0.324   9.109 -0.1647 -0.1078 -0.1071
  154SAPE  H15R17149   0.842   0.240   9.045  1.5343 -0.5790 -0.3406
  154SAPE  C21617150   0.861   0.454   9.034  0.2048 -0.2405 -0.2293
  154SAPE  H16R17151   0.834   0.536   9.104 -0.8139  0.2678 -1.2106
  154SAPE  H16S17152   0.791   0.444   8.949  0.4549  0.3389 -0.5027
  154SAPE  C21717153   0.978   0.513   8.956  0.1532  0.0657 -0.2990
  154SAPE  H17R17154   1.013   0.441   8.878 -1.0811 -0.8646 -0.0128
  154SAPE  H17S17155   1.063   0.532   9.026  0.0841  0.7186 -0.3928
  154SAPE  C21817156   0.940   0.637   8.884  0.1937 -0.2000 -0.2167
  154SAPE  H18R17157   1.034   0.694   8.871 -0.1366  0.5115  0.5001
  154SAPE  H18S17158   0.886   0.709   8.948 -0.0163  0.3767 -1.0248
  154SAPE  C21917159   0.878   0.603   8.747 -0.0551 -0.4087 -0.4206
  154SAPE  H19R17160   0.770   0.582   8.762 -0.5233  1.2696 -1.2314
  154SAPE  H19S17161   0.930   0.517   8.700  0.4104  0.7477 -2.0589
  154SAPE  C22017162   0.871   0.724   8.646 -0.0927 -0.4759 -0.2008
  154SAPE  H20R17163   0.822   0.701   8.549 -0.4095  0.3964 -0.2539
  154SAPE  H20S17164   0.971   0.763   8.619  1.5022 -2.6927  2.2162
  154SAPE  H20T17165   0.809   0.805   8.690  0.2980 -1.1323  1.6320
  154SAPE   C3317166   0.702   0.804  10.028  0.1451  0.6188  0.4529
  154SAPE   H3X17167   0.633   0.733  10.080  1.7971 -0.9617  0.5368
  154SAPE   H3Y17168   0.803   0.767  10.055  0.6184 -0.4627 -2.6462
  154SAPE   C3417169   0.680   0.798   9.882  0.3618 -0.0339  0.5879
  154SAPE   H4X17170   0.575   0.830   9.860  1.2066  1.8122 -0.8521
  154SAPE   H4Y17171   0.679   0.697   9.837 -2.1579 -0.4794  1.5490
  154SAPE   C3517172   0.785   0.885   9.814 -0.5838  0.3093  0.5388
  154SAPE   H5X17173   0.884   0.835   9.803 -0.4490  0.1383  2.4431
  154SAPE   H5Y17174   0.808   0.976   9.872  0.8983 -0.6535  1.4839
  154SAPE   C3617175   0.726   0.940   9.688 -0.3080 -0.0114  0.7691
  154SAPE   H6X17176   0.784   1.026   9.648 -1.8297  0.0365 -1.4521
  154SAPE   H6Y17177   0.631   0.993   9.710 -0.2522  1.1021 -1.4652
  154SAPE   C3717178   0.708   0.838   9.574 -0.0361 -0.0942  0.5920
  154SAPE   H7X17179   0.623   0.778   9.612  1.9519 -2.8400  0.8480
  154SAPE   H7Y17180   0.802   0.784   9.549 -0.1242 -0.9021  1.9394
  154SAPE   C3817181   0.659   0.902   9.445 -0.6539  0.3288  0.6368
  154SAPE   H8X17182   0.722   0.992   9.427  2.3464 -2.0152 -1.1251
  154SAPE   H8Y17183   0.554   0.935   9.461 -1.3820 -1.0828 -1.0154
  154SAPE   C3917184   0.657   0.817   9.321 -0.0731 -0.0280  0.3560
  154SAPE   H9X17185   0.659   0.710   9.348  2.9677  0.3415  1.7406
  154SAPE   H9Y17186   0.751   0.830   9.263 -0.4934 -1.2936 -0.6262
  154SAPE  C31017187   0.542   0.845   9.223 -0.0766  0.3412 -0.3939
  154SAPE  H10X17188   0.543   0.950   9.185 -1.4515  0.4839 -0.0658
  154SAPE  H10Y17189   0.447   0.835   9.280  0.2206  1.4770  0.3314
  154SAPE  C31117190   0.538   0.747   9.109 -0.1712 -0.5102  0.5881
  154SAPE  H11X17191   0.513   0.642   9.135 -1.3646 -1.0279 -2.3527
  154SAPE  H11Y17192   0.636   0.744   9.056 -1.5040 -0.9620 -1.9316
  154SAPE  C31217193   0.432   0.791   9.011 -0.0461 -0.8354  0.6319
  154SAPE  H12X17194   0.427   0.902   9.010 -0.9909 -0.7965  3.6394
  154SAPE  H12Y17195   0.338   0.741   9.043 -2.8442  3.4018 -0.4695
  154SAPE  C31317196   0.458   0.747   8.865  1.1356 -0.1010 -0.6494
  154SAPE  H13X17197   0.459   0.636   8.856  1.3903 -0.1171 -0.4037
  154SAPE  H13Y17198   0.559   0.779   8.832 -1.2566  3.9960 -4.6061
  154SAPE  C31417199   0.363   0.802   8.754 -0.0993  0.1501 -0.5355
  154SAPE  H14X17200   0.401   0.759   8.658  0.9037  0.5658 -0.3329
  154SAPE  H14Y17201   0.376   0.913   8.753 -0.4939  0.2798  3.0317
  154SAPE  C31517202   0.210   0.783   8.778  0.1069 -0.4057  0.2633
  154SAPE  H15X17203   0.185   0.831   8.875 -1.1638  1.8386 -1.1231
  154SAPE  H15Y17204   0.197   0.674   8.797 -0.4797 -0.5431 -0.9172
  154SAPE  C31617205   0.141   0.842   8.656 -0.5556 -0.0031 -0.2313
  154SAPE  H16X17206   0.170   0.798   8.558  4.1627  0.7157  0.7096
  154SAPE  H16Y17207   0.156   0.952   8.646 -0.9224  0.0819  0.1104
  154SAPE  C31717208  -0.008   0.822   8.667  0.0216 -0.8373 -0.0075
  154SAPE  H17X17209  -0.032   0.888   8.754  0.2138  0.8349 -1.2098
  154SAPE  H17Y17210  -0.028   0.717   8.698 -1.7037 -0.6330 -0.3740
  154SAPE  C31817211  -0.097   0.857   8.554 -0.0914 -0.7791  0.0550
  154SAPE  H18X17212  -0.206   0.855   8.575 -0.3713 -1.4165 -1.3684
  154SAPE  H18Y17213  -0.099   0.801   8.458 -2.3772  2.2818 -1.8058
  154SAPE  H18Z17214  -0.073   0.962   8.529  0.3618 -0.1322  3.0078
  155SAPE     N17215   2.000   1.517  10.945  0.2917 -0.2121 -0.0306
  155SAPE   HN117216   1.914   1.458  10.941 -0.8571  1.4668 -0.5961
  155SAPE   HN217217   2.020   1.559  10.852 -0.2894  1.5917  0.6328
  155SAPE   HN317218   2.071   1.447  10.974 -1.3539 -1.4295  1.2010
  155SAPE   C1217219   1.972   1.625  11.049  0.6006 -0.1234  0.6338
  155SAPE  H12A17220   2.064   1.686  11.061  0.6345 -0.2143  0.8353
  155SAPE  H12B17221   1.938   1.583  11.146  0.9907 -0.2108  0.7333
  155SAPE   C1117222   1.861   1.716  10.986  0.8273  0.0909  0.0969
  155SAPE  H11A17223   1.906   1.767  10.898 -0.9290 -1.5443 -1.7874
  155SAPE  H11B17224   1.824   1.794  11.055 -0.2062  0.6849 -1.0977
  155SAPE     P17225   1.620   1.696  10.879  0.0332  0.2387 -0.1519
  155SAPE   O1317226   1.516   1.691  10.980 -0.0213 -0.4307 -0.1025
  155SAPE   O1417227   1.652   1.832  10.827 -0.3705 -0.2248  0.2603
  155SAPE   O1217228   1.752   1.629  10.943 -0.1046  0.7796  0.4416
  155SAPE   O1117229   1.582   1.596  10.770  0.5633 -0.4483 -0.3687
  155SAPE    C117230   1.689   1.565  10.679  0.6149  0.4845 -0.2684
  155SAPE    HA17231   1.770   1.641  10.673  0.5780  0.6612  1.2068
  155SAPE    HB17232   1.729   1.468  10.714  1.8179  1.0528 -0.0610
  155SAPE    C217233   1.633   1.527  10.541 -0.0218  0.2330  1.0190
  155SAPE    HS17234   1.718   1.534  10.469 -1.3156 -0.0181 -0.5770
  155SAPE   O2117235   1.527   1.622  10.503 -0.6979  0.0937 -0.5089
  155SAPE   C2117236   1.583   1.739  10.462 -0.2205 -0.5785  0.5639
  155SAPE   O2217237   1.706   1.761  10.455  0.3840  0.6838  0.3809
  155SAPE   C2217238   1.478   1.831  10.414  0.4063  0.5530  0.1650
  155SAPE   H2R17239   1.395   1.826  10.488  1.4478 -2.1763  1.2218
  155SAPE   H2S17240   1.514   1.935  10.427  0.4910  0.4415  0.8538
  155SAPE    C317241   1.589   1.373  10.531 -0.2851 -0.1898 -0.2375
  155SAPE    HX17242   1.551   1.341  10.631 -0.4653 -0.4913 -0.4017
  155SAPE    HY17243   1.682   1.313  10.533 -0.1746  0.0062  1.2517
  155SAPE   O3117244   1.513   1.328  10.422 -0.6227 -0.2841  0.5272
  155SAPE   C3117245   1.378   1.335  10.433  0.0278  0.5862 -0.1035
  155SAPE   O3217246   1.320   1.358  10.543  0.3783 -0.0105  0.0157
  155SAPE   C3217247   1.311   1.314  10.301 -0.1012  0.5426  0.5787
  155SAPE   H2X17248   1.203   1.338  10.306 -0.4579 -0.6729 -0.7698
  155SAPE   H2Y17249   1.318   1.203  10.291  0.4930  0.6426 -0.1441
  155SAPE   C2317250   1.422   1.811  10.275  0.7034 -0.2458  0.0150
  155SAPE   H3R17251   1.326   1.868  10.270  0.1204 -1.0029  2.2023
  155SAPE   H3S17252   1.408   1.707  10.239  1.7840 -0.2716 -0.3585
  155SAPE   C2417253   1.516   1.890  10.183 -0.0810 -0.0735  0.2656
  155SAPE   H4R17254   1.529   1.985  10.239 -0.1028  0.7636 -1.1237
  155SAPE   H4S17255   1.463   1.917  10.089  0.9651  0.5009 -0.1655
  155SAPE   C2517256   1.647   1.825  10.145  0.3958 -0.5676  0.3534
  155SAPE   H5R17257   1.727   1.831  10.219  0.2448 -0.1805  0.4845
  155SAPE   C2617258   1.671   1.786  10.022 -0.5871 -0.2188  0.1579
  155SAPE   H6R17259   1.768   1.744   9.992 -0.1894  1.1869 -0.5390
  155SAPE   C2717260   1.579   1.780   9.902  0.6316 -0.7716  0.5968
  155SAPE   H7R17261   1.560   1.883   9.866 -1.6384 -1.8200 -1.2952
  155SAPE   H7S17262   1.485   1.724   9.923  0.3607 -0.4260  0.2854
  155SAPE   C2817263   1.640   1.711   9.782  0.2244 -0.1914 -0.7457
  155SAPE   H8R17264   1.726   1.644   9.799 -0.8263 -1.0436  1.3051
  155SAPE   C2917265   1.600   1.729   9.653 -0.1581  0.2645  0.7896
  155SAPE   H9R17266   1.643   1.654   9.585  1.0850 -1.3539  3.2954
  155SAPE  C21017267   1.489   1.817   9.608  0.8972  0.8739  0.5286
  155SAPE  H10R17268   1.441   1.861   9.698 -0.1345 -1.3534  1.1108
  155SAPE  H10S17269   1.411   1.747   9.569  0.5045  0.4630  2.0329
  155SAPE  C21117270   1.530   1.910   9.502  0.0883  0.9211  0.4579
  155SAPE  H11R17271   1.627   1.955   9.529  0.6439 -0.4311  0.7173
  155SAPE  C21217272   1.457   1.944   9.395 -0.5665 -0.1798  0.1659
  155SAPE  H12R17273   1.513   2.011   9.328  0.6778 -2.3700 -1.0300
  155SAPE  C21317274   1.321   1.898   9.349  0.0858 -0.6687 -0.0133
  155SAPE  H13R17275   1.280   1.980   9.285  1.1156  1.1634  1.6404
  155SAPE  H13S17276   1.251   1.900   9.435  2.0036  1.2681  1.5717
  155SAPE  C21417277   1.316   1.764   9.272  0.6247  0.6354 -0.9730
  155SAPE  H14R17278   1.311   1.680   9.342  2.1991  1.1711 -0.2035
  155SAPE  C21517279   1.304   1.749   9.138  0.4220 -0.3712  0.4782
  155SAPE  H15R17280   1.307   1.642   9.110 -0.8539 -0.4373  0.5424
  155SAPE  C21617281   1.294   1.848   9.021  0.5156  0.4326 -0.5075
  155SAPE  H16R17282   1.398   1.873   8.991  0.4756 -0.8887 -1.8322
  155SAPE  H16S17283   1.251   1.945   9.053  1.2602  1.0314 -1.3101
  155SAPE  C21717284   1.216   1.791   8.901 -0.1754 -0.1530  0.0443
  155SAPE  H17R17285   1.112   1.767   8.931  0.4591 -0.2732  2.1819
  155SAPE  H17S17286   1.259   1.694   8.868  0.3194  1.1618 -3.4068
  155SAPE  C21817287   1.219   1.883   8.782 -0.1513  0.8612  0.1641
  155SAPE  H18R17288   1.316   1.927   8.751 -0.0327 -0.6397 -1.6819
  155SAPE  H18S17289   1.140   1.961   8.788 -0.1193  0.8755  0.4101
  155SAPE  C21917290   1.174   1.801   8.659  0.0683  0.4295 -0.2309
  155SAPE  H19R17291   1.067   1.780   8.681  0.0683  0.8293  0.1663
  155SAPE  H19S17292   1.227   1.703   8.660 -0.8620 -0.0765 -0.4853
  155SAPE  C22017293   1.185   1.875   8.527  0.1699 -0.0955 -0.4555
  155SAPE  H20R17294   1.132   1.973   8.530 -3.4680 -1.9734 -1.4104
  155SAPE  H20S17295   1.143   1.809   8.448 -1.2795 -2.3024  2.0960
  155SAPE  H20T17296   1.290   1.902   8.503 -0.0510 -0.5000 -1.9315
  155SAPE   C3317297   1.358   1.393  10.182 -0.3141  0.0559  0.2962
  155SAPE   H3X17298   1.368   1.500  10.208 -0.9618  0.5888 -1.5766
  155SAPE   H3Y17299   1.281   1.390  10.103 -2.4972 -1.6044  2.3872
  155SAPE   C3417300   1.496   1.345  10.124  0.5472  0.0981 -0.8350
  155SAPE   H4X17301   1.492   1.234  10.123 -0.4204  0.1122  0.9133
  155SAPE   H4Y17302   1.580   1.378  10.189  0.0817 -0.4322  0.0449
  155SAPE   C3517303   1.538   1.388   9.985 -0.6459 -0.8654 -0.2635
  155SAPE   H5X17304   1.639   1.348   9.961 -1.3837 -2.2106 -1.1944
  155SAPE   H5Y17305   1.532   1.499   9.976  2.4335 -0.5539  0.8046
  155SAPE   C3617306   1.451   1.329   9.874  0.6607  0.1376  0.1160
  155SAPE   H6X17307   1.346   1.364   9.891  0.2923 -0.4599 -0.8977
  155SAPE   H6Y17308   1.451   1.219   9.881  1.0481  0.1672  0.5351
  155SAPE   C3717309   1.489   1.364   9.732 -0.3489  0.2129  0.6195
  155SAPE   H7X17310   1.597   1.342   9.720 -0.1324  2.2155 -1.2447
  155SAPE   H7Y17311   1.474   1.472   9.715  1.0336  0.3607  0.2864
  155SAPE   C3817312   1.404   1.291   9.626  0.4011  0.3492 -0.2556
  155SAPE   H8X17313   1.298   1.303   9.658  0.9641  0.7969  1.5399
  155SAPE   H8Y17314   1.412   1.180   9.631 -0.1403  0.3767  1.7291
  155SAPE   C3917315   1.441   1.351   9.493  0.2474 -0.3534  0.3493
  155SAPE   H9X17316   1.549   1.340   9.474 -0.0192 -1.2073 -0.6867
  155SAPE   H9Y17317   1.429   1.462   9.494  3.3519  0.0041  0.7484
  155SAPE  C31017318   1.358   1.284   9.373 -0.0730 -0.4886 -0.0558
  155SAPE  H10X17319   1.250   1.289   9.395 -0.5987  2.9589 -2.9206
  155SAPE  H10Y17320   1.388   1.178   9.358  0.4994 -0.4047  0.4933
  155SAPE  C31117321   1.384   1.350   9.237  0.1331  0.3510  0.6145
  155SAPE  H11X17322   1.495   1.346   9.230  0.1636 -1.0890  1.7512
  155SAPE  H11Y17323   1.352   1.456   9.243  0.3146  0.4148  0.4607
  155SAPE  C31217324   1.323   1.291   9.119  0.5723  0.1751 -0.2638
  155SAPE  H12X17325   1.333   1.180   9.124 -0.3293  0.1763  1.9013
  155SAPE  H12Y17326   1.383   1.320   9.030 -0.8741  0.6247 -1.1036
  155SAPE  C31317327   1.176   1.320   9.096  0.3181  0.8076 -0.2566
  155SAPE  H13X17328   1.163   1.430   9.086 -0.6160  0.7520  0.3488
  155SAPE  H13Y17329   1.118   1.291   9.186 -0.9264  0.1234 -1.2689
  155SAPE  C31417330   1.116   1.248   8.975  0.5855 -0.9064  0.2089
  155SAPE  H14X17331   1.122   1.140   9.001 -0.9871 -0.4994  2.3406
  155SAPE  H14Y17332   1.168   1.270   8.879 -0.4493 -1.2659 -0.4416
  155SAPE  C31517333   0.967   1.288   8.963 -0.1312  0.7896 -0.4505
  155SAPE  H15X17334   0.931   1.244   8.868  3.3765  0.2854 -1.6482
  155SAPE  H15Y17335   0.957   1.398   8.969 -0.1068  0.7208  1.0038
  155SAPE  C31617336   0.886   1.231   9.077 -0.2269 -0.3584  0.0147
  155SAPE  H16X17337   0.787   1.282   9.086  0.9332  1.3937  3.6598
  155SAPE  H16Y17338   0.933   1.250   9.175 -0.3627  2.2561 -0.4031
  155SAPE  C31717339   0.846   1.080   9.078 -0.6677  1.1001 -0.1320
  155SAPE  H17X17340   0.784   1.056   9.167 -0.5389  1.5837  0.0899
  155SAPE  H17Y17341   0.941   1.026   9.099 -1.5642 -0.5405 -0.2293
  155SAPE  C31817342   0.785   1.027   8.948  0.3412 -0.4458 -0.0891
  155SAPE  H18X17343   0.768   0.917   8.952 -0.3975 -0.2947  1.2922
  155SAPE  H18Y17344   0.829   1.057   8.851 -0.8718  1.4682 -0.0709
  155SAPE  H18Z17345   0.684   1.073   8.934  0.4937 -0.7645 -2.3324
  156SAPE     N17346   5.030   6.502  10.383 -0.3456 -0.4091  0.2288
  156SAPE   HN117347   4.951   6.571  10.380 -0.3195 -0.3854  0.0778
  156SAPE   HN217348   4.998   6.415  10.430 -2.9999  0.4467  0.1430
  156SAPE   HN317349   5.094   6.541  10.455  0.7143 -1.0714 -0.3428
  156SAPE   C1217350   5.106   6.493  10.255 -0.3244  0.2466  0.7339
  156SAPE  H12A17351   5.091   6.595  10.214 -1.9956 -0.4621 -0.4612
  156SAPE  H12B17352   5.060   6.409  10.199 -2.3652  0.4470  2.0516
  156SAPE   C1117353   5.257   6.466  10.270 -0.4120 -0.4367  0.1884
  156SAPE  H11A17354   5.290   6.421  10.174  1.1315 -2.4203  1.6181
  156SAPE  H11B17355   5.285   6.380  10.334 -2.0373 -0.9659  0.2026
  156SAPE     P17356   5.352   6.622  10.463  0.0878  0.5719  0.1603
  156SAPE   O1317357   5.217   6.644  10.514  0.6973  0.4403  0.5536
  156SAPE   O1417358   5.432   6.508  10.514  0.6055 -0.1927 -0.3523
  156SAPE   O1217359   5.323   6.587  10.302  0.1077  0.0304 -0.3793
  156SAPE   O1117360   5.431   6.758  10.471  0.1468  0.0399 -0.4410
  156SAPE    C117361   5.458   6.852  10.363  0.1954 -0.0414 -0.4357
  156SAPE    HA17362   5.376   6.856  10.289  0.0486 -0.0563 -0.2735
  156SAPE    HB17363   5.466   6.951  10.412 -1.8615  1.1326 -2.4121
  156SAPE    C217364   5.597   6.824  10.296 -0.2475  0.5963  0.0333
  156SAPE    HS17365   5.621   6.912  10.231  1.2110 -0.1898 -0.5234
  156SAPE   O2117366   5.599   6.714  10.202 -0.6480  0.3263  0.2860
  156SAPE   C2117367   5.505   6.716  10.113  0.1937 -0.0667 -0.4144
  156SAPE   O2217368   5.443   6.816  10.078  0.2443 -0.0239 -0.1034
  156SAPE   C2217369   5.507   6.584  10.037  0.6666 -0.1846 -0.0317
  156SAPE   H2R17370   5.611   6.575  10.001  0.1139 -1.6504 -1.3671
  156SAPE   H2S17371   5.488   6.500  10.108  0.2065  0.2105  0.3121
  156SAPE    C317372   5.715   6.805  10.392 -0.2622 -0.0375 -0.5642
  156SAPE    HX17373   5.701   6.715  10.456  0.5764  0.4562  0.3049
  156SAPE    HY17374   5.715   6.886  10.467 -2.4631 -3.0219  2.8889
  156SAPE   O3117375   5.843   6.802  10.315  0.3634  0.3030  0.5580
  156SAPE   C3117376   5.886   6.689  10.260  0.1276  0.3236 -0.6116
  156SAPE   O3217377   5.831   6.582  10.266  0.1961  0.3495 -0.5110
  156SAPE   C3217378   6.021   6.708  10.194 -0.1476 -0.6583 -0.4931
  156SAPE   H2X17379   6.085   6.651  10.266 -0.5325 -0.6857 -0.1705
  156SAPE   H2Y17380   6.052   6.814  10.198 -0.2917 -0.5581 -1.8249
  156SAPE   C2317381   5.412   6.596   9.916 -0.1471 -0.6565 -0.1368
  156SAPE   H3R17382   5.452   6.674   9.848 -0.0318  0.9515  1.7404
  156SAPE   H3S17383   5.312   6.616   9.960  1.1464 -0.6563  2.9230
  156SAPE   C2417384   5.409   6.463   9.842  0.1090 -0.4949  0.3465
  156SAPE   H4R17385   5.317   6.454   9.779 -0.9653  1.0732  1.6266
  156SAPE   H4S17386   5.391   6.386   9.920 -0.6240 -0.4080  0.2741
  156SAPE   C2517387   5.528   6.411   9.760 -0.1157  0.1618  0.7821
  156SAPE   H5R17388   5.613   6.386   9.826  0.2788  0.7596  0.5042
  156SAPE   C2617389   5.543   6.399   9.625 -0.1844 -0.1339  0.0739
  156SAPE   H6R17390   5.635   6.358   9.580 -0.8355 -0.9001 -0.5704
  156SAPE   C2717391   5.440   6.426   9.523 -0.2099  0.0285 -0.0342
  156SAPE   H7R17392   5.486   6.437   9.422  0.0792 -0.3474  0.0540
  156SAPE   H7S17393   5.384   6.517   9.550 -0.1679  0.0223  0.0729
  156SAPE   C2817394   5.342   6.312   9.504  0.8106  0.4633 -0.2237
  156SAPE   H8R17395   5.302   6.270   9.598 -0.0742  2.2561  0.2037
  156SAPE   C2917396   5.316   6.243   9.386  0.1078 -0.3591  0.0534
  156SAPE   H9R17397   5.226   6.181   9.397 -1.3849  1.0694 -3.1961
  156SAPE  C21017398   5.378   6.267   9.246  0.6257 -0.9731  0.1421
  156SAPE  H10R17399   5.461   6.193   9.234  1.9766  0.0695  2.5725
  156SAPE  H10S17400   5.426   6.367   9.248  1.7927 -1.4491 -2.3095
  156SAPE  C21117401   5.280   6.262   9.127  0.2798 -0.0093 -0.1258
  156SAPE  H11R17402   5.175   6.283   9.152  0.2224  1.5857 -1.5718
  156SAPE  C21217403   5.315   6.224   8.997 -0.2111  0.6650 -0.8456
  156SAPE  H12R17404   5.242   6.222   8.915 -0.0087  1.2300 -1.0355
  156SAPE  C21317405   5.454   6.194   8.955 -0.2779  0.1975  0.4351
  156SAPE  H13R17406   5.531   6.230   9.027  1.2235 -2.2293  0.0915
  156SAPE  H13S17407   5.467   6.234   8.853 -2.5491  1.2455  0.5330
  156SAPE  C21417408   5.495   6.048   8.955  0.2067  0.2684  0.1762
  156SAPE  H14R17409   5.563   6.021   9.037  0.2377 -1.4096 -0.3810
  156SAPE  C21517410   5.448   5.956   8.862  1.0468  1.4424 -0.3819
  156SAPE  H15R17411   5.471   5.851   8.885 -2.7981  1.0159  1.9136
  156SAPE  C21617412   5.366   5.983   8.742 -0.2698  0.0412  0.6478
  156SAPE  H16R17413   5.319   6.083   8.743  0.0396  0.2645 -2.7773
  156SAPE  H16S17414   5.276   5.918   8.741  0.8927 -1.6067  0.0023
  156SAPE  C21717415   5.444   5.956   8.609  0.9162  0.4643  0.3028
  156SAPE  H17R17416   5.440   5.846   8.591  1.4472  0.6758 -1.2058
  156SAPE  H17S17417   5.547   5.996   8.621  0.5489  1.5159 -0.0248
  156SAPE  C21817418   5.376   6.035   8.495  1.3010 -0.3560  0.2236
  156SAPE  H18R17419   5.440   6.031   8.405  0.7609  2.0536 -0.2926
  156SAPE  H18S17420   5.363   6.141   8.525  0.4381 -1.3411  3.5988
  156SAPE  C21917421   5.228   5.982   8.461 -0.0138 -0.1068 -0.1456
  156SAPE  H19R17422   5.155   5.989   8.544  0.4507 -0.0912  0.2577
  156SAPE  H19S17423   5.248   5.874   8.446 -0.7839 -0.1567 -0.8599
  156SAPE  C22017424   5.167   6.048   8.341  0.0932  0.3595  0.8297
  156SAPE  H20R17425   5.155   6.154   8.372  0.7870  1.0217 -1.0592
  156SAPE  H20S17426   5.069   6.003   8.313  0.8801 -0.5004 -0.6011
  156SAPE  H20T17427   5.228   6.034   8.249 -3.8931 -1.2961 -1.6918
  156SAPE   C3317428   6.041   6.634  10.057 -0.4661  0.0769 -0.3560
  156SAPE   H3X17429   6.008   6.528  10.065 -1.6259  0.6057  2.2396
  156SAPE   H3Y17430   6.149   6.614  10.038  0.0335  1.2310  1.1334
  156SAPE   C3417431   5.981   6.701   9.932  0.1455  0.2208  0.3206
  156SAPE   H4X17432   6.039   6.794   9.911 -0.6504  0.8966  1.1225
  156SAPE   H4Y17433   5.879   6.734   9.961  0.3528  0.6260  0.5937
  156SAPE   C3517434   5.979   6.625   9.801  0.0265  0.3004 -0.2776
  156SAPE   H5X17435   5.960   6.518   9.826  3.9256  0.0140  2.0114
  156SAPE   H5Y17436   6.080   6.634   9.756 -0.4645  0.3305 -1.3845
  156SAPE   C3617437   5.880   6.668   9.695  0.4525 -0.0172 -0.5874
  156SAPE   H6X17438   5.880   6.777   9.673 -1.3748  0.0057 -0.6029
  156SAPE   H6Y17439   5.779   6.652   9.739  0.6294 -0.6118 -0.3954
  156SAPE   C3717440   5.910   6.584   9.567 -0.4098 -0.1441 -0.1485
  156SAPE   H7X17441   5.903   6.477   9.598 -2.3804 -0.7323 -2.4219
  156SAPE   H7Y17442   6.015   6.600   9.536 -0.4696 -0.6887 -0.6517
  156SAPE   C3817443   5.820   6.611   9.450  0.9560  0.4659 -0.4589
  156SAPE   H8X17444   5.832   6.713   9.407 -0.9532  1.1502  0.5421
  156SAPE   H8Y17445   5.716   6.596   9.488  0.3490 -0.3995 -2.4199
  156SAPE   C3917446   5.841   6.504   9.341  0.6699  0.5720 -0.3367
  156SAPE   H9X17447   5.818   6.401   9.376  2.2052  0.5059  0.5173
  156SAPE   H9Y17448   5.946   6.503   9.307  0.7658 -1.9917 -0.0050
  156SAPE  C31017449   5.747   6.531   9.229  0.4928 -0.3779 -0.1732
  156SAPE  H10X17450   5.765   6.628   9.178  0.4598 -0.8636 -1.1184
  156SAPE  H10Y17451   5.646   6.530   9.276  1.5836  2.1608  2.3844
  156SAPE  C31117452   5.729   6.413   9.136  0.3279 -0.2429 -0.9644
  156SAPE  H11X17453   5.630   6.439   9.092 -0.8587 -1.1425  1.1029
  156SAPE  H11Y17454   5.710   6.316   9.187  1.6068 -0.8288 -1.5604
  156SAPE  C31217455   5.836   6.401   9.025 -0.6978 -0.8812 -0.2687
  156SAPE  H12X17456   5.936   6.375   9.067 -0.1493 -0.7325 -1.4399
  156SAPE  H12Y17457   5.840   6.501   8.978 -1.5854 -0.2106  1.0777
  156SAPE  C31317458   5.802   6.298   8.916  0.2302  0.1051 -0.0767
  156SAPE  H13X17459   5.707   6.346   8.884  0.0572  0.4690  0.9542
  156SAPE  H13Y17460   5.783   6.197   8.959  1.2334 -0.5239 -1.0827
  156SAPE  C31417461   5.902   6.284   8.806 -0.7192 -0.2941  0.3219
  156SAPE  H14X17462   5.993   6.227   8.837  0.1885 -0.4359 -2.4633
  156SAPE  H14Y17463   5.948   6.383   8.783 -0.3131 -0.1887  1.5211
  156SAPE  C31517464   5.838   6.229   8.679 -0.3663 -0.0823 -0.2723
  156SAPE  H15X17465   5.762   6.304   8.646  0.2332  0.4654 -0.4129
  156SAPE  H15Y17466   5.791   6.131   8.701 -1.6827  0.4921 -0.4188
  156SAPE  C31617467   5.945   6.195   8.575 -0.3073 -0.2176  0.3156
  156SAPE  H16X17468   6.009   6.115   8.619  1.3248  1.2215  0.5785
  156SAPE  H16Y17469   6.007   6.286   8.566 -0.2910 -0.2184  0.4148
  156SAPE  C31717470   5.900   6.138   8.437  0.2505 -0.6037  0.2479
  156SAPE  H17X17471   5.843   6.215   8.381 -1.4874 -2.7213 -0.9491
  156SAPE  H17Y17472   5.822   6.064   8.466 -0.7224 -0.5390 -2.1317
  156SAPE  C31817473   6.012   6.085   8.352 -0.4612  1.0043  0.2828
  156SAPE  H18X17474   5.977   6.048   8.253  0.2980  0.0881  0.3466
  156SAPE  H18Y17475   6.072   6.002   8.396 -1.2908  0.5205  0.5028
  156SAPE  H18Z17476   6.082   6.166   8.322 -0.3358  1.0497  0.6868
  157SAPE     N17477   4.450   0.098  10.658 -0.0060  0.1748  0.5856
  157SAPE   HN117478   4.502   0.186  10.676  1.1102 -0.6332  1.3850
  157SAPE   HN217479   4.413   0.063  10.749  0.0903 -0.9019  0.2125
  157SAPE   HN317480   4.518   0.024  10.631  2.3146  1.6254  2.2304
  157SAPE   C1217481   4.350   0.094  10.542 -0.6699  0.0676  0.2450
  157SAPE  H12A17482   4.399   0.137  10.451 -1.0321 -0.4686 -0.2022
  157SAPE  H12B17483   4.260   0.153  10.568 -0.2929  0.7352  0.0370
  157SAPE   C1117484   4.309  -0.054  10.506  0.2674  0.2622  0.6374
  157SAPE  H11A17485   4.392  -0.126  10.494  0.1735  0.7974 -4.3495
  157SAPE  H11B17486   4.267  -0.048  10.404  0.4303 -1.4693  0.4578
  157SAPE     P17487   4.224  -0.225  10.686  0.1353  0.3040  0.0835
  157SAPE   O1317488   4.352  -0.213  10.756 -0.0517 -0.0375  0.2556
  157SAPE   O1417489   4.104  -0.252  10.769  0.1497 -0.5173 -0.2925
  157SAPE   O1217490   4.207  -0.091  10.593 -0.4952 -0.1767 -0.4732
  157SAPE   O1117491   4.240  -0.336  10.581  0.2218  0.3080  0.0576
  157SAPE    C117492   4.132  -0.388  10.496  0.1768 -0.1040 -0.2887
  157SAPE    HA17493   4.095  -0.487  10.532  0.2909 -0.2682 -0.6261
  157SAPE    HB17494   4.052  -0.312  10.492  2.0611  1.9530  0.1906
  157SAPE    C217495   4.194  -0.411  10.347  0.0106 -0.1253 -0.8585
  157SAPE    HS17496   4.288  -0.462  10.376 -0.6304 -0.5548  0.4855
  157SAPE   O2117497   4.222  -0.284  10.271  0.6819  0.0503  0.0625
  157SAPE   C2117498   4.337  -0.290  10.198  0.1419  0.2912 -0.1865
  157SAPE   O2217499   4.413  -0.383  10.201 -0.3814  0.6043  0.9785
  157SAPE   C2217500   4.356  -0.164  10.119 -0.3237 -0.4241  0.3837
  157SAPE   H2R17501   4.278  -0.086  10.133  0.7299  0.5392  0.9749
  157SAPE   H2S17502   4.445  -0.114  10.164 -0.4541  0.7713 -0.6258
  157SAPE    C317503   4.095  -0.511  10.262  0.1770  0.3484 -0.5614
  157SAPE    HX17504   4.003  -0.452  10.243 -1.8507 -1.9973  1.7092
  157SAPE    HY17505   4.069  -0.597  10.327  1.9275  0.1509 -0.1149
  157SAPE   O3117506   4.141  -0.549  10.130  0.0619 -0.0347  0.6259
  157SAPE   C3117507   4.214  -0.660  10.129  0.6238 -0.1056  0.0261
  157SAPE   O3217508   4.239  -0.726  10.225  0.5030  0.1756 -0.3289
  157SAPE   C3217509   4.260  -0.686   9.987 -0.1537 -0.2497 -0.5086
  157SAPE   H2X17510   4.203  -0.625   9.914 -0.5798 -0.7756 -0.6153
  157SAPE   H2Y17511   4.253  -0.794   9.964  0.1418 -0.2851 -0.4353
  157SAPE   C2317512   4.365  -0.189   9.964  0.3260 -0.0254 -0.5436
  157SAPE   H3R17513   4.441  -0.269   9.947  1.4257  0.8701  0.1087
  157SAPE   H3S17514   4.401  -0.096   9.915  0.0977  0.7552  0.7489
  157SAPE   C2417515   4.226  -0.220   9.896  0.5580  0.5588 -0.0626
  157SAPE   H4R17516   4.166  -0.126   9.898 -0.0017  0.2269 -1.2149
  157SAPE   H4S17517   4.165  -0.300   9.942 -0.7842  0.0535 -2.6394
  157SAPE   C2517518   4.259  -0.255   9.758  0.1001  0.2189  0.1897
  157SAPE   H5R17519   4.251  -0.363   9.739 -1.1835  0.1457  1.1211
  157SAPE   C2617520   4.296  -0.164   9.664  0.1542  0.0986 -0.4034
  157SAPE   H6R17521   4.317  -0.193   9.560  0.1733 -1.2211 -0.0379
  157SAPE   C2717522   4.296  -0.010   9.682 -0.0574 -0.3012  0.5640
  157SAPE   H7R17523   4.263   0.032   9.779  2.3117 -1.6980  2.0280
  157SAPE   H7S17524   4.224   0.034   9.609  1.9551  0.2156 -1.1751
  157SAPE   C2817525   4.439   0.044   9.667  0.9413  0.1345 -0.4023
  157SAPE   H8R17526   4.517  -0.007   9.725  0.6101  0.2613  0.1566
  157SAPE   C2917527   4.470   0.160   9.612 -0.1807 -0.4539 -0.0701
  157SAPE   H9R17528   4.577   0.187   9.616 -0.2040 -0.2283 -0.7675
  157SAPE  C21017529   4.380   0.261   9.543  0.1351 -0.0131 -0.2795
  157SAPE  H10R17530   4.399   0.358   9.593 -0.9450 -0.3507  0.8190
  157SAPE  H10S17531   4.277   0.230   9.570  0.2950  0.2048  0.5905
  157SAPE  C21117532   4.387   0.264   9.390  0.1373  0.5108 -0.9402
  157SAPE  H11R17533   4.347   0.171   9.347 -0.1544  0.1605  0.0711
  157SAPE  C21217534   4.434   0.359   9.306  0.7764  0.1039 -0.2436
  157SAPE  H12R17535   4.416   0.341   9.199 -0.6736  0.7521 -0.1312
  157SAPE  C21317536   4.478   0.496   9.351  0.2284 -1.4355  0.1714
  157SAPE  H13R17537   4.577   0.479   9.398  1.1774 -0.9906 -1.5867
  157SAPE  H13S17538   4.414   0.537   9.432 -1.7472  1.4554 -2.6834
  157SAPE  C21417539   4.486   0.601   9.238  0.4792 -0.2660  0.3670
  157SAPE  H14R17540   4.409   0.679   9.239  0.4223 -0.3329  0.9860
  157SAPE  C21517541   4.584   0.620   9.139 -0.0500 -0.3775  0.1801
  157SAPE  H15R17542   4.571   0.710   9.077  0.0000  0.1621  0.9424
  157SAPE  C21617543   4.697   0.527   9.109  0.1578 -0.9494  0.4555
  157SAPE  H16R17544   4.689   0.501   9.001 -2.5292  1.0025  0.1429
  157SAPE  H16S17545   4.687   0.431   9.165  2.6913 -2.0148 -0.8072
  157SAPE  C21717546   4.838   0.571   9.139 -0.0162 -0.1467  0.0535
  157SAPE  H17R17547   4.847   0.574   9.250  1.6130  1.0886 -0.0927
  157SAPE  H17S17548   4.865   0.675   9.109  0.8830 -0.3640  0.0929
  157SAPE  C21817549   4.946   0.479   9.074  0.2220  0.2495 -0.0013
  157SAPE  H18R17550   5.046   0.523   9.093 -0.3054  0.9008  1.3659
  157SAPE  H18S17551   4.925   0.479   8.965 -1.4309 -0.9274  0.2901
  157SAPE  C21917552   4.936   0.340   9.124 -0.6108  0.0058  0.3097
  157SAPE  H19R17553   5.020   0.283   9.078 -1.2367 -0.6504 -0.0362
  157SAPE  H19S17554   4.842   0.296   9.086  0.0725 -0.6565 -0.6564
  157SAPE  C22017555   4.941   0.317   9.278  0.5268 -0.3603 -0.7137
  157SAPE  H20R17556   5.002   0.400   9.319  0.6952 -0.4420 -0.7964
  157SAPE  H20S17557   4.993   0.219   9.290  2.4494  0.5386 -1.5741
  157SAPE  H20T17558   4.842   0.311   9.327 -0.2195  3.3293 -1.6279
  157SAPE   C3317559   4.403  -0.636   9.964 -0.2436  0.1674 -0.4214
  157SAPE   H3X17560   4.483  -0.688  10.021  0.5919  2.2212  0.3101
  157SAPE   H3Y17561   4.414  -0.527   9.979 -2.8321  0.1232  2.3398
  157SAPE   C3417562   4.448  -0.664   9.814  0.1729  0.2361  0.2351
  157SAPE   H4X17563   4.411  -0.765   9.788 -2.9871  0.8458  2.1337
  157SAPE   H4Y17564   4.557  -0.681   9.799  0.7482  1.1034  3.0074
  157SAPE   C3517565   4.401  -0.561   9.714  0.0266  0.3787  0.0896
  157SAPE   H5X17566   4.449  -0.464   9.741  0.0668 -0.0680  1.6301
  157SAPE   H5Y17567   4.291  -0.553   9.727  0.1507  0.0105  1.3928
  157SAPE   C3617568   4.446  -0.590   9.566 -0.1796  0.0392 -0.8023
  157SAPE   H6X17569   4.534  -0.657   9.553 -0.0394  0.3784 -1.6616
  157SAPE   H6Y17570   4.484  -0.496   9.519  1.3212 -0.7336 -1.1737
  157SAPE   C3717571   4.328  -0.623   9.469  0.4205  0.3349  0.1001
  157SAPE   H7X17572   4.272  -0.711   9.506 -0.1078  0.0842 -1.2734
  157SAPE   H7Y17573   4.377  -0.650   9.374 -1.3844  0.7720 -0.9843
  157SAPE   C3817574   4.239  -0.502   9.445 -0.8737 -0.4607  0.5359
  157SAPE   H8X17575   4.306  -0.425   9.402  0.7155 -1.6020  0.9189
  157SAPE   H8Y17576   4.188  -0.466   9.536 -1.2503  0.5334 -0.0614
  157SAPE   C3917577   4.127  -0.525   9.347  0.0911 -0.5857  0.6515
  157SAPE   H9X17578   4.066  -0.613   9.376 -1.1069  0.0061 -0.0852
  157SAPE   H9Y17579   4.156  -0.527   9.240 -0.6283 -1.1155  0.4693
  157SAPE  C31017580   4.023  -0.401   9.352  0.1677  0.9825 -0.4462
  157SAPE  H10X17581   3.978  -0.406   9.454 -2.2423  2.0008 -1.4176
  157SAPE  H10Y17582   3.949  -0.437   9.277 -0.3662 -0.4176  0.7283
  157SAPE  C31117583   4.073  -0.261   9.329 -0.3217  0.0195  0.8971
  157SAPE  H11X17584   4.143  -0.246   9.414 -0.4805 -0.4622  1.1148
  157SAPE  H11Y17585   3.985  -0.196   9.351 -1.1018 -1.1682  1.3091
  157SAPE  C31217586   4.118  -0.226   9.185  0.2645  0.4984 -0.2590
  157SAPE  H12X17587   4.045  -0.269   9.113 -0.5655 -0.0919  0.9229
  157SAPE  H12Y17588   4.214  -0.277   9.164  0.8542  1.3045  0.4683
  157SAPE  C31317589   4.136  -0.082   9.155 -0.1642  0.1138 -0.5455
  157SAPE  H13X17590   4.182  -0.020   9.234 -0.8504 -0.2244  0.1221
  157SAPE  H13Y17591   4.034  -0.039   9.152 -1.1899 -1.9253  2.5805
  157SAPE  C31417592   4.212  -0.053   9.023 -0.8405 -0.4188 -0.2349
  157SAPE  H14X17593   4.316  -0.090   9.020  0.1505  2.2519  0.0674
  157SAPE  H14Y17594   4.241   0.054   9.028 -3.2496  0.2324  0.8681
  157SAPE  C31517595   4.134  -0.106   8.897 -0.2977 -0.1327 -0.2118
  157SAPE  H15X17596   4.026  -0.107   8.919  0.2835 -0.1392  2.7650
  157SAPE  H15Y17597   4.171  -0.210   8.884 -0.3999 -0.0617 -1.1255
  157SAPE  C31617598   4.162  -0.017   8.772 -0.0009  0.3513 -0.1182
  157SAPE  H16X17599   4.268   0.014   8.766  0.1724 -0.0353  0.8078
  157SAPE  H16Y17600   4.101   0.075   8.781 -0.6968  0.1122 -2.1043
  157SAPE  C31717601   4.125  -0.080   8.634  0.1441 -0.4312 -0.7642
  157SAPE  H17X17602   4.183  -0.174   8.621  2.4811  1.0592 -1.5241
  157SAPE  H17Y17603   4.150  -0.009   8.552 -1.2620  2.0722  0.9170
  157SAPE  C31817604   3.975  -0.120   8.624 -0.2298  0.1899 -0.0801
  157SAPE  H18X17605   3.913  -0.031   8.598  0.0251  0.4033  0.0347
  157SAPE  H18Y17606   3.944  -0.184   8.709  0.5639 -3.0934 -2.1861
  157SAPE  H18Z17607   3.974  -0.197   8.543 -1.9636  1.1743 -1.0252
  158SAPE     N17608   5.806   0.622  10.963  0.3248 -0.1293 -0.0353
  158SAPE   HN117609   5.831   0.599  11.061  2.6057  1.4486 -0.2176
  158SAPE   HN217610   5.868   0.582  10.889  1.0390 -0.5572  0.7906
  158SAPE   HN317611   5.813   0.725  10.953  1.1423 -0.2763 -1.0486
  158SAPE   C1217612   5.661   0.584  10.939 -0.8505 -0.3123  0.0173
  158SAPE  H12A17613   5.607   0.626  11.027 -2.3277  0.5276 -1.2648
  158SAPE  H12B17614   5.666   0.473  10.940 -0.1810 -0.2914 -0.4277
  158SAPE   C1117615   5.606   0.625  10.792 -0.1968  0.0529  0.4228
  158SAPE  H11A17616   5.585   0.733  10.779  0.5274  0.2395  0.7915
  158SAPE  H11B17617   5.506   0.578  10.805  0.3361 -1.2064  0.0465
  158SAPE     P17618   5.804   0.635  10.624 -0.1065 -0.1889  0.1379
  158SAPE   O1317619   5.773   0.775  10.597  0.0664 -0.4056 -0.0620
  158SAPE   O1417620   5.922   0.619  10.713  0.3832 -0.0233  0.1165
  158SAPE   O1217621   5.679   0.553  10.685 -0.1459 -0.3672 -0.0218
  158SAPE   O1117622   5.825   0.559  10.493  0.9140 -0.6115  1.0971
  158SAPE    C117623   5.863   0.424  10.483  0.8679 -0.5522 -0.3896
  158SAPE    HA17624   5.873   0.374  10.582 -0.0924 -1.7144 -0.8644
  158SAPE    HB17625   5.793   0.370  10.416  1.0755 -1.6300  0.2472
  158SAPE    C217626   6.005   0.407  10.426 -0.0676 -0.3395  0.3283
  158SAPE    HS17627   6.077   0.439  10.504  0.0127  2.1471 -0.6908
  158SAPE   O2117628   6.017   0.484  10.306 -0.3486 -0.4269 -0.0232
  158SAPE   C2117629   6.079   0.596  10.317 -0.5176  0.7636 -0.0273
  158SAPE   O2217630   6.124   0.645  10.419 -0.1307  0.0559  0.1679
  158SAPE   C2217631   6.099   0.657  10.183  0.3127 -0.0029 -0.2171
  158SAPE   H2R17632   6.005   0.656  10.124  0.3410 -1.3797 -0.2580
  158SAPE   H2S17633   6.121   0.766  10.189  1.0395 -0.1527 -0.0711
  158SAPE    C317634   6.050   0.263  10.386 -0.6287 -0.4552 -0.5974
  158SAPE    HX17635   5.958   0.212  10.351 -1.6626 -1.3522  3.1414
  158SAPE    HY17636   6.072   0.210  10.481 -0.6203  0.3766 -0.1266
  158SAPE   O3117637   6.150   0.241  10.285  0.3270  0.0327 -0.0723
  158SAPE   C3117638   6.278   0.264  10.327  0.1298 -0.1902 -0.0895
  158SAPE   O3217639   6.303   0.317  10.437 -0.2836  0.3146  0.0966
  158SAPE   C3217640   6.385   0.228  10.222  0.0389 -0.8049  0.2953
  158SAPE   H2X17641   6.411   0.120  10.229 -0.7080 -0.9735  0.5138
  158SAPE   H2Y17642   6.469   0.299  10.233 -2.6727  2.1951  2.4151
  158SAPE   C2317643   6.199   0.585  10.091  0.2796  0.7199 -0.8111
  158SAPE   H3R17644   6.146   0.496  10.050 -1.4535  1.6343 -0.6035
  158SAPE   H3S17645   6.282   0.548  10.154  0.2106 -0.0507 -1.1650
  158SAPE   C2417646   6.258   0.683   9.985 -0.0298 -0.6082  0.1448
  158SAPE   H4R17647   6.338   0.637   9.923 -2.3063 -0.2039 -3.2429
  158SAPE   H4S17648   6.299   0.768  10.044  0.6108 -0.7071 -0.1527
  158SAPE   C2517649   6.150   0.737   9.893 -0.7120  0.0637  0.1757
  158SAPE   H5R17650   6.073   0.783   9.956  0.1327 -0.4216  1.5928
  158SAPE   C2617651   6.155   0.754   9.761 -0.1097 -0.4991 -0.1121
  158SAPE   H6R17652   6.075   0.807   9.708  0.3564 -1.6842 -2.0449
  158SAPE   C2717653   6.263   0.690   9.675  0.5210 -0.0727  0.3311
  158SAPE   H7R17654   6.280   0.586   9.713 -3.2724 -1.4048 -1.3738
  158SAPE   H7S17655   6.361   0.743   9.677  0.0218  0.8390  0.7725
  158SAPE   C2817656   6.231   0.690   9.526  0.0595  0.2727  0.4893
  158SAPE   H8R17657   6.220   0.790   9.482  1.0065  0.1055 -0.1498
  158SAPE   C2917658   6.222   0.583   9.443  0.4927  0.1628 -0.0926
  158SAPE   H9R17659   6.189   0.597   9.339 -0.6805 -3.1653 -0.2193
  158SAPE  C21017660   6.238   0.436   9.481 -0.2127  1.0641  0.5391
  158SAPE  H10R17661   6.156   0.372   9.442  0.0521  1.8006 -1.2630
  158SAPE  H10S17662   6.247   0.405   9.587  0.9237  0.7275  0.3469
  158SAPE  C21117663   6.365   0.382   9.419 -0.0319 -0.2929  0.4269
  158SAPE  H11R17664   6.453   0.405   9.481 -0.2957 -1.4014  1.2339
  158SAPE  C21217665   6.388   0.323   9.298 -0.6163 -0.2365 -0.2897
  158SAPE  H12R17666   6.492   0.323   9.262 -0.5809  0.0097 -0.1914
  158SAPE  C21317667   6.285   0.291   9.192  0.0544 -0.1864  0.3128
  158SAPE  H13R17668   6.250   0.391   9.157  2.6354  0.3582 -0.8697
  158SAPE  H13S17669   6.198   0.248   9.246 -0.8334  0.6471 -0.4202
  158SAPE  C21417670   6.344   0.208   9.078  0.0837 -0.1131  0.0111
  158SAPE  H14R17671   6.407   0.125   9.113 -0.3692 -0.8090 -0.8228
  158SAPE  C21517672   6.326   0.230   8.945  0.3972  0.3235 -0.0387
  158SAPE  H15R17673   6.386   0.166   8.879  1.3445  0.4330  0.6968
  158SAPE  C21617674   6.237   0.330   8.875  0.2016 -0.1232 -0.6856
  158SAPE  H16R17675   6.172   0.381   8.949 -1.3862 -1.9520 -0.7670
  158SAPE  H16S17676   6.173   0.276   8.802 -1.1028  0.4592  0.0054
  158SAPE  C21717677   6.332   0.428   8.805 -0.3411 -0.2954  0.0836
  158SAPE  H17R17678   6.415   0.380   8.748  0.1394 -0.4989  0.9498
  158SAPE  H17S17679   6.385   0.487   8.882  1.1193 -0.8682 -0.4534
  158SAPE  C21817680   6.259   0.541   8.717  0.4672  0.1796 -0.0870
  158SAPE  H18R17681   6.198   0.602   8.786  0.2501 -1.2130  0.9652
  158SAPE  H18S17682   6.194   0.486   8.645  2.3562 -0.4063 -1.3789
  158SAPE  C21917683   6.356   0.626   8.632 -0.2476 -0.1592 -0.0068
  158SAPE  H19R17684   6.396   0.562   8.551  1.5842 -2.3615  2.5618
  158SAPE  H19S17685   6.441   0.648   8.700 -0.9290  2.3497  0.0787
  158SAPE  C22017686   6.296   0.742   8.557 -0.5309 -0.5565 -0.4919
  158SAPE  H20R17687   6.255   0.818   8.626  0.2755  0.2138 -0.8437
  158SAPE  H20S17688   6.212   0.708   8.492 -1.7511  0.0368  0.7563
  158SAPE  H20T17689   6.381   0.782   8.497  0.1085 -1.0182  0.1022
  158SAPE   C3317690   6.326   0.237  10.077 -0.1424  0.0313 -0.1604
  158SAPE   H3X17691   6.308   0.342  10.046 -2.0466  0.3148  1.8054
  158SAPE   H3Y17692   6.240   0.170  10.055  1.1251 -0.4934 -4.0139
  158SAPE   C3417693   6.444   0.184   9.987  0.3285  0.9098 -0.0007
  158SAPE   H4X17694   6.465   0.078  10.014 -1.0717  1.1975  2.4590
  158SAPE   H4Y17695   6.530   0.253  10.004  0.0546  1.9268 -2.5474
  158SAPE   C3517696   6.410   0.208   9.837 -0.3888  0.0764 -0.5357
  158SAPE   H5X17697   6.512   0.227   9.797 -0.0671 -1.4628 -0.4555
  158SAPE   H5Y17698   6.364   0.306   9.812  1.4343  1.0179 -0.2628
  158SAPE   C3617699   6.335   0.094   9.775 -0.0377 -0.2108 -0.1882
  158SAPE   H6X17700   6.225   0.103   9.788 -0.3959 -1.0953 -2.3269
  158SAPE   H6Y17701   6.375   0.003   9.824 -0.6160  0.4629  1.5879
  158SAPE   C3717702   6.345   0.081   9.623 -0.0201  0.0350 -0.3426
  158SAPE   H7X17703   6.448   0.041   9.617  0.2299  0.7342 -0.7806
  158SAPE   H7Y17704   6.334   0.181   9.576  0.1118  0.1636 -0.1048
  158SAPE   C3817705   6.241  -0.020   9.568  0.0508  0.2662  0.2106
  158SAPE   H8X17706   6.137   0.016   9.582  0.0389 -1.1099  4.1534
  158SAPE   H8Y17707   6.248  -0.117   9.622 -0.5880 -0.2383 -0.6091
  158SAPE   C3917708   6.255  -0.039   9.412 -0.3430 -0.6569  0.3153
  158SAPE   H9X17709   6.359  -0.001   9.403 -0.8012  1.0854  2.1322
  158SAPE   H9Y17710   6.190   0.038   9.364  0.0540 -1.0877 -0.9334
  158SAPE  C31017711   6.235  -0.177   9.353 -0.4733 -0.1330  0.0462
  158SAPE  H10X17712   6.131  -0.214   9.368 -0.3469  0.2502  2.0259
  158SAPE  H10Y17713   6.302  -0.236   9.418 -1.3550 -1.1289  0.0720
  158SAPE  C31117714   6.272  -0.170   9.203  0.7254  0.3136 -0.0378
  158SAPE  H11X17715   6.304  -0.275   9.183  0.4732  0.2664 -0.1955
  158SAPE  H11Y17716   6.356  -0.100   9.182 -1.3411  2.9946  0.4189
  158SAPE  C31217717   6.147  -0.134   9.117  0.1429  0.6574 -0.0850
  158SAPE  H12X17718   6.138  -0.026   9.142  3.3624  0.8323  0.5703
  158SAPE  H12Y17719   6.050  -0.181   9.142  0.4743  0.5994  1.1342
  158SAPE  C31317720   6.185  -0.151   8.972 -0.2473 -0.2225  0.7087
  158SAPE  H13X17721   6.185  -0.261   8.959  2.0611 -0.2387  0.4561
  158SAPE  H13Y17722   6.286  -0.118   8.939 -0.9103  0.1878 -0.9888
  158SAPE  C31417723   6.079  -0.081   8.886 -0.2390  0.1357  0.0718
  158SAPE  H14X17724   6.107   0.026   8.890  1.2258 -0.3043  2.3476
  158SAPE  H14Y17725   5.978  -0.094   8.930  0.0103  0.3613  0.7193
  158SAPE  C31517726   6.072  -0.138   8.738 -0.6183 -0.8032  0.6206
  158SAPE  H15X17727   6.069  -0.249   8.731  0.1064 -0.8311  0.6694
  158SAPE  H15Y17728   6.174  -0.122   8.696 -1.1320  1.6940  0.2754
  158SAPE  C31617729   5.969  -0.072   8.645 -0.3444 -0.5000  0.0351
  158SAPE  H16X17730   5.978   0.038   8.658  0.2666 -0.5603  0.1576
  158SAPE  H16Y17731   5.868  -0.105   8.677  0.0332 -3.2701 -1.4828
  158SAPE  C31717732   5.982  -0.093   8.500  0.3447  0.0281  0.1237
  158SAPE  H17X17733   6.081  -0.055   8.467  1.0952  0.4992  2.8462
  158SAPE  H17Y17734   5.905  -0.035   8.444 -0.1253  1.4941  2.2363
  158SAPE  C31817735   5.968  -0.234   8.455 -0.5067 -0.0681  0.3645
  158SAPE  H18X17736   5.874  -0.287   8.481  0.0865 -1.9743 -1.2185
  158SAPE  H18Y17737   6.049  -0.296   8.499 -0.3790 -1.2136 -1.4293
  158SAPE  H18Z17738   5.976  -0.251   8.345 -1.5073  0.4041  0.2127
  159SAPE     N17739   5.393   4.153   6.481  0.7880 -0.7513 -0.1733
  159SAPE   HN117740   5.303   4.132   6.433  0.0407 -0.9629  1.3137
  159SAPE   HN217741   5.393   4.109   6.575 -1.8289  1.9053  1.1890
  159SAPE   HN317742   5.395   4.254   6.505  0.4230 -0.4798 -1.2441
  159SAPE   C1217743   5.499   4.113   6.385 -0.3183 -0.3079 -0.5112
  159SAPE  H12A17744   5.595   4.158   6.418  0.3195 -1.6136 -0.5456
  159SAPE  H12B17745   5.461   4.150   6.287 -1.9206 -1.0020 -0.1719
  159SAPE   C1117746   5.517   3.964   6.377  0.3435 -0.1021  0.2284
  159SAPE  H11A17747   5.606   3.946   6.312  2.0030 -0.8964  2.6528
  159SAPE  H11B17748   5.426   3.916   6.335  0.3836 -0.6078  0.7207
  159SAPE     P17749   5.526   3.749   6.523  0.0371  0.3424 -0.4384
  159SAPE   O1317750   5.378   3.726   6.534 -0.2542 -0.0643 -0.1255
  159SAPE   O1417751   5.595   3.665   6.421  0.2585  0.5435 -0.1733
  159SAPE   O1217752   5.555   3.903   6.493 -0.3469 -0.3478 -0.3758
  159SAPE   O1117753   5.587   3.710   6.671  0.2803 -0.3332  0.3296
  159SAPE    C117754   5.725   3.661   6.669 -0.3379 -0.2966 -0.6027
  159SAPE    HA17755   5.730   3.552   6.648  0.6710 -0.2567 -0.5884
  159SAPE    HB17756   5.781   3.714   6.589 -1.0050 -0.7279 -1.3644
  159SAPE    C217757   5.790   3.699   6.805  0.2499  0.7509 -0.6023
  159SAPE    HS17758   5.885   3.642   6.815 -0.0265  0.4797  0.5104
  159SAPE   O2117759   5.702   3.677   6.917 -0.2219 -0.1981  0.1806
  159SAPE   C2117760   5.687   3.547   6.941 -0.3827  0.5192  0.4332
  159SAPE   O2217761   5.757   3.460   6.890  0.6046  0.9247 -0.2118
  159SAPE   C2217762   5.590   3.516   7.051  0.0008  1.0097 -0.6184
  159SAPE   H2R17763   5.494   3.520   6.994 -0.0392 -3.2168 -1.0350
  159SAPE   H2S17764   5.606   3.417   7.100 -1.2864  1.0148 -0.1461
  159SAPE    C317765   5.822   3.855   6.798  0.4698 -0.2328  0.3883
  159SAPE    HX17766   5.721   3.900   6.787  1.1496  0.9583 -1.2256
  159SAPE    HY17767   5.883   3.878   6.708 -1.3847  3.1238 -0.0922
  159SAPE   O3117768   5.886   3.905   6.916  0.1156  0.0992 -0.0229
  159SAPE   C3117769   5.813   3.964   7.008 -0.4936  0.2390  0.9605
  159SAPE   O3217770   5.695   3.993   7.005 -0.2228 -0.1078 -0.0803
  159SAPE   C3217771   5.900   4.006   7.127 -0.9702  0.3070 -0.3458
  159SAPE   H2X17772   5.954   4.091   7.082 -1.2141  0.7443  0.1838
  159SAPE   H2Y17773   5.965   3.919   7.153 -1.0301  0.6389  0.9662
  159SAPE   C2317774   5.578   3.619   7.165  0.1858  1.0641  0.3247
  159SAPE   H3R17775   5.483   3.610   7.222 -0.3028 -0.4173 -0.6956
  159SAPE   H3S17776   5.573   3.720   7.117  1.0007  2.2756  2.7155
  159SAPE   C2417777   5.697   3.618   7.264  0.0072 -0.2222 -0.1770
  159SAPE   H4R17778   5.708   3.727   7.279  1.0025 -0.2087 -0.8881
  159SAPE   H4S17779   5.791   3.584   7.215 -0.8622 -0.4231 -1.7479
  159SAPE   C2517780   5.675   3.543   7.390 -0.3371 -0.9788  0.9677
  159SAPE   H5R17781   5.590   3.473   7.396 -0.5742 -0.5843  2.4091
  159SAPE   C2617782   5.758   3.548   7.498  0.0385  0.2366  0.6588
  159SAPE   H6R17783   5.728   3.488   7.585  0.9748 -1.6908 -0.3037
  159SAPE   C2717784   5.886   3.627   7.504  0.0965 -0.4110 -0.2324
  159SAPE   H7R17785   5.924   3.639   7.400 -2.5846  0.5273 -1.1503
  159SAPE   H7S17786   5.961   3.572   7.565  0.8991  1.7276  0.7484
  159SAPE   C2817787   5.865   3.764   7.571 -0.5127  0.3126 -0.2281
  159SAPE   H8R17788   5.844   3.853   7.510 -0.0825  1.6364  1.5165
  159SAPE   C2917789   5.872   3.789   7.705 -0.4450 -0.0822 -0.1228
  159SAPE   H9R17790   5.854   3.893   7.736 -0.6496  0.0146 -0.5570
  159SAPE  C21017791   5.892   3.687   7.822  0.6209  0.2268 -0.0854
  159SAPE  H10R17792   5.829   3.599   7.797  0.2894  0.7031 -0.9456
  159SAPE  H10S17793   5.850   3.730   7.916 -0.1876  0.3396 -0.4931
  159SAPE  C21117794   6.038   3.640   7.838  0.4461  0.2460  0.5791
  159SAPE  H11R17795   6.080   3.603   7.743 -1.8333  0.5847 -0.6062
  159SAPE  C21217796   6.120   3.650   7.947  0.7960  0.6254 -0.1825
  159SAPE  H12R17797   6.227   3.624   7.945  0.3634 -1.4010  1.3221
  159SAPE  C21317798   6.063   3.695   8.083 -0.4024 -0.6629 -0.8598
  159SAPE  H13R17799   6.005   3.603   8.107 -1.0290 -0.8551 -3.0268
  159SAPE  H13S17800   5.991   3.779   8.077  0.7678  0.3812 -0.3794
  159SAPE  C21417801   6.164   3.728   8.189  0.3368  0.1406 -0.1057
  159SAPE  H14R17802   6.262   3.752   8.146  0.5312  0.7422  0.6635
  159SAPE  C21517803   6.152   3.728   8.325  0.6499 -0.0247 -0.4422
  159SAPE  H15R17804   6.243   3.750   8.382  0.2159  0.2052  0.1688
  159SAPE  C21617805   6.025   3.688   8.404  0.2603 -0.3071  0.0104
  159SAPE  H16R17806   5.939   3.673   8.335 -0.7958  1.0514  1.0107
  159SAPE  H16S17807   6.000   3.780   8.461 -2.8778 -0.4857 -0.9814
  159SAPE  C21717808   6.067   3.573   8.498  0.4374  0.1291 -1.2853
  159SAPE  H17R17809   6.126   3.495   8.446  0.0767 -0.9753 -0.0899
  159SAPE  H17S17810   5.976   3.518   8.531  0.8604  0.0360 -0.2511
  159SAPE  C21817811   6.156   3.609   8.618 -0.1075 -0.0993 -0.1051
  159SAPE  H18R17812   6.208   3.702   8.585 -1.0682  0.7941  0.8469
  159SAPE  H18S17813   6.231   3.529   8.633 -0.2318 -0.6281 -2.1357
  159SAPE  C21917814   6.091   3.634   8.754 -0.2228  0.0277 -0.4747
  159SAPE  H19R17815   6.166   3.643   8.835 -0.3399 -1.1404 -0.2336
  159SAPE  H19S17816   6.037   3.540   8.778  2.1211 -1.4512 -0.8766
  159SAPE  C22017817   5.998   3.760   8.746 -0.1190  0.7171 -0.4590
  159SAPE  H20R17818   5.925   3.756   8.662 -1.2260  1.9919  0.4158
  159SAPE  H20S17819   6.057   3.854   8.746 -0.9440  1.2498 -0.3015
  159SAPE  H20T17820   5.937   3.766   8.839  0.6609  3.2140 -0.0815
  159SAPE   C3317821   5.816   4.052   7.251 -0.3798  0.7772  0.2939
  159SAPE   H3X17822   5.757   3.967   7.290 -0.5073  0.1021 -1.3206
  159SAPE   H3Y17823   5.739   4.128   7.226  0.2848  1.9070  1.5860
  159SAPE   C3417824   5.900   4.105   7.369  0.4818 -0.0318  0.0536
  159SAPE   H4X17825   5.974   4.178   7.329  0.2888 -0.5505 -1.2686
  159SAPE   H4Y17826   5.972   4.031   7.410 -1.4765 -0.8927  2.0329
  159SAPE   C3517827   5.820   4.156   7.488  0.4023  0.0113  0.7966
  159SAPE   H5X17828   5.770   4.069   7.535 -1.0238  0.1394 -0.4543
  159SAPE   H5Y17829   5.728   4.201   7.447  0.3365 -0.6740  0.1739
  159SAPE   C3617830   5.900   4.248   7.578 -0.0887 -0.0147 -0.2508
  159SAPE   H6X17831   5.965   4.309   7.512  0.3229 -0.6011 -0.3863
  159SAPE   H6Y17832   5.965   4.182   7.638  0.7917 -1.2050 -2.4466
  159SAPE   C3717833   5.813   4.332   7.669 -0.0100 -0.5965 -1.0779
  159SAPE   H7X17834   5.766   4.395   7.591 -2.5443  0.3852  1.1451
  159SAPE   H7Y17835   5.885   4.391   7.731 -0.2653  0.7313 -2.0117
  159SAPE   C3817836   5.714   4.259   7.762  0.7400 -0.0587 -0.5757
  159SAPE   H8X17837   5.650   4.195   7.698  0.4675 -0.0054 -0.3626
  159SAPE   H8Y17838   5.655   4.326   7.829 -0.1791 -1.1973 -0.2244
  159SAPE   C3917839   5.783   4.156   7.852  0.2480  0.0037  0.2691
  159SAPE   H9X17840   5.850   4.096   7.787  2.2712 -0.2057  2.4368
  159SAPE   H9Y17841   5.700   4.090   7.884 -0.9975  1.6148  0.4187
  159SAPE  C31017842   5.846   4.205   7.979  0.3279  0.0682  0.0850
  159SAPE  H10X17843   5.767   4.229   8.053 -1.6560 -2.2969 -1.2134
  159SAPE  H10Y17844   5.914   4.291   7.958  1.5129 -1.3573 -2.0312
  159SAPE  C31117845   5.927   4.089   8.035  0.6130 -0.7878  0.5528
  159SAPE  H11X17846   6.006   4.056   7.966 -0.3221 -0.9610 -0.4506
  159SAPE  H11Y17847   5.861   4.001   8.050 -0.3216 -0.6501 -2.3538
  159SAPE  C31217848   5.997   4.114   8.162 -0.2027 -0.3519 -1.0199
  159SAPE  H12X17849   6.062   4.202   8.144  2.2773 -1.8083  0.4583
  159SAPE  H12Y17850   6.062   4.025   8.180  0.0335 -0.7017 -3.4479
  159SAPE  C31317851   5.907   4.122   8.291 -0.2388  0.5492  1.0444
  159SAPE  H13X17852   5.823   4.049   8.290 -0.5153  0.8620 -0.4616
  159SAPE  H13Y17853   5.861   4.223   8.293  0.1385  0.7109  1.6364
  159SAPE  C31417854   5.980   4.092   8.420 -0.6482  0.3682  0.1730
  159SAPE  H14X17855   6.075   4.149   8.416 -0.5438  0.0775 -4.0658
  159SAPE  H14Y17856   6.013   3.987   8.435  1.1327  0.7010 -1.2324
  159SAPE  C31517857   5.895   4.140   8.542 -0.1160 -0.3101  0.7816
  159SAPE  H15X17858   5.888   4.250   8.533 -2.7420 -0.4594  0.7686
  159SAPE  H15Y17859   5.951   4.124   8.637  2.0028 -1.1862 -0.5634
  159SAPE  C31617860   5.758   4.067   8.560  0.1416 -0.0895  0.0564
  159SAPE  H16X17861   5.760   3.964   8.601 -0.2376  0.2509  0.9458
  159SAPE  H16Y17862   5.700   4.073   8.465  0.1880  3.1800  0.1954
  159SAPE  C31717863   5.674   4.142   8.664 -0.2210  0.1858 -0.3039
  159SAPE  H17X17864   5.586   4.194   8.621 -0.0186  2.0177  1.4190
  159SAPE  H17Y17865   5.735   4.223   8.711 -0.7997  0.2298  0.3760
  159SAPE  C31817866   5.624   4.047   8.766  0.2063  0.6539 -0.0921
  159SAPE  H18X17867   5.594   4.101   8.859 -0.0306 -1.1874  0.9402
  159SAPE  H18Y17868   5.703   3.977   8.800  1.2008  0.7383 -2.1922
  159SAPE  H18Z17869   5.541   3.981   8.731  0.1411  0.9210 -0.4367
  160SAPE     N17870   3.947   5.078   6.353 -0.2370  0.2364  0.5234
  160SAPE   HN117871   3.976   5.161   6.409 -1.1251  0.9141 -0.0088
  160SAPE   HN217872   3.843   5.086   6.343 -0.5727 -0.3416  3.0018
  160SAPE   HN317873   3.971   4.993   6.408  0.4027 -0.5637 -0.9693
  160SAPE   C1217874   4.012   5.075   6.218  0.7338 -0.2136  0.0941
  160SAPE  H12A17875   3.931   5.053   6.145 -0.6171 -0.9600  1.7831
  160SAPE  H12B17876   4.088   4.994   6.224 -0.3329 -1.3119 -0.9223
  160SAPE   C1117877   4.087   5.208   6.193  0.0091 -0.4770  0.0379
  160SAPE  H11A17878   4.024   5.299   6.193 -1.5848 -1.5424  2.1112
  160SAPE  H11B17879   4.126   5.204   6.089  0.9585  0.3889  0.3492
  160SAPE     P17880   4.205   5.329   6.383  0.1257 -0.1089 -0.4224
  160SAPE   O1317881   4.219   5.457   6.310 -0.2630  0.9878  0.0716
  160SAPE   O1417882   4.088   5.304   6.473  0.1284 -0.1141 -0.4048
  160SAPE   O1217883   4.211   5.219   6.271 -0.0140 -0.0855  0.6182
  160SAPE   O1117884   4.339   5.292   6.455 -0.3365  0.4181 -0.5749
  160SAPE    C117885   4.359   5.157   6.511  0.2023 -0.5042 -0.4928
  160SAPE    HA17886   4.271   5.091   6.500 -0.3682  0.1721  0.0188
  160SAPE    HB17887   4.449   5.112   6.462  0.0232 -2.9573  1.3559
  160SAPE    C217888   4.427   5.171   6.653 -0.9244 -0.3727 -0.1966
  160SAPE    HS17889   4.445   5.067   6.687 -2.2877 -1.0459 -1.4686
  160SAPE   O2117890   4.339   5.231   6.752 -0.2184 -0.4721 -0.5487
  160SAPE   C2117891   4.230   5.180   6.794  0.5680  0.1034 -0.0509
  160SAPE   O2217892   4.193   5.063   6.763 -0.0077  0.0882  0.0736
  160SAPE   C2217893   4.151   5.274   6.887  0.6732  0.8206 -0.1841
  160SAPE   H2R17894   4.218   5.313   6.967  0.1935  1.1266  0.0728
  160SAPE   H2S17895   4.118   5.354   6.816 -2.1508  0.8823  1.1424
  160SAPE    C317896   4.566   5.242   6.647  0.0297  0.0119  0.1133
  160SAPE    HX17897   4.553   5.348   6.618 -0.0580  0.3023  1.1953
  160SAPE    HY17898   4.622   5.188   6.567  1.4300 -0.1821  1.1871
  160SAPE   O3117899   4.634   5.211   6.772 -0.6694  0.7181 -0.0791
  160SAPE   C3117900   4.630   5.295   6.875  0.2388  0.3257  0.2200
  160SAPE   O3217901   4.568   5.402   6.877  0.7282  0.9073 -0.2308
  160SAPE   C3217902   4.714   5.244   6.991 -0.1373  0.1716  0.3292
  160SAPE   H2X17903   4.816   5.275   6.958  0.0477 -0.2403  0.5215
  160SAPE   H2Y17904   4.705   5.134   7.003  0.9764  0.0461  0.0935
  160SAPE   C2317905   4.032   5.212   6.958 -0.4097  0.0333  0.3076
  160SAPE   H3R17906   4.069   5.147   7.040 -0.4890 -1.1017 -0.5455
  160SAPE   H3S17907   3.971   5.153   6.886 -0.6350  0.7537 -0.1014
  160SAPE   C2417908   3.938   5.328   7.012  0.4353  0.2278  0.0787
  160SAPE   H4R17909   3.906   5.386   6.923  0.7529  1.1323  0.5575
  160SAPE   H4S17910   3.997   5.380   7.090 -1.5092  1.9368  0.4500
  160SAPE   C2517911   3.814   5.268   7.062  0.3563  0.3845 -0.1574
  160SAPE   H5R17912   3.745   5.242   6.980 -0.9131 -0.8682  1.2542
  160SAPE   C2617913   3.779   5.249   7.194 -0.3611 -0.4728  0.2891
  160SAPE   H6R17914   3.679   5.211   7.223 -0.9410 -0.4353 -1.5743
  160SAPE   C2717915   3.862   5.289   7.312 -0.1916 -0.2939  0.4401
  160SAPE   H7R17916   3.911   5.387   7.291 -1.1158  0.1197  0.1947
  160SAPE   H7S17917   3.945   5.215   7.323 -0.3576 -1.0464 -2.8955
  160SAPE   C2817918   3.764   5.296   7.431 -0.4305  0.0518  0.0657
  160SAPE   H8R17919   3.665   5.339   7.412 -0.0777  2.2663  2.9221
  160SAPE   C2917920   3.792   5.271   7.552  0.1502 -0.1101  0.3082
  160SAPE   H9R17921   3.711   5.280   7.625  1.3593  0.9137  1.5486
  160SAPE  C21017922   3.927   5.222   7.607 -0.3720 -0.3898  0.4011
  160SAPE  H10R17923   4.012   5.214   7.536 -0.4820 -2.8238  0.4764
  160SAPE  H10S17924   3.918   5.117   7.643 -0.6071  0.6381  3.5020
  160SAPE  C21117925   3.982   5.313   7.712  0.2530 -0.4887 -0.2240
  160SAPE  H11R17926   4.008   5.409   7.665 -0.1698  0.2541  1.0335
  160SAPE  C21217927   4.032   5.283   7.834  0.1282  0.1351  0.3144
  160SAPE  H12R17928   4.076   5.360   7.899  1.6635 -0.6431  0.1983
  160SAPE  C21317929   4.035   5.148   7.899  0.1448  0.5585 -0.0213
  160SAPE  H13R17930   4.121   5.169   7.966  0.0316 -2.8791  1.3144
  160SAPE  H13S17931   4.080   5.076   7.827 -0.5774 -0.0305  0.1135
  160SAPE  C21417932   3.919   5.078   7.963  0.6896 -0.8389 -0.2193
  160SAPE  H14R17933   3.837   5.058   7.893 -0.9010 -0.6758  1.5263
  160SAPE  C21517934   3.912   5.039   8.091 -0.2365  0.2641 -0.0933
  160SAPE  H15R17935   3.822   4.984   8.124 -1.1161  1.3623 -0.6322
  160SAPE  C21617936   4.018   5.046   8.198 -0.1356  0.1563 -0.0143
  160SAPE  H16R17937   4.115   5.081   8.158  1.4367 -2.0996  1.7201
  160SAPE  H16S17938   4.032   4.949   8.250 -4.3045 -0.8509 -0.5527
  160SAPE  C21717939   3.965   5.138   8.315  0.2078  0.1753  0.6409
  160SAPE  H17R17940   4.034   5.128   8.402 -1.7783  1.3609  2.4035
  160SAPE  H17S17941   3.863   5.107   8.348 -0.9133  4.1007  1.0953
  160SAPE  C21817942   3.932   5.285   8.287  0.1209  0.2909  0.1005
  160SAPE  H18R17943   3.894   5.343   8.374 -0.4192 -0.6261  0.4780
  160SAPE  H18S17944   3.847   5.290   8.215  0.2130  1.1998  0.0529
  160SAPE  C21917945   4.051   5.373   8.231 -0.1075  0.3498 -0.7387
  160SAPE  H19R17946   4.006   5.460   8.178 -1.7552  0.5995  1.0361
  160SAPE  H19S17947   4.117   5.307   8.171  0.0137  0.1270 -0.3648
  160SAPE  C22017948   4.134   5.426   8.338 -0.1184 -0.0930 -0.1263
  160SAPE  H20R17949   4.071   5.466   8.420 -1.2072 -0.3805 -0.8094
  160SAPE  H20S17950   4.191   5.515   8.305  0.3135 -0.5571 -0.6280
  160SAPE  H20T17951   4.197   5.347   8.385 -0.1209 -0.7674 -1.2526
  160SAPE   C3317952   4.696   5.313   7.123 -0.3133 -0.2829  0.9992
  160SAPE   H3X17953   4.730   5.419   7.115 -0.5071 -0.2957 -0.0826
  160SAPE   H3Y17954   4.762   5.273   7.203  0.9090 -2.6154 -1.1399
  160SAPE   C3417955   4.553   5.316   7.177 -0.2352 -0.2872 -0.1073
  160SAPE   H4X17956   4.508   5.215   7.173 -0.3559 -0.1715 -2.4863
  160SAPE   H4Y17957   4.496   5.369   7.098  1.4620  0.2834 -0.9868
  160SAPE   C3517958   4.527   5.394   7.304  1.0043 -0.4136  0.3827
  160SAPE   H5X17959   4.417   5.399   7.318  0.9415  0.6468 -0.4570
  160SAPE   H5Y17960   4.556   5.501   7.296  0.0750 -0.2809 -1.4319
  160SAPE   C3617961   4.586   5.338   7.437 -0.0904 -0.0826  0.2945
  160SAPE   H6X17962   4.694   5.325   7.415 -0.4012 -0.9274 -0.7648
  160SAPE   H6Y17963   4.558   5.234   7.461  0.6004 -0.2277  0.4651
  160SAPE   C3717964   4.563   5.435   7.555 -0.6956  0.3815 -0.5616
  160SAPE   H7X17965   4.462   5.477   7.577  0.2870  1.8247  1.3710
  160SAPE   H7Y17966   4.614   5.530   7.532 -0.4984 -0.1306 -2.3381
  160SAPE   C3817967   4.623   5.383   7.690  0.2626 -0.3263  0.5382
  160SAPE   H8X17968   4.733   5.370   7.693  0.0496 -2.1546  0.9568
  160SAPE   H8Y17969   4.577   5.283   7.707 -0.6791  0.1335  0.7752
  160SAPE   C3917970   4.588   5.475   7.808  0.5763 -0.3899 -0.3401
  160SAPE   H9X17971   4.478   5.487   7.800  0.6993  0.0230 -1.4953
  160SAPE   H9Y17972   4.630   5.578   7.816  0.1470 -0.1646 -0.9308
  160SAPE  C31017973   4.624   5.409   7.943  0.5602  0.6519  0.0077
  160SAPE  H10X17974   4.724   5.361   7.947  0.7015  0.8137 -1.2735
  160SAPE  H10Y17975   4.548   5.331   7.962  1.6656  0.3853  3.6093
  160SAPE  C31117976   4.618   5.498   8.074 -0.3529 -0.5459  0.0110
  160SAPE  H11X17977   4.663   5.599   8.067  0.4054 -0.8774 -0.0175
  160SAPE  H11Y17978   4.677   5.444   8.151 -3.3020 -1.9219  1.3628
  160SAPE  C31217979   4.476   5.522   8.125 -0.2175 -0.6229 -0.2625
  160SAPE  H12X17980   4.419   5.428   8.133  0.5190 -1.0720 -0.2124
  160SAPE  H12Y17981   4.433   5.582   8.042  1.2239  0.8720  0.0374
  160SAPE  C31317982   4.469   5.604   8.255 -0.5962 -0.8076  0.2071
  160SAPE  H13X17983   4.361   5.625   8.269 -0.1201  2.5363 -0.6759
  160SAPE  H13Y17984   4.520   5.703   8.245 -0.7411 -0.5993  1.3800
  160SAPE  C31417985   4.520   5.520   8.379  0.5775  0.2585  0.1792
  160SAPE  H14X17986   4.626   5.488   8.365  0.5449 -0.5079  1.4927
  160SAPE  H14Y17987   4.465   5.423   8.376 -0.2599  0.7100  0.7671
  160SAPE  C31517988   4.509   5.574   8.523 -0.2734 -0.0313 -0.5974
  160SAPE  H15X17989   4.415   5.634   8.525 -0.3924 -0.2349  1.4313
  160SAPE  H15Y17990   4.595   5.644   8.534  0.7578 -1.2418 -0.8701
  160SAPE  C31617991   4.513   5.469   8.630  0.3536 -0.2092  0.4067
  160SAPE  H16X17992   4.609   5.415   8.616  0.1808 -0.1119 -1.2833
  160SAPE  H16Y17993   4.425   5.403   8.617 -2.0135  2.6554  1.3547
  160SAPE  C31717994   4.513   5.522   8.768  0.8234 -0.1391 -0.4931
  160SAPE  H17X17995   4.583   5.609   8.772  0.4100  0.1314  1.9319
  160SAPE  H17Y17996   4.559   5.441   8.829 -0.4894  0.3365  1.1500
  160SAPE  C31817997   4.383   5.560   8.825  0.3431  0.1221 -0.1943
  160SAPE  H18X17998   4.392   5.614   8.922  0.4698  1.8065 -1.1207
  160SAPE  H18Y17999   4.313   5.474   8.829  0.7884 -0.2177  0.5486
  160SAPE  H18Z18000   4.332   5.633   8.759  0.2816  1.5924  1.4289
  161SAPE     N18001   6.013   3.738   6.293 -0.1952 -0.3846 -0.3921
  161SAPE   HN118002   5.993   3.665   6.365 -1.2215  0.8484  0.6024
  161SAPE   HN218003   6.044   3.815   6.355  0.6268 -1.4383  0.5264
  161SAPE   HN318004   5.925   3.755   6.240 -0.3468 -0.7177 -0.2479
  161SAPE   C1218005   6.132   3.698   6.209 -0.4545 -0.2471  0.1360
  161SAPE  H12A18006   6.160   3.791   6.155  0.5972 -0.5737  0.1041
  161SAPE  H12B18007   6.098   3.627   6.131 -1.6506  0.1888  0.2518
  161SAPE   C1118008   6.250   3.649   6.290 -0.2083  0.5247  0.4784
  161SAPE  H11A18009   6.239   3.560   6.356  0.2975 -1.0425 -1.5007
  161SAPE  H11B18010   6.275   3.720   6.371  1.6133 -0.4491  0.8053
  161SAPE     P18011   6.483   3.723   6.208  0.2480  0.0308 -0.3202
  161SAPE   O1318012   6.594   3.669   6.126 -0.2402 -0.2238  0.1493
  161SAPE   O1418013   6.426   3.851   6.161  0.0339 -0.2462  0.2169
  161SAPE   O1218014   6.361   3.619   6.202 -0.1120 -0.5901 -0.1110
  161SAPE   O1118015   6.522   3.731   6.358 -0.5265  0.5485  0.1692
  161SAPE    C118016   6.637   3.666   6.416 -0.1087 -0.2134 -0.5902
  161SAPE    HA18017   6.693   3.608   6.339 -2.7418  1.6880 -4.0975
  161SAPE    HB18018   6.706   3.748   6.446  0.1016 -0.2660 -0.9162
  161SAPE    C218019   6.585   3.592   6.539  0.3966  0.8171 -0.7196
  161SAPE    HS18020   6.499   3.530   6.505  1.6744 -2.3128  1.5325
  161SAPE   O2118021   6.526   3.686   6.629 -0.4497  0.5088 -0.2897
  161SAPE   C2118022   6.399   3.674   6.672  0.4185 -0.5543  0.3883
  161SAPE   O2218023   6.316   3.601   6.626  0.4601 -0.7686  0.1690
  161SAPE   C2218024   6.365   3.782   6.775  0.3689  0.1602 -0.4077
  161SAPE   H2R18025   6.455   3.794   6.840 -0.9590  1.6710  1.2087
  161SAPE   H2S18026   6.356   3.877   6.718 -0.5806  1.6966  2.2157
  161SAPE    C318027   6.688   3.508   6.608 -0.1390  0.6316 -0.3882
  161SAPE    HX18028   6.774   3.575   6.628  0.4512 -0.2325  0.0179
  161SAPE    HY18029   6.727   3.424   6.545 -0.3362  1.8915 -2.2314
  161SAPE   O3118030   6.629   3.458   6.734 -0.1406 -0.0438 -0.4031
  161SAPE   C3118031   6.708   3.441   6.835  0.2967 -0.1088 -0.1663
  161SAPE   O3218032   6.834   3.452   6.823  0.5838 -0.1736 -0.8499
  161SAPE   C3218033   6.637   3.399   6.957  0.3970  0.1790 -0.3934
  161SAPE   H2X18034   6.680   3.298   6.977  1.2873 -0.7342 -6.0529
  161SAPE   H2Y18035   6.527   3.398   6.940  0.4050  0.8074 -0.5048
  161SAPE   C2318036   6.234   3.766   6.857  0.6463  0.4936 -0.1662
  161SAPE   H3R18037   6.142   3.776   6.795  0.1904 -2.3450 -0.0495
  161SAPE   H3S18038   6.227   3.849   6.930 -2.5720 -0.8857  1.1934
  161SAPE   C2418039   6.228   3.639   6.948 -0.5548 -0.3329  0.4469
  161SAPE   H4R18040   6.328   3.642   6.996 -0.0824 -2.3508 -0.3699
  161SAPE   H4S18041   6.240   3.553   6.879  1.9909 -0.0080  0.4160
  161SAPE   C2518042   6.109   3.622   7.040  0.0515 -0.3593 -0.6744
  161SAPE   H5R18043   6.020   3.590   6.984 -0.2806 -1.1011  0.2566
  161SAPE   C2618044   6.097   3.636   7.169 -0.0465  0.7497  0.3454
  161SAPE   H6R18045   5.999   3.628   7.217 -0.3996 -1.9391 -0.7612
  161SAPE   C2718046   6.209   3.674   7.262 -0.5557 -0.0434  0.0723
  161SAPE   H7R18047   6.309   3.636   7.230  0.9762  1.5445  2.7809
  161SAPE   H7S18048   6.197   3.622   7.359 -0.3410  0.4399  0.3623
  161SAPE   C2818049   6.216   3.828   7.275 -0.0105 -0.2485  0.1708
  161SAPE   H8R18050   6.170   3.894   7.200 -1.7782 -1.9131 -0.2524
  161SAPE   C2918051   6.285   3.888   7.377 -0.5197 -0.1415 -1.0193
  161SAPE   H9R18052   6.287   3.998   7.381  1.4326 -0.2029  0.4345
  161SAPE  C21018053   6.348   3.819   7.495  0.7318 -0.5225 -0.2383
  161SAPE  H10R18054   6.457   3.843   7.498  0.5328  0.6908 -2.3810
  161SAPE  H10S18055   6.352   3.709   7.476 -0.7130 -0.9446  1.7437
  161SAPE  C21118056   6.281   3.837   7.632 -0.0121 -0.0864  0.4980
  161SAPE  H11R18057   6.172   3.830   7.625 -0.1871  2.3564  0.1699
  161SAPE  C21218058   6.344   3.903   7.734  0.4316  0.8715  0.1897
  161SAPE  H12R18059   6.283   3.924   7.822  0.0675  2.3892 -0.4078
  161SAPE  C21318060   6.484   3.952   7.752  0.7441 -1.0262  0.0701
  161SAPE  H13R18061   6.485   4.048   7.809  3.4509  0.0268 -1.6312
  161SAPE  H13S18062   6.530   3.985   7.657  0.4548 -1.5823 -0.2619
  161SAPE  C21418063   6.583   3.868   7.822  0.0192  0.0543  0.3407
  161SAPE  H14R18064   6.637   3.794   7.760  0.0371  1.2647 -1.1031
  161SAPE  C21518065   6.600   3.847   7.956  0.4145 -0.3809 -0.5145
  161SAPE  H15R18066   6.681   3.780   7.989  0.8457  0.6663  0.5651
  161SAPE  C21618067   6.529   3.927   8.062 -0.4799  0.3049  0.9562
  161SAPE  H16R18068   6.478   3.866   8.140 -2.1354 -0.2561 -0.5025
  161SAPE  H16S18069   6.456   3.995   8.013  0.6354  0.8356 -0.0051
  161SAPE  C21718070   6.624   4.020   8.139 -0.5862  0.7276  0.0575
  161SAPE  H17R18071   6.562   4.082   8.207 -2.8218 -0.9818 -0.3271
  161SAPE  H17S18072   6.662   4.093   8.064 -2.0137  1.3778 -0.0541
  161SAPE  C21818073   6.739   3.956   8.212  0.0574 -0.2745 -0.4117
  161SAPE  H18R18074   6.799   3.879   8.160  0.5663 -0.4121  0.3596
  161SAPE  H18S18075   6.691   3.894   8.292 -1.5173  0.5953 -0.6601
  161SAPE  C21918076   6.843   4.059   8.274  0.3239  0.2637 -0.2136
  161SAPE  H19R18077   6.781   4.128   8.335 -1.5532 -0.3179 -1.4094
  161SAPE  H19S18078   6.900   4.106   8.191  1.2488 -1.4726 -0.5970
  161SAPE  C22018079   6.941   3.981   8.370  0.0446 -0.5601 -0.8430
  161SAPE  H20R18080   6.899   3.955   8.470 -1.8373  1.9795 -0.9288
  161SAPE  H20S18081   7.032   4.032   8.408 -0.4861  0.0562 -0.3959
  161SAPE  H20T18082   6.969   3.883   8.326 -0.0829 -0.4888 -1.0886
  161SAPE   C3318083   6.675   3.502   7.058 -0.8598  0.3830 -0.4927
  161SAPE   H3X18084   6.640   3.600   7.018 -0.9467 -0.3460 -2.2819
  161SAPE   H3Y18085   6.784   3.517   7.071 -0.8813  0.0546  0.0607
  161SAPE   C3418086   6.608   3.488   7.191  0.2563  0.4441  0.1324
  161SAPE   H4X18087   6.501   3.477   7.163  0.7377  2.3454 -2.6074
  161SAPE   H4Y18088   6.626   3.583   7.246  2.3095 -0.8405  1.7614
  161SAPE   C3518089   6.666   3.373   7.268  0.3976  0.3331  0.1866
  161SAPE   H5X18090   6.776   3.369   7.283  0.4637  0.3577 -0.2869
  161SAPE   H5Y18091   6.633   3.287   7.206  0.8067  1.2572 -1.3490
  161SAPE   C3618092   6.619   3.369   7.416  0.4311 -0.1597 -0.1268
  161SAPE   H6X18093   6.656   3.275   7.463  1.7926  0.7599  0.6609
  161SAPE   H6Y18094   6.510   3.356   7.434  0.1641 -0.6553 -1.9738
  161SAPE   C3718095   6.660   3.498   7.489 -0.2553 -0.3024  0.3603
  161SAPE   H7X18096   6.584   3.574   7.462  0.6677  0.4138 -0.2374
  161SAPE   H7Y18097   6.762   3.526   7.456 -1.0337 -1.4476 -3.3444
  161SAPE   C3818098   6.628   3.476   7.634 -0.0381 -0.0705 -0.2186
  161SAPE   H8X18099   6.673   3.559   7.692  2.0804 -1.4558  0.1500
  161SAPE   H8Y18100   6.677   3.383   7.670  0.5027  0.6924  1.0574
  161SAPE   C3918101   6.473   3.456   7.671 -0.2273 -0.8942  0.0493
  161SAPE   H9X18102   6.443   3.353   7.643 -0.1630 -1.1638  0.9566
  161SAPE   H9Y18103   6.415   3.523   7.604  0.0664 -1.7412 -1.0640
  161SAPE  C31018104   6.429   3.482   7.818 -0.1464  0.1209 -0.3530
  161SAPE  H10X18105   6.330   3.436   7.836  0.3055  0.2267  2.6640
  161SAPE  H10Y18106   6.434   3.592   7.833 -3.0638  0.1320  0.7968
  161SAPE  C31118107   6.524   3.415   7.926  0.1308 -0.3587  0.3887
  161SAPE  H11X18108   6.629   3.443   7.905  0.5833 -1.2773  1.3822
  161SAPE  H11Y18109   6.512   3.308   7.901  1.9774 -0.5856  0.4226
  161SAPE  C31218110   6.472   3.448   8.066 -0.2077 -0.4733  0.5056
  161SAPE  H12X18111   6.369   3.406   8.069  0.1242 -1.3670 -0.0822
  161SAPE  H12Y18112   6.462   3.558   8.067 -0.0096 -0.3986 -2.1201
  161SAPE  C31318113   6.545   3.398   8.183  0.0552 -0.8534 -0.3971
  161SAPE  H13X18114   6.653   3.414   8.167  0.4531 -1.4229  1.5326
  161SAPE  H13Y18115   6.532   3.291   8.209  2.8138 -1.0213  0.3842
  161SAPE  C31418116   6.515   3.496   8.295  0.2085 -0.3120  0.1399
  161SAPE  H14X18117   6.408   3.524   8.292  0.5864  1.0796 -1.0147
  161SAPE  H14Y18118   6.574   3.589   8.279 -2.4452  1.5303  0.7186
  161SAPE  C31518119   6.553   3.455   8.437  0.1505  0.0978  0.2849
  161SAPE  H15X18120   6.652   3.404   8.447  0.7823  0.8082 -2.0034
  161SAPE  H15Y18121   6.481   3.387   8.486  1.3636  1.2462  3.8252
  161SAPE  C31618122   6.557   3.576   8.525 -0.0245 -0.6056 -0.2242
  161SAPE  H16X18123   6.475   3.645   8.498 -0.0058 -0.0611  1.0952
  161SAPE  H16Y18124   6.648   3.635   8.500 -1.2303  1.7280  0.7165
  161SAPE  C31718125   6.526   3.551   8.674 -0.4044 -0.2064  0.1717
  161SAPE  H17X18126   6.610   3.487   8.711 -2.8131 -3.4245  0.2557
  161SAPE  H17Y18127   6.442   3.480   8.689 -2.4191  2.2461  0.7711
  161SAPE  C31818128   6.496   3.679   8.752 -0.0484  0.6524  0.2314
  161SAPE  H18X18129   6.574   3.758   8.740  1.2580 -0.7644 -0.8970
  161SAPE  H18Y18130   6.505   3.643   8.857  2.8122 -1.2311 -0.6010
  161SAPE  H18Z18131   6.397   3.717   8.720  0.0169 -0.4169 -1.2688
  162SAPE     N18132   5.407   5.223   5.877  0.5274  0.4598  0.1664
  162SAPE   HN118133   5.345   5.292   5.923 -0.3641  0.4876 -1.0472
  162SAPE   HN218134   5.353   5.171   5.805 -0.5997 -0.1356  1.4107
  162SAPE   HN318135   5.433   5.159   5.955 -0.2383  0.5185  0.4709
  162SAPE   C1218136   5.524   5.293   5.823 -0.1999  0.1899 -0.4421
  162SAPE  H12A18137   5.527   5.290   5.712 -0.1159  2.4999 -0.5250
  162SAPE  H12B18138   5.611   5.241   5.869 -2.0292 -0.8812  1.9214
  162SAPE   C1118139   5.508   5.441   5.855 -0.5371 -0.5871 -0.1624
  162SAPE  H11A18140   5.409   5.485   5.829 -0.7239 -0.9925 -0.1408
  162SAPE  H11B18141   5.591   5.493   5.803 -0.9060 -0.4532 -0.6225
  162SAPE     P18142   5.630   5.521   6.082  0.3299 -0.3803  0.3217
  162SAPE   O1318143   5.628   5.472   6.223 -0.0798 -0.2638 -0.2736
  162SAPE   O1418144   5.761   5.517   6.018 -0.6790  0.2812 -0.7942
  162SAPE   O1218145   5.522   5.451   5.994 -0.2038  0.6991  0.2490
  162SAPE   O1118146   5.576   5.670   6.075 -0.3379  0.7175  0.7190
  162SAPE    C118147   5.438   5.695   6.092 -0.3241  0.3127 -0.1538
  162SAPE    HA18148   5.387   5.717   5.996 -0.9735 -1.0992 -0.1533
  162SAPE    HB18149   5.379   5.606   6.124 -3.0741  1.5702 -1.5777
  162SAPE    C218150   5.396   5.804   6.197 -0.6905 -0.6391  0.0598
  162SAPE    HS18151   5.423   5.901   6.151 -1.3298 -1.5303 -2.2631
  162SAPE   O2118152   5.467   5.766   6.317 -0.1944 -0.3803 -0.0396
  162SAPE   C2118153   5.594   5.810   6.323 -0.0038  0.3768 -0.0838
  162SAPE   O2218154   5.642   5.905   6.258  0.1345 -0.3419  0.6452
  162SAPE   C2218155   5.665   5.730   6.438  0.0945  0.2056  0.6594
  162SAPE   H2R18156   5.589   5.655   6.467 -0.4834  1.2501  1.8711
  162SAPE   H2S18157   5.749   5.678   6.386  0.9733 -0.1153  2.3677
  162SAPE    C318158   5.246   5.803   6.235  0.3797 -0.3669 -0.7007
  162SAPE    HX18159   5.224   5.704   6.281 -0.8739 -0.4984 -1.5250
  162SAPE    HY18160   5.186   5.792   6.141  0.4018  0.7284 -0.8457
  162SAPE   O3118161   5.193   5.912   6.316 -0.3314  0.1052 -0.1723
  162SAPE   C3118162   5.195   5.890   6.451 -0.0911 -0.4625  0.1946
  162SAPE   O3218163   5.226   5.786   6.504  0.5159 -0.2789  0.5238
  162SAPE   C3218164   5.132   6.008   6.528 -0.0478 -0.9670  0.7121
  162SAPE   H2X18165   5.024   5.984   6.543 -0.4346 -1.3814 -2.5292
  162SAPE   H2Y18166   5.140   6.096   6.462  1.5620  1.0660  3.4830
  162SAPE   C2318167   5.731   5.819   6.550  0.0813  0.4168 -0.2842
  162SAPE   H3R18168   5.767   5.910   6.498 -1.7509  0.2237 -1.9280
  162SAPE   H3S18169   5.821   5.777   6.600  0.5596  1.1110 -0.5514
  162SAPE   C2418170   5.622   5.871   6.648 -0.6366 -0.7776  0.4681
  162SAPE   H4R18171   5.552   5.937   6.593 -0.2388  0.3696  1.3080
  162SAPE   H4S18172   5.676   5.936   6.720  0.5550  0.1002 -1.2031
  162SAPE   C2518173   5.540   5.773   6.720 -0.3733 -0.2142  0.0496
  162SAPE   H5R18174   5.478   5.713   6.651 -1.1679  1.3136 -0.5787
  162SAPE   C2618175   5.535   5.755   6.854  0.6912 -0.8934  0.2901
  162SAPE   H6R18176   5.495   5.658   6.886  1.0473 -0.5290  1.9117
  162SAPE   C2718177   5.626   5.823   6.955 -0.7567  0.0103  0.2317
  162SAPE   H7R18178   5.578   5.803   7.053  0.5354 -1.5831  0.5655
  162SAPE   H7S18179   5.633   5.932   6.934 -1.4020  0.1413  0.6937
  162SAPE   C2818180   5.759   5.758   6.955  0.0786  0.8992  0.1774
  162SAPE   H8R18181   5.794   5.739   6.853 -0.6964  1.5277 -0.2153
  162SAPE   C2918182   5.841   5.734   7.059 -0.2260 -0.1322  0.2877
  162SAPE   H9R18183   5.928   5.671   7.036  1.8845  2.3167  1.2556
  162SAPE  C21018184   5.821   5.768   7.205 -0.0759  0.3105 -0.0110
  162SAPE  H10R18185   5.798   5.877   7.211  0.4748  0.6209 -2.6847
  162SAPE  H10S18186   5.919   5.749   7.253  0.5869  0.4897 -1.2606
  162SAPE  C21118187   5.713   5.684   7.265  0.0476  0.5306  0.0182
  162SAPE  H11R18188   5.645   5.630   7.197  0.6439  1.5924 -1.4164
  162SAPE  C21218189   5.704   5.662   7.400 -0.6492  0.7325  0.2307
  162SAPE  H12R18190   5.611   5.614   7.434 -1.5417  0.2519 -2.6936
  162SAPE  C21318191   5.800   5.719   7.501  0.0262  0.0821  0.2330
  162SAPE  H13R18192   5.754   5.743   7.600 -2.1997 -0.9544 -0.5080
  162SAPE  H13S18193   5.835   5.814   7.457 -0.2878 -0.1290 -0.4850
  162SAPE  C21418194   5.926   5.635   7.533 -0.3578  0.0417 -0.1087
  162SAPE  H14R18195   5.955   5.561   7.456 -1.9369 -0.9495  0.2320
  162SAPE  C21518196   5.990   5.640   7.651  0.3826  0.4879  0.3210
  162SAPE  H15R18197   6.069   5.564   7.659 -1.0924 -1.0413  0.4108
  162SAPE  C21618198   5.947   5.717   7.779  0.6633  0.3489 -0.0221
  162SAPE  H16R18199   5.840   5.700   7.802  1.1059 -2.4693  0.0892
  162SAPE  H16S18200   5.953   5.818   7.733  0.1320  0.4101  0.0408
  162SAPE  C21718201   6.036   5.694   7.900 -0.3924  0.4509 -0.2979
  162SAPE  H17R18202   6.144   5.694   7.872  0.1457 -3.2625  1.4697
  162SAPE  H17S18203   6.023   5.587   7.924 -0.6336 -0.1663 -3.0844
  162SAPE  C21818204   6.009   5.788   8.020  0.4379 -0.4796 -0.4263
  162SAPE  H18R18205   5.902   5.771   8.047  0.0840  1.9183 -0.2000
  162SAPE  H18S18206   6.027   5.895   7.996 -2.0247  0.5103  1.9095
  162SAPE  C21918207   6.100   5.752   8.131 -0.3869 -0.1972 -0.6875
  162SAPE  H19R18208   6.073   5.811   8.220 -0.5510 -0.5315 -0.5152
  162SAPE  H19S18209   6.203   5.771   8.094 -0.0428 -0.5993  0.0581
  162SAPE  C22018210   6.096   5.608   8.180  0.1345 -0.0132 -0.1688
  162SAPE  H20R18211   6.133   5.536   8.104  2.6731  1.0106  0.0455
  162SAPE  H20S18212   5.991   5.582   8.204 -0.1445 -0.3834 -1.7271
  162SAPE  H20T18213   6.158   5.604   8.272 -0.1591  0.7267  0.0654
  162SAPE   C3318214   5.213   6.046   6.653  0.1502 -0.2752 -0.1375
  162SAPE   H3X18215   5.170   6.141   6.690  1.7761  0.7059 -0.7285
  162SAPE   H3Y18216   5.316   6.062   6.616 -0.4229  1.7735 -0.9143
  162SAPE   C3418217   5.202   5.949   6.771 -0.1580  0.2606  0.5381
  162SAPE   H4X18218   5.229   5.843   6.754  1.0034  0.3733  1.5740
  162SAPE   H4Y18219   5.096   5.956   6.803 -0.0670  2.9484  0.3852
  162SAPE   C3518220   5.294   6.005   6.881  0.2549  0.0031 -0.5156
  162SAPE   H5X18221   5.277   6.114   6.880  0.1282  0.0070  0.9628
  162SAPE   H5Y18222   5.394   5.991   6.835  0.0987 -0.9266 -0.6006
  162SAPE   C3618223   5.275   5.946   7.020 -0.0516 -0.1917 -0.7543
  162SAPE   H6X18224   5.288   5.836   7.019 -1.1173 -0.3213 -1.4264
  162SAPE   H6Y18225   5.168   5.955   7.049 -0.1157  0.7119 -1.2517
  162SAPE   C3718226   5.364   6.003   7.133 -0.9581  0.3279 -1.4431
  162SAPE   H7X18227   5.380   6.113   7.135  1.1304  0.0646 -1.9629
  162SAPE   H7Y18228   5.465   5.966   7.104 -0.2830  0.0130  1.1539
  162SAPE   C3818229   5.339   5.948   7.278  0.3918 -0.0326  0.3235
  162SAPE   H8X18230   5.348   5.838   7.269 -1.4273 -0.2768  1.3440
  162SAPE   H8Y18231   5.233   5.961   7.307 -0.8263 -1.4814 -3.2150
  162SAPE   C3918232   5.444   6.000   7.380  0.3341  0.0883 -0.3132
  162SAPE   H9X18233   5.443   6.111   7.382  1.5814  0.1079 -0.1878
  162SAPE   H9Y18234   5.547   5.977   7.346 -0.0986 -0.6516 -1.1494
  162SAPE  C31018235   5.425   5.939   7.516 -0.0020  0.0484  0.2197
  162SAPE  H10X18236   5.448   5.830   7.507 -1.2553 -0.0866 -1.4848
  162SAPE  H10Y18237   5.323   5.946   7.558 -0.5755  1.1771 -1.3370
  162SAPE  C31118238   5.519   5.985   7.632 -0.6230 -0.2672  0.3682
  162SAPE  H11X18239   5.493   6.092   7.651  0.9347  0.1534  0.1781
  162SAPE  H11Y18240   5.621   5.988   7.588 -1.1988 -1.9756 -1.1270
  162SAPE  C31218241   5.513   5.905   7.761  0.1352  0.4341 -0.4262
  162SAPE  H12X18242   5.570   5.811   7.746 -2.1151 -1.4239  2.2027
  162SAPE  H12Y18243   5.413   5.868   7.791 -0.0990  2.0612  0.8745
  162SAPE  C31318244   5.578   5.982   7.878 -0.0369 -0.2279  1.2782
  162SAPE  H13X18245   5.507   6.054   7.922  0.0690  0.3527  0.5241
  162SAPE  H13Y18246   5.671   6.030   7.839 -0.8898  0.8017  0.4830
  162SAPE  C31418247   5.639   5.894   7.992 -0.4753  0.0172  1.2221
  162SAPE  H14X18248   5.685   5.969   8.060 -1.0793  1.8422 -0.3304
  162SAPE  H14Y18249   5.706   5.824   7.938 -0.9831  1.3914 -1.2491
  162SAPE  C31518250   5.543   5.799   8.069 -0.3270 -0.3120  0.7628
  162SAPE  H15X18251   5.515   5.723   7.993 -1.2093 -0.4917  1.2524
  162SAPE  H15Y18252   5.455   5.856   8.106  0.7145  1.6213  0.3375
  162SAPE  C31618253   5.620   5.738   8.183 -0.4293  0.3011 -0.5469
  162SAPE  H16X18254   5.660   5.819   8.248  0.3576  0.0312 -0.6881
  162SAPE  H16Y18255   5.711   5.692   8.138 -0.9256  1.8723 -3.2657
  162SAPE  C31718256   5.536   5.656   8.279 -0.1863 -0.3130 -0.3438
  162SAPE  H17X18257   5.500   5.557   8.245  0.3801 -0.9497  0.8487
  162SAPE  H17Y18258   5.446   5.719   8.297  0.4424  0.8718 -1.2427
  162SAPE  C31818259   5.598   5.650   8.426 -0.1386 -0.0202  0.2427
  162SAPE  H18X18260   5.535   5.592   8.496  0.4896 -1.1578 -0.1184
  162SAPE  H18Y18261   5.635   5.743   8.474 -1.3439  1.3936 -1.5155
  162SAPE  H18Z18262   5.694   5.596   8.408  0.2178  1.2870 -2.0589
  163SAPE     N18263   4.792   4.435   6.350  0.4465 -0.4036 -0.1889
  163SAPE   HN118264   4.765   4.536   6.350  1.1884 -0.2006 -1.0642
  163SAPE   HN218265   4.869   4.433   6.280  1.3163 -1.5173  0.7874
  163SAPE   HN318266   4.715   4.369   6.328 -0.9051  0.6249  1.2894
  163SAPE   C1218267   4.846   4.396   6.489  0.4493  0.2823  0.1054
  163SAPE  H12A18268   4.911   4.479   6.525 -0.6989  1.0137  0.5067
  163SAPE  H12B18269   4.911   4.309   6.466  0.8400  0.4030  0.7437
  163SAPE   C1118270   4.730   4.365   6.591 -0.0874  0.5626  0.1706
  163SAPE  H11A18271   4.681   4.459   6.625  0.1037  0.6170  0.2916
  163SAPE  H11B18272   4.785   4.326   6.679 -0.2640 -0.4514 -0.1574
  163SAPE     P18273   4.578   4.159   6.619  0.2159  0.1060 -0.0429
  163SAPE   O1318274   4.446   4.131   6.557 -0.4259  0.0366  0.2400
  163SAPE   O1418275   4.679   4.049   6.636  0.0371 -0.5959  0.1649
  163SAPE   O1218276   4.639   4.279   6.532  0.1687 -0.3069 -0.6413
  163SAPE   O1118277   4.556   4.233   6.758 -0.1816 -0.0623 -0.2231
  163SAPE    C118278   4.427   4.268   6.811 -0.2575  0.0699  0.7187
  163SAPE    HA18279   4.420   4.379   6.816  2.6249  0.3948 -1.1362
  163SAPE    HB18280   4.346   4.220   6.751 -1.7849 -0.3033  3.0342
  163SAPE    C218281   4.406   4.221   6.956  0.7289 -0.3696  0.4622
  163SAPE    HS18282   4.305   4.259   6.982  0.6567  0.1868 -0.6089
  163SAPE   O2118283   4.510   4.268   7.043 -0.1324  0.1022  0.5456
  163SAPE   C2118284   4.499   4.386   7.091  0.3641 -0.2549 -0.3145
  163SAPE   O2218285   4.396   4.453   7.079  0.4807 -0.2892 -0.0189
  163SAPE   C2218286   4.625   4.407   7.172  0.0515 -0.5922 -0.5363
  163SAPE   H2R18287   4.644   4.311   7.224  0.4535 -0.2737 -0.0862
  163SAPE   H2S18288   4.696   4.424   7.087  0.9834 -1.6144  0.0268
  163SAPE    C318289   4.402   4.071   6.971  0.3883 -0.3790 -0.3035
  163SAPE    HX18290   4.493   4.037   6.917 -1.8603 -1.4752 -3.6151
  163SAPE    HY18291   4.316   4.028   6.914 -0.4309  0.3755  0.3512
  163SAPE   O3118292   4.389   4.025   7.106 -0.1872 -0.2605 -0.3557
  163SAPE   C3118293   4.507   3.992   7.164  0.4964 -0.2626  0.4582
  163SAPE   O3218294   4.616   3.998   7.116 -0.6712 -0.6907  0.5168
  163SAPE   C3218295   4.481   3.954   7.306  0.5634  0.7752  0.1728
  163SAPE   H2X18296   4.568   3.967   7.373  0.3051 -0.1300  0.6867
  163SAPE   H2Y18297   4.454   3.846   7.298 -0.0146  1.0578 -2.0987
  163SAPE   C2318298   4.614   4.525   7.276 -0.1589 -0.5430  0.0858
  163SAPE   H3R18299   4.551   4.606   7.232  0.5220 -1.3368 -2.4550
  163SAPE   H3S18300   4.715   4.571   7.275 -1.0141  1.4606 -2.4643
  163SAPE   C2418301   4.555   4.494   7.416  0.0354 -0.1829 -0.3192
  163SAPE   H4R18302   4.460   4.445   7.388 -0.9467  0.3553  1.9683
  163SAPE   H4S18303   4.549   4.592   7.468  2.8124  0.1805 -0.5788
  163SAPE   C2518304   4.635   4.397   7.496 -0.5553  0.5600  0.2230
  163SAPE   H5R18305   4.707   4.334   7.442 -0.3902  0.8411  0.1168
  163SAPE   C2618306   4.641   4.394   7.634 -0.1489 -0.0049  1.0239
  163SAPE   H6R18307   4.707   4.320   7.681  0.1663 -1.0354 -0.9995
  163SAPE   C2718308   4.584   4.496   7.732 -0.0996  0.0271  0.0658
  163SAPE   H7R18309   4.528   4.444   7.812 -0.1961 -0.9034 -0.6074
  163SAPE   H7S18310   4.508   4.567   7.692 -1.4639 -1.2856  0.2958
  163SAPE   C2818311   4.695   4.581   7.787  0.0330  0.1151  0.5212
  163SAPE   H8R18312   4.761   4.624   7.710  1.3153 -0.8926  1.0339
  163SAPE   C2918313   4.712   4.615   7.916 -0.2067 -0.1787 -0.4924
  163SAPE   H9R18314   4.795   4.683   7.938  0.7690 -1.7527  0.7767
  163SAPE  C21018315   4.614   4.574   8.025 -0.1331 -0.4776  0.8485
  163SAPE  H10R18316   4.620   4.464   8.043  2.4486 -0.4149  0.5441
  163SAPE  H10S18317   4.508   4.596   8.002 -0.1738 -2.0759 -0.5902
  163SAPE  C21118318   4.639   4.644   8.155 -0.3130  0.2634  0.2953
  163SAPE  H11R18319   4.553   4.708   8.180 -1.1846 -0.8472  0.1676
  163SAPE  C21218320   4.756   4.635   8.231  0.2782  0.2585 -0.4158
  163SAPE  H12R18321   4.771   4.681   8.330 -0.3976 -2.0045  0.7784
  163SAPE  C21318322   4.875   4.545   8.204 -0.3170  0.5119  0.2331
  163SAPE  H13R18323   4.861   4.464   8.130 -1.5732 -0.4160  1.4588
  163SAPE  H13S18324   4.871   4.485   8.297 -0.6193 -2.5757 -1.7333
  163SAPE  C21418325   5.010   4.596   8.179  0.2452 -0.4875  0.6148
  163SAPE  H14R18326   5.024   4.638   8.077  0.6299 -1.6252  0.1942
  163SAPE  C21518327   5.121   4.612   8.262 -0.2160  0.8726 -0.0843
  163SAPE  H15R18328   5.202   4.673   8.220  0.2153  0.6085  0.3666
  163SAPE  C21618329   5.137   4.587   8.406  0.4098 -0.5948 -0.9563
  163SAPE  H16R18330   5.237   4.545   8.429  0.3701  0.7655  1.8876
  163SAPE  H16S18331   5.058   4.531   8.460  0.2290 -1.1054 -1.7468
  163SAPE  C21718332   5.143   4.719   8.488  0.2341  0.2021 -0.2264
  163SAPE  H17R18333   5.037   4.754   8.484  0.0032 -0.5709 -1.0629
  163SAPE  H17S18334   5.213   4.792   8.443 -0.4742  0.4892 -0.8738
  163SAPE  C21818335   5.186   4.692   8.641  0.1495  0.1595 -0.2431
  163SAPE  H18R18336   5.236   4.784   8.679 -3.4118  1.7536  0.8329
  163SAPE  H18S18337   5.270   4.623   8.620  0.0613  0.6300 -2.2804
  163SAPE  C21918338   5.076   4.634   8.724 -0.5439 -0.0379  0.4237
  163SAPE  H19R18339   5.114   4.610   8.826  1.8976  2.2430  0.1172
  163SAPE  H19S18340   5.038   4.536   8.690 -1.6734 -0.1078  1.8228
  163SAPE  C22018341   4.963   4.736   8.759  0.7352 -0.1589 -1.1492
  163SAPE  H20R18342   5.008   4.837   8.774  0.9078 -0.8385  4.0292
  163SAPE  H20S18343   4.914   4.706   8.855  0.4287  0.1786 -1.1989
  163SAPE  H20T18344   4.890   4.750   8.677 -0.9527  0.0598  0.3533
  163SAPE   C3318345   4.371   4.042   7.370 -0.0286  0.4505  0.0924
  163SAPE   H3X18346   4.273   4.027   7.320 -0.1491  1.6758 -0.0712
  163SAPE   H3Y18347   4.394   4.151   7.368  1.3221  0.1784  0.2468
  163SAPE   C3418348   4.351   4.006   7.523 -0.4644 -0.1228 -0.1614
  163SAPE   H4X18349   4.329   3.898   7.535 -0.5366 -0.0470  0.4342
  163SAPE   H4Y18350   4.262   4.066   7.553  0.6145  0.9972  0.8548
  163SAPE   C3518351   4.462   4.030   7.627  0.1167  0.2836  0.6396
  163SAPE   H5X18352   4.507   4.132   7.623  1.4556 -0.2649  1.2634
  163SAPE   H5Y18353   4.545   3.964   7.594 -1.6042 -1.6662  0.1869
  163SAPE   C3618354   4.446   3.980   7.773 -0.0308 -0.4590  0.9397
  163SAPE   H6X18355   4.395   3.881   7.784 -0.8431 -0.2208 -0.5308
  163SAPE   H6Y18356   4.371   4.054   7.807  0.4348  0.7670 -0.6264
  163SAPE   C3718357   4.564   3.979   7.867 -0.9618 -0.1007 -0.1957
  163SAPE   H7X18358   4.652   3.922   7.830 -0.7661  0.6801 -0.9430
  163SAPE   H7Y18359   4.524   3.942   7.964 -0.7621 -2.0601 -0.8261
  163SAPE   C3818360   4.606   4.120   7.892 -1.0954  0.1358 -0.3752
  163SAPE   H8X18361   4.507   4.164   7.917 -0.7559 -1.1363  3.4745
  163SAPE   H8Y18362   4.636   4.166   7.795  1.5428 -0.2773  0.2083
  163SAPE   C3918363   4.707   4.143   8.006 -0.1599  0.0307  0.8026
  163SAPE   H9X18364   4.662   4.124   8.105  1.9741 -0.7796  1.6356
  163SAPE   H9Y18365   4.737   4.250   8.000 -1.2327  0.4210  2.2682
  163SAPE  C31018366   4.838   4.062   8.003 -0.2557  0.5494  0.6008
  163SAPE  H10X18367   4.884   4.062   7.902  1.9092 -1.2684  1.5330
  163SAPE  H10Y18368   4.818   3.957   8.034 -1.4746  0.5100 -0.2765
  163SAPE  C31118369   4.940   4.111   8.106  1.0283  0.4418  0.0721
  163SAPE  H11X18370   4.971   4.216   8.086 -0.1172  0.6046 -0.9393
  163SAPE  H11Y18371   5.036   4.055   8.101 -0.2862 -1.9098  0.4401
  163SAPE  C31218372   4.881   4.111   8.249  0.6064 -0.0695  0.1516
  163SAPE  H12X18373   4.843   4.012   8.280 -0.1041  0.1582  0.0217
  163SAPE  H12Y18374   4.786   4.167   8.253  1.6992  1.8612  0.0492
  163SAPE  C31318375   4.981   4.173   8.348 -0.4355 -0.4107  0.1387
  163SAPE  H13X18376   5.016   4.272   8.310  0.7224 -0.7191  0.3935
  163SAPE  H13Y18377   5.070   4.106   8.346  0.1219  0.2548  1.6788
  163SAPE  C31418378   4.932   4.186   8.496 -0.0668 -1.0498 -0.3195
  163SAPE  H14X18379   5.015   4.218   8.563 -0.4363 -1.6141  0.4085
  163SAPE  H14Y18380   4.912   4.085   8.538 -2.1399  0.0154  1.3274
  163SAPE  C31518381   4.824   4.288   8.518 -0.7054 -0.7014 -0.4391
  163SAPE  H15X18382   4.739   4.259   8.452 -1.3858  1.8744 -0.7263
  163SAPE  H15Y18383   4.853   4.390   8.487 -0.1336 -0.6893  0.1229
  163SAPE  C31618384   4.791   4.301   8.665 -0.1814  0.2713 -0.0238
  163SAPE  H16X18385   4.877   4.354   8.711  0.2532 -0.3052 -0.1717
  163SAPE  H16Y18386   4.780   4.201   8.711 -1.7808  0.1457 -0.6456
  163SAPE  C31718387   4.663   4.382   8.688 -0.1214  0.0806  1.2563
  163SAPE  H17X18388   4.580   4.311   8.666  0.3058 -0.6674  2.0269
  163SAPE  H17Y18389   4.648   4.465   8.616  1.0113 -0.8213 -0.0508
  163SAPE  C31818390   4.657   4.436   8.830  0.1027 -0.2003  0.0843
  163SAPE  H18X18391   4.555   4.468   8.861 -0.6262 -0.9222 -1.5168
  163SAPE  H18Y18392   4.729   4.520   8.841 -0.6465  0.7263 -1.7530
  163SAPE  H18Z18393   4.677   4.363   8.911 -1.0351 -1.2168 -0.5399
  164SAPE     N18394   1.449   1.163   6.033  0.1074 -0.3498 -0.4776
  164SAPE   HN118395   1.454   1.059   6.029  1.5119 -0.2873 -0.6571
  164SAPE   HN218396   1.490   1.201   5.946 -2.1954  4.4773  0.3547
  164SAPE   HN318397   1.499   1.193   6.119 -2.7616  0.6115  0.9453
  164SAPE   C1218398   1.304   1.206   6.040  0.2905 -0.0434 -0.8931
  164SAPE  H12A18399   1.279   1.230   5.934  2.0387 -0.3813 -1.4120
  164SAPE  H12B18400   1.305   1.289   6.113  1.5461  0.5379 -1.5553
  164SAPE   C1118401   1.226   1.080   6.086  0.3566  0.4975 -0.0340
  164SAPE  H11A18402   1.124   1.109   6.120  0.9411  1.1699  1.1845
  164SAPE  H11B18403   1.281   1.018   6.160  0.0751  1.7161  1.2057
  164SAPE     P18404   1.279   0.867   5.944 -0.3043  0.1722  0.0241
  164SAPE   O1318405   1.210   0.784   5.841  0.6204  0.4785 -0.1224
  164SAPE   O1418406   1.422   0.905   5.916 -0.4339  0.5752 -0.1025
  164SAPE   O1218407   1.201   0.998   5.972 -1.0604 -0.1611  0.4376
  164SAPE   O1118408   1.271   0.787   6.086  0.6761  0.4107 -0.4041
  164SAPE    C118409   1.149   0.718   6.115  0.8171 -0.3994 -0.0025
  164SAPE    HA18410   1.072   0.715   6.034 -1.2001 -1.0665  1.8901
  164SAPE    HB18411   1.173   0.612   6.138  1.0578 -0.5367 -0.8604
  164SAPE    C218412   1.065   0.794   6.219 -0.5512  0.2950  0.1744
  164SAPE    HS18413   1.049   0.895   6.175 -1.5608 -0.1993 -0.6036
  164SAPE   O2118414   1.142   0.794   6.337 -0.0091  0.7751  0.0473
  164SAPE   C2118415   1.152   0.897   6.402  0.2367 -0.6343  0.0213
  164SAPE   O2218416   1.102   1.007   6.384 -0.2696 -0.1102  0.0539
  164SAPE   C2218417   1.235   0.867   6.533 -0.4883  0.2926 -0.2851
  164SAPE   H2R18418   1.341   0.876   6.499 -0.0850 -3.0749 -0.0175
  164SAPE   H2S18419   1.213   0.952   6.601  0.0358  1.0496 -1.0434
  164SAPE    C318420   0.933   0.720   6.243 -0.2748  0.2516  1.2062
  164SAPE    HX18421   0.952   0.611   6.235 -2.4341 -0.1018  0.7122
  164SAPE    HY18422   0.879   0.741   6.149  0.3838 -0.4836  0.6601
  164SAPE   O3118423   0.861   0.748   6.365 -0.0375 -0.1986 -0.1132
  164SAPE   C3118424   0.799   0.868   6.363  0.5360  0.3694 -0.3796
  164SAPE   O3218425   0.777   0.937   6.263 -0.3124 -0.6176 -0.1652
  164SAPE   C3218426   0.769   0.904   6.508 -0.5678  0.5085  0.2916
  164SAPE   H2X18427   0.860   0.881   6.567 -0.9579 -1.1584  0.2682
  164SAPE   H2Y18428   0.679   0.844   6.533  0.2138 -0.4976  0.6951
  164SAPE   C2318429   1.211   0.738   6.613  0.2913  0.1734  0.1400
  164SAPE   H3R18430   1.222   0.653   6.543  1.3277 -0.4495  1.0445
  164SAPE   H3S18431   1.108   0.733   6.653 -1.1776  4.8518 -2.6569
  164SAPE   C2418432   1.307   0.719   6.735 -0.2837  0.4029  0.1281
  164SAPE   H4R18433   1.258   0.642   6.798 -0.8403 -0.0252 -0.8090
  164SAPE   H4S18434   1.292   0.810   6.796 -1.6167  1.1790 -1.3082
  164SAPE   C2518435   1.451   0.688   6.683  0.4027 -0.3449  0.4552
  164SAPE   H5R18436   1.499   0.737   6.597  0.2975 -2.6640 -0.9738
  164SAPE   C2618437   1.522   0.586   6.725  0.2000  0.2851  0.9372
  164SAPE   H6R18438   1.618   0.569   6.673  0.3471  0.2055  1.2373
  164SAPE   C2718439   1.484   0.480   6.826  0.1315 -0.1422  0.5856
  164SAPE   H7R18440   1.381   0.498   6.863 -0.0850  1.4059 -0.7140
  164SAPE   H7S18441   1.556   0.491   6.910 -0.3508 -0.0279  0.9858
  164SAPE   C2818442   1.477   0.343   6.765 -0.8234  0.8860 -0.2493
  164SAPE   H8R18443   1.406   0.335   6.682 -1.1800 -1.8965  0.2790
  164SAPE   C2918444   1.542   0.228   6.797  0.0541  1.5609 -0.5600
  164SAPE   H9R18445   1.525   0.137   6.737  0.1972  1.4323 -0.4052
  164SAPE  C21018446   1.636   0.212   6.916 -0.3766  0.0828 -0.9368
  164SAPE  H10R18447   1.589   0.135   6.981 -2.0872 -1.1556 -3.5433
  164SAPE  H10S18448   1.621   0.298   6.985 -0.4269 -0.5596 -0.1483
  164SAPE  C21118449   1.781   0.182   6.900 -0.2332 -0.5336  0.0649
  164SAPE  H11R18450   1.818   0.210   6.801 -2.0334  1.3405 -0.1147
  164SAPE  C21218451   1.865   0.173   7.005  0.0422 -0.0301  0.4137
  164SAPE  H12R18452   1.972   0.152   6.989  0.4873  1.7135  1.0091
  164SAPE  C21318453   1.839   0.177   7.160 -0.3933 -0.1942 -0.6153
  164SAPE  H13R18454   1.919   0.131   7.222  0.9020  1.6183 -0.8823
  164SAPE  H13S18455   1.754   0.109   7.180  0.1584 -0.5476  0.5766
  164SAPE  C21418456   1.820   0.313   7.213  0.7329 -0.6672  0.3149
  164SAPE  H14R18457   1.858   0.390   7.144 -0.8787 -2.4980 -2.7201
  164SAPE  C21518458   1.756   0.347   7.328  0.6216 -0.0655 -0.3860
  164SAPE  H15R18459   1.754   0.455   7.346  1.4115 -0.3880  1.7661
  164SAPE  C21618460   1.693   0.250   7.432 -0.0195 -0.0759  0.1109
  164SAPE  H16R18461   1.684   0.147   7.392  0.2005 -0.3958  0.8898
  164SAPE  H16S18462   1.589   0.274   7.465 -0.5335  0.1841 -1.6508
  164SAPE  C21718463   1.779   0.215   7.559  1.5882  0.4216 -0.4786
  164SAPE  H17R18464   1.889   0.223   7.540  1.9301 -0.8074  0.8663
  164SAPE  H17S18465   1.752   0.111   7.587  0.5457  0.6416 -0.6766
  164SAPE  C21818466   1.731   0.298   7.677 -0.1528 -0.8530 -1.1852
  164SAPE  H18R18467   1.623   0.320   7.666  0.3226  1.3803 -1.5241
  164SAPE  H18S18468   1.783   0.396   7.671 -1.5563  0.0638  0.9860
  164SAPE  C21918469   1.745   0.237   7.821 -0.0291  0.2340  0.3625
  164SAPE  H19R18470   1.688   0.143   7.835 -0.5827  0.9768  3.2648
  164SAPE  H19S18471   1.706   0.309   7.895 -0.8046  0.3798 -0.1828
  164SAPE  C22018472   1.889   0.194   7.849 -0.7580 -0.5035 -0.4144
  164SAPE  H20R18473   1.938   0.167   7.753 -1.7524  0.3424 -1.1634
  164SAPE  H20S18474   1.889   0.103   7.913  1.2662  0.1638  0.5985
  164SAPE  H20T18475   1.954   0.263   7.907  0.0731 -0.8906 -0.8809
  164SAPE   C3318476   0.722   1.045   6.528 -0.3913 -0.1881 -1.0682
  164SAPE   H3X18477   0.643   1.075   6.457  0.0452  0.0141 -1.4711
  164SAPE   H3Y18478   0.806   1.118   6.531 -0.7573  0.2449 -1.3033
  164SAPE   C3418479   0.655   1.057   6.667 -0.1280  0.0789 -0.7147
  164SAPE   H4X18480   0.563   0.995   6.663 -1.1198  1.3467  1.3471
  164SAPE   H4Y18481   0.617   1.160   6.680 -2.2190 -0.6951 -0.4725
  164SAPE   C3518482   0.746   1.006   6.780  0.3890 -0.4308  0.0388
  164SAPE   H5X18483   0.757   0.897   6.762 -0.1890 -0.1573 -2.1604
  164SAPE   H5Y18484   0.690   1.034   6.871  1.1394  0.2522  0.2969
  164SAPE   C3618485   0.880   1.068   6.782  0.1321 -0.1675  0.3535
  164SAPE   H6X18486   0.869   1.179   6.775  0.2177 -0.0718  1.5978
  164SAPE   H6Y18487   0.936   1.028   6.695 -2.1636  0.9531 -1.7071
  164SAPE   C3718488   0.970   1.043   6.900 -0.0251  0.4888 -0.2214
  164SAPE   H7X18489   0.927   1.099   6.985 -0.3084 -0.1250  0.0430
  164SAPE   H7Y18490   1.070   1.083   6.871 -0.7284  1.7119 -0.9626
  164SAPE   C3818491   0.995   0.891   6.931  0.1087  0.1515 -0.1534
  164SAPE   H8X18492   1.044   0.850   6.840 -0.4916 -0.1131 -0.3623
  164SAPE   H8Y18493   0.901   0.832   6.934  1.5694 -2.1800  1.8339
  164SAPE   C3918494   1.085   0.878   7.055 -0.8689 -0.2775 -0.2171
  164SAPE   H9X18495   1.036   0.926   7.143  0.8428 -0.8656  1.0824
  164SAPE   H9Y18496   1.170   0.948   7.038 -0.5321 -1.0237 -1.6088
  164SAPE  C31018497   1.148   0.748   7.069 -0.5727  0.1726  0.3012
  164SAPE  H10X18498   1.193   0.715   6.974 -0.8379  0.2745  0.1406
  164SAPE  H10Y18499   1.067   0.675   7.092 -0.7196 -0.3649 -1.8690
  164SAPE  C31118500   1.247   0.728   7.182 -0.1005 -1.3143  0.3869
  164SAPE  H11X18501   1.219   0.789   7.270  2.1465 -0.3004  0.4469
  164SAPE  H11Y18502   1.344   0.760   7.139 -0.2234  2.8499  2.9855
  164SAPE  C31218503   1.262   0.580   7.221  0.3460  0.5863  0.0361
  164SAPE  H12X18504   1.269   0.513   7.132 -0.9270  1.0909 -0.4516
  164SAPE  H12Y18505   1.168   0.551   7.272  0.5623 -0.2332 -0.0202
  164SAPE  C31318506   1.379   0.565   7.319 -0.1203  0.2927  0.0159
  164SAPE  H13X18507   1.471   0.592   7.263  1.2709 -1.1387  1.5656
  164SAPE  H13Y18508   1.381   0.458   7.348 -0.7795  0.3159  0.1443
  164SAPE  C31418509   1.358   0.644   7.447  0.9041  0.1991  0.0477
  164SAPE  H14X18510   1.259   0.617   7.490  1.0993  1.1827  1.1204
  164SAPE  H14Y18511   1.357   0.751   7.417  0.5334 -0.4327 -2.2925
  164SAPE  C31518512   1.471   0.612   7.541  0.4908 -0.1470 -0.0627
  164SAPE  H15X18513   1.572   0.629   7.498  0.2834  2.3565  0.3804
  164SAPE  H15Y18514   1.470   0.507   7.578 -0.8855  0.7017  2.4542
  164SAPE  C31618515   1.457   0.710   7.656  0.3662  0.1136  0.3701
  164SAPE  H16X18516   1.361   0.704   7.713  0.3294 -1.2973  0.1774
  164SAPE  H16Y18517   1.456   0.809   7.607  0.9587 -0.1654 -0.2048
  164SAPE  C31718518   1.568   0.710   7.763  0.1509 -0.0318 -1.1697
  164SAPE  H17X18519   1.566   0.806   7.819  0.0432 -0.0062 -1.2179
  164SAPE  H17Y18520   1.667   0.719   7.713  0.5786  0.5300 -0.2531
  164SAPE  C31818521   1.552   0.596   7.861 -0.3874  0.3284  0.2107
  164SAPE  H18X18522   1.511   0.501   7.819 -0.0217  0.0938  0.3796
  164SAPE  H18Y18523   1.494   0.629   7.950 -1.4760 -2.1242  0.4556
  164SAPE  H18Z18524   1.657   0.570   7.885 -0.0841 -0.6900 -2.0946
  165SAPE     N18525   0.841   3.754   6.333  0.0504  0.3988 -0.0398
  165SAPE   HN118526   0.859   3.701   6.421 -0.9417  0.9438  0.5085
  165SAPE   HN218527   0.794   3.687   6.269  0.5309 -0.1923  0.2236
  165SAPE   HN318528   0.937   3.749   6.293 -0.3641 -2.9138 -0.7567
  165SAPE   C1218529   0.784   3.893   6.353  0.2646 -1.2064 -0.2370
  165SAPE  H12A18530   0.833   3.956   6.276 -1.0649 -0.4539 -0.5019
  165SAPE  H12B18531   0.829   3.929   6.448 -0.2527 -0.3006 -0.3217
  165SAPE   C1118532   0.629   3.892   6.348 -0.3886 -0.4077  0.2459
  165SAPE  H11A18533   0.602   3.847   6.445 -0.6452  0.6993  0.6970
  165SAPE  H11B18534   0.583   3.835   6.264 -1.2762 -0.3302  0.6707
  165SAPE     P18535   0.521   4.092   6.223 -0.3207 -0.1390  0.2098
  165SAPE   O1318536   0.623   4.124   6.122  0.4683 -0.0135  0.7907
  165SAPE   O1418537   0.405   4.012   6.176  0.7469  0.4365 -0.3545
  165SAPE   O1218538   0.585   4.025   6.350  0.8829 -0.1843  0.3039
  165SAPE   O1118539   0.461   4.230   6.267  1.0022 -0.0690  0.2446
  165SAPE    C118540   0.520   4.299   6.376  0.4475  0.0893 -0.2047
  165SAPE    HA18541   0.614   4.253   6.415  1.1423 -1.6138 -3.6651
  165SAPE    HB18542   0.549   4.398   6.334  1.5537  0.0646  0.4831
  165SAPE    C218543   0.417   4.304   6.493 -0.9397  0.6527  0.2345
  165SAPE    HS18544   0.449   4.388   6.558  1.8567 -0.8454  0.8619
  165SAPE   O2118545   0.412   4.184   6.572  0.5965  0.2295  0.5702
  165SAPE   C2118546   0.526   4.171   6.645 -0.1089  0.3836  0.0468
  165SAPE   O2218547   0.614   4.252   6.643 -1.0118 -0.4396  0.3772
  165SAPE   C2218548   0.518   4.053   6.735  0.1016  1.0657 -0.4942
  165SAPE   H2R18549   0.410   4.052   6.762 -0.1672  2.3997 -1.4340
  165SAPE   H2S18550   0.525   3.967   6.666 -1.6493  0.7491 -0.2870
  165SAPE    C318551   0.279   4.347   6.435 -0.0788  0.1167  0.1033
  165SAPE    HX18552   0.242   4.276   6.358  2.1948 -0.2309 -0.7087
  165SAPE    HY18553   0.299   4.436   6.372 -0.6512 -0.5683 -1.0581
  165SAPE   O3118554   0.176   4.383   6.531 -0.0777  0.0943  0.1347
  165SAPE   C3118555   0.119   4.274   6.582 -0.5609 -0.6797  0.7860
  165SAPE   O3218556   0.132   4.161   6.532  0.0870  0.1583  0.6788
  165SAPE   C3218557   0.022   4.313   6.692  0.0328  0.1122 -0.4431
  165SAPE   H2X18558  -0.048   4.228   6.680  0.6769 -0.0593 -3.2686
  165SAPE   H2Y18559  -0.017   4.415   6.673  2.0837  1.1274  0.6105
  165SAPE   C2318560   0.619   4.055   6.845  0.1003  0.1087 -0.0788
  165SAPE   H3R18561   0.614   4.145   6.911 -1.5132 -0.1861  0.2232
  165SAPE   H3S18562   0.715   4.058   6.791 -0.0399  1.4493 -0.2643
  165SAPE   C2418563   0.615   3.924   6.932 -0.0403  0.5800  0.3084
  165SAPE   H4R18564   0.704   3.927   6.998  0.2886  0.4917 -0.1349
  165SAPE   H4S18565   0.623   3.835   6.866 -1.4359  1.0704 -0.5549
  165SAPE   C2518566   0.485   3.905   7.007 -0.5601 -0.5014 -0.2434
  165SAPE   H5R18567   0.391   3.928   6.953  0.0629  1.5370 -0.4937
  165SAPE   C2618568   0.473   3.851   7.130  0.3670  0.0225 -0.6933
  165SAPE   H6R18569   0.371   3.848   7.172  0.6959  0.3051  0.1373
  165SAPE   C2718570   0.585   3.796   7.219  0.1709  0.0948 -0.4267
  165SAPE   H7R18571   0.683   3.823   7.173  1.7197 -2.6892  1.1391
  165SAPE   H7S18572   0.584   3.685   7.218 -2.0721  0.0632 -2.5624
  165SAPE   C2818573   0.593   3.847   7.358 -0.4910 -0.0992  0.0746
  165SAPE   H8R18574   0.570   3.955   7.365  2.4341  0.5110  0.8283
  165SAPE   C2918575   0.618   3.780   7.473 -0.2588  0.0271 -0.1966
  165SAPE   H9R18576   0.622   3.839   7.565 -1.8922 -1.9757  1.1921
  165SAPE  C21018577   0.646   3.629   7.491 -0.0682 -0.1762  0.0049
  165SAPE  H10R18578   0.612   3.564   7.408  0.4400 -2.7708  1.7840
  165SAPE  H10S18579   0.591   3.588   7.578 -2.9739 -0.4696 -1.9086
  165SAPE  C21118580   0.792   3.611   7.510  0.2562  0.4055 -0.6246
  165SAPE  H11R18581   0.853   3.642   7.424 -1.2039 -0.0201 -1.8205
  165SAPE  C21218582   0.862   3.565   7.611  0.6319  0.2650  0.5187
  165SAPE  H12R18583   0.962   3.530   7.583  0.0886 -0.3497 -0.7062
  165SAPE  C21318584   0.805   3.520   7.744 -0.3090 -0.2154  0.4136
  165SAPE  H13R18585   0.832   3.415   7.765  1.5025  0.3254  0.8529
  165SAPE  H13S18586   0.695   3.535   7.734 -0.0762  0.1230 -2.1909
  165SAPE  C21418587   0.851   3.610   7.852 -0.4152 -0.2811  0.3294
  165SAPE  H14R18588   0.923   3.688   7.823 -0.1363 -0.5020  0.4222
  165SAPE  C21518589   0.809   3.596   7.980  0.3071  0.7686  0.1055
  165SAPE  H15R18590   0.847   3.667   8.055 -0.1434  1.4054 -0.2644
  165SAPE  C21618591   0.712   3.490   8.036 -0.5387  0.4927  0.4523
  165SAPE  H16R18592   0.729   3.388   7.994 -1.8400  1.5148 -2.7049
  165SAPE  H16S18593   0.605   3.512   8.014 -1.0633 -1.2224  1.1797
  165SAPE  C21718594   0.727   3.475   8.188  0.0542  0.2838 -0.7922
  165SAPE  H17R18595   0.687   3.559   8.248  0.9405  1.1534 -1.4111
  165SAPE  H17S18596   0.832   3.460   8.221 -0.3740 -0.2932  0.3534
  165SAPE  C21818597   0.663   3.348   8.243  0.2200 -0.3056 -0.1542
  165SAPE  H18R18598   0.716   3.267   8.188  1.4833 -0.9734  2.0094
  165SAPE  H18S18599   0.554   3.335   8.226 -0.1866  1.4270  0.9882
  165SAPE  C21918600   0.679   3.338   8.396 -0.6292 -0.1981 -0.3176
  165SAPE  H19R18601   0.622   3.258   8.447  0.8812 -1.6049 -0.8094
  165SAPE  H19S18602   0.633   3.435   8.425 -3.3456 -1.4555 -0.2754
  165SAPE  C22018603   0.822   3.337   8.454  1.0736  0.3286 -0.4464
  165SAPE  H20R18604   0.812   3.331   8.564  0.5465  0.3517 -0.4907
  165SAPE  H20S18605   0.888   3.424   8.435  0.3217  0.7714 -1.0650
  165SAPE  H20T18606   0.890   3.256   8.419  0.6491 -0.1949 -0.0667
  165SAPE   C3318607   0.098   4.321   6.832 -0.5093  0.0794  0.1622
  165SAPE   H3X18608   0.184   4.391   6.841  0.5574 -1.2888  0.6019
  165SAPE   H3Y18609   0.146   4.225   6.857 -0.7848  0.4482  2.1837
  165SAPE   C3418610   0.014   4.334   6.956 -0.6233 -0.4169 -0.6810
  165SAPE   H4X18611  -0.058   4.250   6.946 -1.9862  0.4930  1.0973
  165SAPE   H4Y18612  -0.053   4.423   6.948  0.8188  0.8991  1.2646
  165SAPE   C3518613   0.086   4.326   7.089 -0.0252  0.2169  0.4687
  165SAPE   H5X18614   0.146   4.418   7.102  1.5857 -0.7093 -0.2833
  165SAPE   H5Y18615   0.162   4.245   7.095  1.0097  1.1353 -0.2850
  165SAPE   C3618616  -0.014   4.319   7.207  0.8657 -0.1955  0.9449
  165SAPE   H6X18617  -0.070   4.224   7.219 -0.2381  0.3176 -0.0077
  165SAPE   H6Y18618  -0.092   4.397   7.191 -0.5264 -1.3796  1.8959
  165SAPE   C3718619   0.062   4.359   7.340  0.2209 -0.4256  0.4948
  165SAPE   H7X18620   0.102   4.462   7.328 -0.9408 -0.0073  0.1973
  165SAPE   H7Y18621   0.148   4.289   7.347 -2.2261 -3.5467 -0.0379
  165SAPE   C3818622  -0.013   4.343   7.472  0.4931 -0.2824  0.8547
  165SAPE   H8X18623  -0.053   4.239   7.470  0.8249 -0.4010 -0.2512
  165SAPE   H8Y18624  -0.109   4.399   7.470  1.6833  1.8504  2.1037
  165SAPE   C3918625   0.075   4.384   7.589 -0.1521  0.4064 -0.0559
  165SAPE   H9X18626   0.070   4.494   7.580  1.2012  0.4455 -0.4038
  165SAPE   H9Y18627   0.174   4.343   7.561 -0.8460  0.0891 -2.1010
  165SAPE  C31018628   0.040   4.336   7.731 -0.6904  0.0215  0.1126
  165SAPE  H10X18629   0.067   4.228   7.724 -1.6836 -0.1505 -1.3045
  165SAPE  H10Y18630  -0.066   4.351   7.761 -0.7343  1.4556 -0.7486
  165SAPE  C31118631   0.137   4.403   7.834  0.1841 -0.4917  0.1288
  165SAPE  H11X18632   0.121   4.513   7.828 -1.2913 -0.5147  3.0149
  165SAPE  H11Y18633   0.243   4.391   7.805  0.0834  0.8005 -0.8130
  165SAPE  C31218634   0.103   4.358   7.972  0.1664 -0.5532 -0.6615
  165SAPE  H12X18635   0.103   4.247   7.969  2.7749 -0.5474 -2.5637
  165SAPE  H12Y18636  -0.001   4.393   7.991 -0.3479 -0.8247 -2.8422
  165SAPE  C31318637   0.215   4.418   8.066  0.0170 -0.9161  0.0677
  165SAPE  H13X18638   0.258   4.513   8.025  0.7967  0.1125  3.1408
  165SAPE  H13Y18639   0.301   4.349   8.077  1.1762  0.2507 -1.3905
  165SAPE  C31418640   0.168   4.441   8.213  0.3522 -0.0833 -0.4025
  165SAPE  H14X18641   0.226   4.365   8.270  0.8490  0.8409  0.3462
  165SAPE  H14Y18642   0.059   4.424   8.226  0.6206 -1.0664  0.5617
  165SAPE  C31518643   0.194   4.588   8.264 -0.2154 -0.0260 -0.3772
  165SAPE  H15X18644   0.120   4.653   8.212 -0.8650 -2.1641 -2.2578
  165SAPE  H15Y18645   0.300   4.611   8.245 -0.4308  0.5749 -0.8509
  165SAPE  C31618646   0.176   4.601   8.414  0.0381  0.1182 -0.1890
  165SAPE  H16X18647   0.243   4.534   8.473  1.0299  1.4271  0.1984
  165SAPE  H16Y18648   0.070   4.575   8.434 -0.1163  1.4662  0.7836
  165SAPE  C31718649   0.195   4.747   8.473 -0.0109 -0.0836 -0.5461
  165SAPE  H17X18650   0.121   4.813   8.421 -1.4808 -0.8517  0.5540
  165SAPE  H17Y18651   0.296   4.776   8.436 -0.5779 -1.5357 -3.3976
  165SAPE  C31818652   0.184   4.747   8.626 -0.3892 -0.3911  0.2397
  165SAPE  H18X18653   0.267   4.693   8.676 -1.0962  1.1197  3.2230
  165SAPE  H18Y18654   0.086   4.702   8.655 -0.2143 -1.0543 -0.1902
  165SAPE  H18Z18655   0.177   4.852   8.664  0.0943 -0.7885  1.4340
  166SAPE     N18656   0.933   1.341   5.750  0.1367  0.1391  0.5141
  166SAPE   HN118657   0.888   1.347   5.656  0.7262 -2.1740  0.0408
  166SAPE   HN218658   1.030   1.376   5.737  0.6593 -1.3847  0.1722
  166SAPE   HN318659   0.939   1.241   5.777  1.0834  0.7362  2.5779
  166SAPE   C1218660   0.868   1.434   5.838 -0.4467 -0.3573  0.0176
  166SAPE  H12A18661   0.929   1.524   5.864  0.0602  0.1170 -2.6849
  166SAPE  H12B18662   0.861   1.373   5.931  0.2693 -1.8860 -0.9227
  166SAPE   C1118663   0.731   1.482   5.774  0.5286 -0.7247 -0.1531
  166SAPE  H11A18664   0.748   1.543   5.683  1.1563 -0.5706  0.0618
  166SAPE  H11B18665   0.684   1.547   5.851 -0.1063 -1.0990 -0.2191
  166SAPE     P18666   0.494   1.368   5.735  0.0070  0.4858 -0.8117
  166SAPE   O1318667   0.439   1.496   5.687 -0.0416 -0.9523  0.3319
  166SAPE   O1418668   0.433   1.257   5.666 -0.2987 -0.0443  0.2580
  166SAPE   O1218669   0.654   1.364   5.736 -0.2703 -0.1945 -0.0814
  166SAPE   O1118670   0.470   1.350   5.889 -0.0037  0.4680 -0.5046
  166SAPE    C118671   0.499   1.226   5.952  0.5033  0.7505  0.1199
  166SAPE    HA18672   0.499   1.137   5.886 -0.8301  0.4066  0.5666
  166SAPE    HB18673   0.602   1.237   5.992  0.5890 -0.0686  0.1299
  166SAPE    C218674   0.400   1.195   6.078 -0.7721  0.9233  0.3118
  166SAPE    HS18675   0.301   1.195   6.028  0.1828 -1.7001 -1.6757
  166SAPE   O2118676   0.424   1.285   6.192 -0.0217  0.2219  0.2521
  166SAPE   C2118677   0.318   1.336   6.247  0.0584 -0.0922  0.3118
  166SAPE   O2218678   0.202   1.311   6.202 -0.7662  0.5292 -0.1043
  166SAPE   C2218679   0.361   1.390   6.387  0.4234 -0.1196  0.1986
  166SAPE   H2R18680   0.431   1.318   6.434 -0.0040 -0.2560  0.6292
  166SAPE   H2S18681   0.430   1.475   6.373 -1.3806  1.2742 -0.4657
  166SAPE    C318682   0.441   1.055   6.125 -0.0685  0.1295 -0.0375
  166SAPE    HX18683   0.551   1.048   6.144 -0.3371 -0.7978  1.2256
  166SAPE    HY18684   0.419   0.993   6.036  3.7583 -1.2330 -0.1610
  166SAPE   O3118685   0.370   1.014   6.243  0.9220  0.1958 -0.0903
  166SAPE   C3118686   0.231   1.002   6.231 -0.5927  0.0586  0.4063
  166SAPE   O3218687   0.170   0.989   6.123 -0.8197 -0.1157  0.4179
  166SAPE   C3218688   0.172   0.992   6.370  0.5304  1.3901 -0.1291
  166SAPE   H2X18689   0.114   1.086   6.379 -0.3685  1.2104 -3.3473
  166SAPE   H2Y18690   0.260   0.986   6.437  0.1033 -0.0830  0.3206
  166SAPE   C2318691   0.242   1.429   6.462  0.8146  0.4967 -0.5905
  166SAPE   H3R18692   0.171   1.345   6.476  1.2519  0.1993 -0.1757
  166SAPE   H3S18693   0.190   1.504   6.398  0.8561 -1.0437 -2.4757
  166SAPE   C2418694   0.272   1.513   6.588  0.4702 -0.3862  0.0305
  166SAPE   H4R18695   0.184   1.572   6.619  0.4150  0.1726 -1.1971
  166SAPE   H4S18696   0.357   1.579   6.560  1.2126 -0.6355  1.6427
  166SAPE   C2518697   0.334   1.432   6.700 -0.0269  0.2360  0.0681
  166SAPE   H5R18698   0.390   1.343   6.667 -1.3115 -0.9717  1.0553
  166SAPE   C2618699   0.331   1.463   6.835  0.0087 -0.0925  0.0179
  166SAPE   H6R18700   0.372   1.395   6.910 -0.2599 -0.1829  0.0863
  166SAPE   C2718701   0.257   1.581   6.894 -0.2619 -0.0623 -0.4612
  166SAPE   H7R18702   0.251   1.670   6.827  1.6352  1.8439  1.8101
  166SAPE   H7S18703   0.313   1.613   6.984 -0.9660  1.1250 -0.4374
  166SAPE   C2818704   0.110   1.561   6.927 -0.1876  0.9903 -0.4662
  166SAPE   H8R18705   0.037   1.602   6.855 -3.5569  0.6200  2.5685
  166SAPE   C2918706   0.065   1.496   7.037 -0.6211 -0.4566 -0.0531
  166SAPE   H9R18707  -0.041   1.479   7.061 -0.8405 -1.2923 -1.6135
  166SAPE  C21018708   0.151   1.436   7.151 -0.2400 -0.5336  0.3873
  166SAPE  H10R18709   0.134   1.485   7.249 -3.0483 -4.4457  1.9661
  166SAPE  H10S18710   0.260   1.443   7.129  0.1886 -1.4584  2.0371
  166SAPE  C21118711   0.116   1.292   7.148 -0.4501  0.0730 -0.3760
  166SAPE  H11R18712   0.130   1.244   7.050  0.0451  2.2039 -1.3639
  166SAPE  C21218713   0.084   1.216   7.257 -0.3267  0.7609 -0.2617
  166SAPE  H12R18714   0.058   1.111   7.236 -2.5573  1.2449 -0.1248
  166SAPE  C21318715   0.074   1.260   7.404  0.5523  0.0602  0.1813
  166SAPE  H13R18716   0.001   1.203   7.465  0.0786 -1.0396 -1.3802
  166SAPE  H13S18717   0.028   1.360   7.393  0.6355 -0.0858 -1.6329
  166SAPE  C21418718   0.210   1.261   7.475  0.2504 -0.6692 -1.0693
  166SAPE  H14R18719   0.294   1.308   7.422  2.0748 -0.4023  1.9665
  166SAPE  C21518720   0.229   1.217   7.606 -0.4038 -1.1821  0.2048
  166SAPE  H15R18721   0.330   1.221   7.649 -0.2703  0.2234 -0.2104
  166SAPE  C21618722   0.122   1.150   7.699  0.3952 -0.0563 -0.4328
  166SAPE  H16R18723   0.084   1.061   7.644 -0.1890 -0.7751  1.1013
  166SAPE  H16S18724   0.055   1.230   7.737 -1.0508 -0.9926 -0.9617
  166SAPE  C21718725   0.205   1.088   7.817  0.1509  0.0295 -0.3413
  166SAPE  H17R18726   0.258   1.172   7.868  2.0465 -0.9731 -0.6047
  166SAPE  H17S18727   0.272   1.008   7.780 -0.2362 -0.8852  0.9158
  166SAPE  C21818728   0.124   1.028   7.934 -0.0294  0.1909 -0.2469
  166SAPE  H18R18729   0.084   0.933   7.894 -0.2297 -0.8106  2.2589
  166SAPE  H18S18730   0.033   1.086   7.960 -2.2125 -2.7475 -1.0861
  166SAPE  C21918731   0.206   1.006   8.055  0.6568  0.2955  0.6750
  166SAPE  H19R18732   0.230   1.106   8.096 -0.3244  0.7637  0.1310
  166SAPE  H19S18733   0.299   0.967   8.010 -0.9624 -1.7236 -1.0461
  166SAPE  C22018734   0.147   0.913   8.164 -0.2339  0.1849 -0.7575
  166SAPE  H20R18735   0.110   0.815   8.128 -1.5415 -0.1717  1.4263
  166SAPE  H20S18736   0.070   0.967   8.222  1.4064  1.2677  0.4753
  166SAPE  H20T18737   0.231   0.884   8.231 -0.1941  3.2708  0.6158
  166SAPE   C3318738   0.084   0.866   6.380  0.3850  0.1883 -0.3240
  166SAPE   H3X18739   0.149   0.779   6.360 -0.7037 -0.5007 -0.9323
  166SAPE   H3Y18740  -0.002   0.856   6.310 -0.1951  2.0882  0.0902
  166SAPE   C3418741   0.038   0.851   6.529 -0.6249  0.3099 -0.1182
  166SAPE   H4X18742  -0.017   0.945   6.553 -0.7855 -0.1204  1.2002
  166SAPE   H4Y18743   0.120   0.844   6.603 -2.6827  0.1913  2.2158
  166SAPE   C3518744  -0.053   0.725   6.537  0.1086 -0.3088  0.6084
  166SAPE   H5X18745  -0.140   0.738   6.468  1.6823  0.9541 -1.2124
  166SAPE   H5Y18746  -0.084   0.731   6.643 -2.7952 -0.3438 -0.1927
  166SAPE   C3618747   0.014   0.590   6.507  0.3638 -0.1644 -1.0383
  166SAPE   H6X18748   0.112   0.582   6.557  0.0145 -1.3008 -0.5204
  166SAPE   H6Y18749   0.033   0.578   6.398 -0.3291  1.6040 -1.3829
  166SAPE   C3718750  -0.060   0.459   6.552  0.3430 -0.8158  0.7596
  166SAPE   H7X18751   0.017   0.378   6.547  2.9944  1.7766 -3.1862
  166SAPE   H7Y18752  -0.148   0.441   6.487 -0.3693  0.7594  1.2817
  166SAPE   C3818753  -0.104   0.465   6.694  0.4990  0.1255  0.0231
  166SAPE   H8X18754  -0.196   0.527   6.697  0.2834  0.0961 -3.5377
  166SAPE   H8Y18755  -0.021   0.519   6.746  2.4178 -1.6007 -1.1614
  166SAPE   C3918756  -0.118   0.327   6.775  0.2062  0.2313  0.2920
  166SAPE   H9X18757  -0.031   0.262   6.749  0.0866  0.0606  0.3144
  166SAPE   H9Y18758  -0.204   0.272   6.730 -0.6096  1.9573 -0.2950
  166SAPE  C31018759  -0.124   0.345   6.928 -0.0385  0.1602  0.1620
  166SAPE  H10X18760  -0.055   0.431   6.948 -1.3970  1.4032 -0.4330
  166SAPE  H10Y18761  -0.084   0.258   6.984 -1.7509 -0.4393  0.4545
  166SAPE  C31118762  -0.259   0.379   6.979  0.2026 -0.2520 -0.5755
  166SAPE  H11X18763  -0.316   0.284   6.979 -3.4484  1.8679  0.5417
  166SAPE  H11Y18764  -0.315   0.444   6.908  0.0525 -1.3243 -1.4589
  166SAPE  C31218765  -0.261   0.432   7.124 -0.1159  0.5200  0.3290
  166SAPE  H12X18766  -0.366   0.465   7.140  0.1176  0.2381  2.5986
  166SAPE  H12Y18767  -0.193   0.519   7.139 -1.5854  1.4497  1.7964
  166SAPE  C31318768  -0.231   0.331   7.233  0.0649 -0.0490  0.0237
  166SAPE  H13X18769  -0.125   0.298   7.225  1.0632  3.4594 -2.1357
  166SAPE  H13Y18770  -0.294   0.240   7.219  1.9978 -1.2788 -1.0221
  166SAPE  C31418771  -0.267   0.381   7.373  0.2280 -0.3511  0.4926
  166SAPE  H14X18772  -0.248   0.488   7.394  1.5001 -0.6239  0.7654
  166SAPE  H14Y18773  -0.200   0.329   7.444  0.3022 -2.4232 -1.0312
  166SAPE  C31518774  -0.417   0.346   7.394  0.5420  0.7335 -0.1647
  166SAPE  H15X18775  -0.447   0.245   7.357  1.7094 -0.3674  1.8262
  166SAPE  H15Y18776  -0.460   0.426   7.330 -0.6786 -1.6645 -2.4820
  166SAPE  C31618777  -0.466   0.376   7.539 -0.0397 -0.3920 -0.5965
  166SAPE  H16X18778  -0.576   0.377   7.524 -0.2410  2.7839  0.9198
  166SAPE  H16Y18779  -0.441   0.483   7.550 -0.7746 -0.4093  1.2808
  166SAPE  C31718780  -0.410   0.288   7.653  0.0094 -0.2311 -0.0925
  166SAPE  H17X18781  -0.299   0.302   7.650 -0.0677  0.2253 -1.5819
  166SAPE  H17Y18782  -0.450   0.188   7.627 -0.6461  0.5972 -2.4208
  166SAPE  C31818783  -0.466   0.347   7.779  0.2272 -0.2739  0.1716
  166SAPE  H18X18784  -0.428   0.298   7.871  2.1679 -0.5908 -0.7895
  166SAPE  H18Y18785  -0.578   0.348   7.778  0.2201  0.0125 -2.4506
  166SAPE  H18Z18786  -0.438   0.455   7.785 -0.9378  0.0087  0.8474
  167SAPE     N18787   1.699   0.002   5.957  0.0494 -0.4200 -0.0054
  167SAPE   HN118788   1.622  -0.062   5.985 -0.2943  0.2410  0.5636
  167SAPE   HN218789   1.741  -0.016   5.863 -0.4924 -0.5872 -0.2192
  167SAPE   HN318790   1.760  -0.012   6.040 -1.3303 -0.2722  1.0396
  167SAPE   C1218791   1.630   0.140   5.963  0.0500 -0.4831 -0.2749
  167SAPE  H12A18792   1.689   0.207   5.897  1.0485  0.1982  1.2705
  167SAPE  H12B18793   1.645   0.170   6.069 -0.7743  0.7757 -0.5203
  167SAPE   C1118794   1.481   0.140   5.926 -1.3651 -0.2252  0.2069
  167SAPE  H11A18795   1.463   0.142   5.816  0.7658 -1.4529 -0.1959
  167SAPE  H11B18796   1.452   0.243   5.957  1.8712  0.5063  0.9801
  167SAPE     P18797   1.245   0.041   5.990  0.0968  0.5220 -0.4436
  167SAPE   O1318798   1.200   0.172   5.942  0.0498 -0.2191  0.0069
  167SAPE   O1418799   1.197  -0.069   5.907 -0.8104  0.2446  0.0716
  167SAPE   O1218800   1.404   0.038   5.996  0.3566 -0.1689 -0.5207
  167SAPE   O1118801   1.206   0.026   6.140 -0.2211  0.5801 -1.2077
  167SAPE    C118802   1.294   0.067   6.241  0.5239  0.2776 -0.7202
  167SAPE    HA18803   1.401   0.039   6.233  0.5970  0.7761 -1.5247
  167SAPE    HB18804   1.300   0.177   6.249 -3.7022  0.5158  0.5020
  167SAPE    C218805   1.257  -0.005   6.381  0.1448 -0.2223 -0.0809
  167SAPE    HS18806   1.258  -0.114   6.359  0.5780 -0.3963  0.7473
  167SAPE   O2118807   1.119   0.032   6.419  0.1968  0.0004 -0.4008
  167SAPE   C2118808   1.049  -0.062   6.482  0.5669  0.4150  0.2269
  167SAPE   O2218809   1.070  -0.185   6.465  0.3952 -0.3040  0.1415
  167SAPE   C2218810   0.925  -0.002   6.559  0.4077 -0.6421  0.2866
  167SAPE   H2R18811   0.968   0.066   6.636  2.5076 -2.7428  1.0306
  167SAPE   H2S18812   0.862   0.058   6.490  1.1656 -0.7492 -0.5063
  167SAPE    C318813   1.360   0.032   6.495  0.3623 -0.5973  0.6078
  167SAPE    HX18814   1.373   0.142   6.484 -0.9114 -0.5579 -0.5769
  167SAPE    HY18815   1.454  -0.018   6.461  0.8067  1.4286 -1.3319
  167SAPE   O3118816   1.331  -0.010   6.632  0.9616 -0.0165  0.1264
  167SAPE   C3118817   1.251   0.081   6.693 -0.6851  0.2453 -1.0160
  167SAPE   O3218818   1.205   0.180   6.644 -0.5014 -0.2986 -0.3222
  167SAPE   C3218819   1.241   0.032   6.832 -0.7168 -0.5006 -0.3032
  167SAPE   H2X18820   1.340  -0.004   6.867 -0.4613 -0.0799 -0.5984
  167SAPE   H2Y18821   1.168  -0.052   6.832 -0.2838 -0.8741 -0.7560
  167SAPE   C2318822   0.837  -0.118   6.613 -0.5126 -0.3871  0.0699
  167SAPE   H3R18823   0.904  -0.186   6.669  0.4758  0.4488 -0.0756
  167SAPE   H3S18824   0.790  -0.163   6.523  0.1420 -2.6691  0.8409
  167SAPE   C2418825   0.736  -0.071   6.714  0.0998 -0.8919  0.4511
  167SAPE   H4R18826   0.680  -0.162   6.747 -4.1360  1.5677  0.3784
  167SAPE   H4S18827   0.665  -0.006   6.660 -0.5706  0.7852  3.2798
  167SAPE   C2518828   0.792   0.002   6.830  0.1928 -0.5751  0.4038
  167SAPE   H5R18829   0.836   0.101   6.812 -1.2654  0.8631  4.1089
  167SAPE   C2618830   0.806  -0.043   6.957 -0.2681 -0.3371  0.1254
  167SAPE   H6R18831   0.841   0.029   7.032  0.9754 -2.6664  1.8425
  167SAPE   C2718832   0.751  -0.177   7.001  0.0314  0.1216  0.8044
  167SAPE   H7R18833   0.820  -0.264   7.008  1.7920  1.3987 -0.3672
  167SAPE   H7S18834   0.671  -0.216   6.934  0.6476 -0.6896  0.5216
  167SAPE   C2818835   0.694  -0.165   7.139 -0.4483  0.2239 -0.0842
  167SAPE   H8R18836   0.586  -0.151   7.152 -0.2014  0.0760  2.6057
  167SAPE   C2918837   0.767  -0.180   7.248 -0.3113 -0.1639  0.1128
  167SAPE   H9R18838   0.713  -0.175   7.343 -0.0216  2.1721  0.1839
  167SAPE  C21018839   0.922  -0.194   7.264 -0.1126  0.5492 -0.0997
  167SAPE  H10R18840   0.967  -0.186   7.162  2.8391  1.2684  1.2038
  167SAPE  H10S18841   0.951  -0.293   7.304 -0.8843  0.7271  0.9159
  167SAPE  C21118842   0.971  -0.090   7.360 -0.2194  0.5912  0.2094
  167SAPE  H11R18843   0.995   0.002   7.305  1.8361  0.5059  0.9209
  167SAPE  C21218844   0.965  -0.095   7.499  0.1219  0.1276  0.1594
  167SAPE  H12R18845   1.003  -0.013   7.562  0.8283 -2.5293  3.3147
  167SAPE  C21318846   0.921  -0.216   7.573 -0.7410  1.1957 -0.3643
  167SAPE  H13R18847   1.005  -0.247   7.638  0.9701  0.5127 -2.8464
  167SAPE  H13S18848   0.904  -0.309   7.516 -1.1746  0.0310  1.6115
  167SAPE  C21418849   0.809  -0.168   7.660 -0.0372  0.0917 -0.0905
  167SAPE  H14R18850   0.714  -0.201   7.615  0.8151 -0.5534 -1.4653
  167SAPE  C21518851   0.815  -0.107   7.778  0.6677  0.1181 -0.2094
  167SAPE  H15R18852   0.726  -0.080   7.836  2.4424  0.8424  2.2129
  167SAPE  C21618853   0.945  -0.074   7.854 -0.2690  0.3990  0.5473
  167SAPE  H16R18854   0.940   0.027   7.901  1.5372  0.7196  0.0918
  167SAPE  H16S18855   1.035  -0.075   7.790 -0.2653 -0.7285  0.5577
  167SAPE  C21718856   0.965  -0.161   7.980 -0.1223 -0.3744  0.8250
  167SAPE  H17R18857   1.066  -0.136   8.020  0.7613  0.1682 -1.6531
  167SAPE  H17S18858   0.991  -0.260   7.935  1.5688  1.1025 -1.5343
  167SAPE  C21818859   0.850  -0.161   8.084  0.6427 -0.1028  0.8969
  167SAPE  H18R18860   0.853  -0.247   8.154 -1.2815 -1.4413 -0.6112
  167SAPE  H18S18861   0.753  -0.160   8.031  0.8568  1.5492  0.5194
  167SAPE  C21918862   0.851  -0.042   8.180  0.7205  0.0026 -0.2764
  167SAPE  H19R18863   0.860   0.042   8.108  0.7776 -1.6190 -2.2393
  167SAPE  H19S18864   0.943  -0.039   8.243  0.2028 -1.3817  0.5692
  167SAPE  C22018865   0.739  -0.027   8.281  0.9904  0.2494 -0.6702
  167SAPE  H20R18866   0.773   0.035   8.366 -0.7055  1.2539 -0.7132
  167SAPE  H20S18867   0.719  -0.127   8.326 -1.2769  0.6227 -0.7805
  167SAPE  H20T18868   0.649   0.013   8.229  0.3056 -1.6381 -0.9721
  167SAPE   C3318869   1.185   0.144   6.924 -0.0208 -0.0784  0.2945
  167SAPE   H3X18870   1.076   0.154   6.909 -0.3052  1.1934  2.7914
  167SAPE   H3Y18871   1.243   0.236   6.901 -1.3931  0.8290  0.3736
  167SAPE   C3418872   1.198   0.103   7.075  0.2395  0.5876 -0.0412
  167SAPE   H4X18873   1.174  -0.005   7.069  0.1388  0.5998  0.1300
  167SAPE   H4Y18874   1.133   0.157   7.148  0.4103  0.3968  0.2552
  167SAPE   C3518875   1.343   0.123   7.116 -0.8726 -0.4783 -0.0734
  167SAPE   H5X18876   1.358   0.233   7.118  0.5696 -0.6729  0.3984
  167SAPE   H5Y18877   1.413   0.079   7.042  2.0153  1.9089  1.1255
  167SAPE   C3618878   1.355   0.052   7.256  0.5055  0.2056  0.7997
  167SAPE   H6X18879   1.454   0.007   7.277  0.1431 -2.0590 -1.9993
  167SAPE   H6Y18880   1.278  -0.026   7.274 -0.6362  0.7552 -1.5257
  167SAPE   C3718881   1.314   0.156   7.367 -0.1587 -0.2633  0.3594
  167SAPE   H7X18882   1.208   0.184   7.346  0.0154 -0.5663 -0.9583
  167SAPE   H7Y18883   1.372   0.249   7.349 -2.5554  0.8824 -1.9642
  167SAPE   C3818884   1.325   0.098   7.505 -1.1570  0.2298 -0.1564
  167SAPE   H8X18885   1.431   0.070   7.524 -1.5176 -1.7632 -0.9551
  167SAPE   H8Y18886   1.276  -0.000   7.489 -1.6089  0.8257 -2.7917
  167SAPE   C3918887   1.254   0.178   7.623  0.6578 -0.6071 -0.2305
  167SAPE   H9X18888   1.143   0.176   7.615  0.6874 -0.9936 -0.5472
  167SAPE   H9Y18889   1.299   0.278   7.637 -2.0282  0.7221 -0.6685
  167SAPE  C31018890   1.284   0.113   7.766  0.8923  0.3387 -0.5667
  167SAPE  H10X18891   1.273   0.003   7.765  1.7080  0.1963  2.0620
  167SAPE  H10Y18892   1.214   0.170   7.830  1.5811  1.2349 -0.6032
  167SAPE  C31118893   1.429   0.134   7.806 -0.2890  0.4862 -0.2256
  167SAPE  H11X18894   1.462   0.232   7.767  0.9242  0.4198  0.6155
  167SAPE  H11Y18895   1.496   0.050   7.779  1.2120  2.0151 -1.3751
  167SAPE  C31218896   1.436   0.129   7.967 -0.8047 -0.7512  0.7741
  167SAPE  H12X18897   1.380   0.216   8.007 -1.3182 -0.2396 -1.0304
  167SAPE  H12Y18898   1.542   0.144   7.996  0.0873 -1.7295 -1.7935
  167SAPE  C31318899   1.368   0.005   8.038 -0.5604 -0.6371  0.6929
  167SAPE  H13X18900   1.422  -0.087   8.005 -2.1132 -0.4078 -2.6467
  167SAPE  H13Y18901   1.265  -0.007   7.999 -0.6394  1.0070  0.3589
  167SAPE  C31418902   1.364   0.020   8.193  0.2662  0.4921 -0.3810
  167SAPE  H14X18903   1.298   0.108   8.210 -0.0981  0.1960 -0.2506
  167SAPE  H14Y18904   1.467   0.048   8.223  0.3372  0.5313 -0.6538
  167SAPE  C31518905   1.306  -0.106   8.259 -0.1341 -0.2233 -0.0357
  167SAPE  H15X18906   1.361  -0.199   8.237 -1.4575 -0.6110 -1.8299
  167SAPE  H15Y18907   1.209  -0.122   8.207  1.1796  1.0158 -2.9705
  167SAPE  C31618908   1.279  -0.090   8.405 -0.2979 -0.4478 -0.2060
  167SAPE  H16X18909   1.234  -0.184   8.443  0.3217 -0.4791  0.4531
  167SAPE  H16Y18910   1.208  -0.004   8.402  0.5696  0.2435 -2.0969
  167SAPE  C31718911   1.407  -0.055   8.487  0.0633  0.1549  0.4170
  167SAPE  H17X18912   1.447   0.046   8.464 -3.0988  1.6649  1.2696
  167SAPE  H17Y18913   1.480  -0.137   8.471  0.8093  1.0319 -0.7611
  167SAPE  C31818914   1.378  -0.057   8.640 -0.0141  0.1847  0.5827
  167SAPE  H18X18915   1.305   0.018   8.678 -0.3355  0.7296 -1.0862
  167SAPE  H18Y18916   1.470  -0.049   8.702  0.6597  0.5054 -0.4436
  167SAPE  H18Z18917   1.339  -0.159   8.663 -0.2867  0.2283  0.3166
  168SAPE     N18918   2.524   1.738   6.571 -0.7507 -0.5813 -1.5335
  168SAPE   HN118919   2.579   1.739   6.659 -0.2305 -0.7400 -1.8522
  168SAPE   HN218920   2.488   1.642   6.551 -0.5583 -1.0783  0.4144
  168SAPE   HN318921   2.598   1.750   6.499  0.3730 -0.5573 -0.3927
  168SAPE   C1218922   2.429   1.848   6.576 -0.1161 -0.5019 -0.1525
  168SAPE  H12A18923   2.484   1.939   6.608  1.1803 -0.5932 -1.9970
  168SAPE  H12B18924   2.356   1.821   6.655  0.0514 -1.2541 -0.2452
  168SAPE   C1118925   2.371   1.882   6.437  0.2912 -0.2494 -0.3652
  168SAPE  H11A18926   2.454   1.930   6.381 -0.0829 -0.1195 -0.8095
  168SAPE  H11B18927   2.301   1.969   6.445  3.8152  2.8954 -2.0235
  168SAPE     P18928   2.183   1.734   6.337 -0.1854 -0.0494  0.0835
  168SAPE   O1318929   2.118   1.854   6.281  0.3568  0.1120 -0.0799
  168SAPE   O1418930   2.189   1.606   6.263 -0.1488  0.2810 -0.0283
  168SAPE   O1218931   2.328   1.766   6.376 -0.0736  0.3932 -0.2520
  168SAPE   O1118932   2.120   1.708   6.479 -0.6894  0.2588  0.4337
  168SAPE    C118933   2.043   1.598   6.526 -0.3467 -0.1803 -0.2640
  168SAPE    HA18934   1.947   1.633   6.569 -0.4930  0.2824 -0.9539
  168SAPE    HB18935   2.025   1.520   6.449  0.8205  0.0235 -0.7465
  168SAPE    C218936   2.117   1.523   6.648  0.9302 -0.2757 -0.4366
  168SAPE    HS18937   2.054   1.439   6.682  1.5589 -1.4345 -2.0610
  168SAPE   O2118938   2.142   1.612   6.755 -0.1252 -0.6070  0.6612
  168SAPE   C2118939   2.033   1.658   6.823 -0.4909  0.4445  0.1604
  168SAPE   O2218940   1.920   1.620   6.813 -0.3825  0.6945 -0.1811
  168SAPE   C2218941   2.077   1.790   6.882  0.2715  0.2091 -0.4629
  168SAPE   H2R18942   2.143   1.844   6.811  1.0865 -1.8348 -1.2841
  168SAPE   H2S18943   1.984   1.849   6.894 -0.0664 -0.5069  0.5122
  168SAPE    C318944   2.249   1.462   6.610  0.4502 -0.3338 -0.5133
  168SAPE    HX18945   2.313   1.543   6.568  1.0119 -1.5929 -2.1685
  168SAPE    HY18946   2.232   1.394   6.523  0.8043 -1.2712  0.1433
  168SAPE   O3118947   2.305   1.381   6.714 -0.3563 -0.1126 -0.4654
  168SAPE   C3118948   2.416   1.431   6.782 -0.7910 -1.2148  0.2579
  168SAPE   O3218949   2.470   1.535   6.759 -0.0262 -0.0471 -0.3366
  168SAPE   C3218950   2.460   1.324   6.888 -0.0436  0.4399  0.4102
  168SAPE   H2X18951   2.521   1.246   6.839 -1.0738  0.1823 -0.4677
  168SAPE   H2Y18952   2.370   1.272   6.927 -0.6120  0.1579 -1.2252
  168SAPE   C2318953   2.153   1.778   7.011 -0.2481 -0.1879 -0.1686
  168SAPE   H3R18954   2.181   1.880   7.045  0.9731 -0.2265 -1.0009
  168SAPE   H3S18955   2.246   1.719   6.999 -0.6113 -1.2742  2.1683
  168SAPE   C2418956   2.074   1.727   7.138  0.7250 -0.5084 -0.0720
  168SAPE   H4R18957   2.031   1.626   7.117 -1.3067  0.0997  0.9595
  168SAPE   H4S18958   1.985   1.794   7.137 -0.0400 -1.5072 -0.0993
  168SAPE   C2518959   2.155   1.744   7.265 -0.4968  0.2108  0.3592
  168SAPE   H5R18960   2.237   1.671   7.273 -0.5532 -0.5806 -4.4771
  168SAPE   C2618961   2.125   1.821   7.367  0.0432  0.4644  0.0976
  168SAPE   H6R18962   2.190   1.821   7.455 -1.2063 -0.6299  1.0423
  168SAPE   C2718963   2.007   1.907   7.383 -0.1408 -0.1782 -0.0964
  168SAPE   H7R18964   1.922   1.844   7.348  0.8011 -0.8056 -1.2743
  168SAPE   H7S18965   2.012   1.987   7.305  0.4446  0.2681  0.3973
  168SAPE   C2818966   1.984   1.973   7.516  0.4062  0.2126  0.0156
  168SAPE   H8R18967   1.955   2.077   7.493 -2.7529 -0.5514  0.2602
  168SAPE   C2918968   2.003   1.931   7.643 -0.4797  0.4490 -0.5900
  168SAPE   H9R18969   1.969   2.004   7.718 -0.8729  1.3531 -1.6329
  168SAPE  C21018970   2.054   1.801   7.709  0.9733 -0.5707 -0.7248
  168SAPE  H10R18971   2.161   1.814   7.739  1.0115 -0.0496 -1.0752
  168SAPE  H10S18972   2.054   1.719   7.635  2.2961  1.9560 -3.6299
  168SAPE  C21118973   1.966   1.764   7.827  0.0859  0.2038 -0.1003
  168SAPE  H11R18974   1.860   1.787   7.808 -0.0710  0.3214  0.9244
  168SAPE  C21218975   2.006   1.701   7.935  1.0035 -0.3119  0.2626
  168SAPE  H12R18976   1.935   1.677   8.016  0.0198  3.2085  0.5143
  168SAPE  C21318977   2.148   1.669   7.966 -0.2056  0.5700 -0.2527
  168SAPE  H13R18978   2.210   1.628   7.883 -0.4328  1.4529 -0.8613
  168SAPE  H13S18979   2.142   1.583   8.036  1.9393  0.9447  0.4364
  168SAPE  C21418980   2.227   1.792   8.014  0.9754 -0.2828  0.2106
  168SAPE  H14R18981   2.277   1.846   7.932 -0.6360 -1.3445 -1.4992
  168SAPE  C21518982   2.246   1.826   8.140  0.2409 -0.3997 -0.1601
  168SAPE  H15R18983   2.300   1.920   8.159 -0.3287  0.0161 -0.5503
  168SAPE  C21618984   2.175   1.764   8.262 -0.1395 -0.2877 -0.0189
  168SAPE  H16R18985   2.247   1.748   8.346 -0.3706  1.7824  0.6022
  168SAPE  H16S18986   2.123   1.668   8.242  2.5542 -1.4817 -1.5019
  168SAPE  C21718987   2.073   1.873   8.308 -0.2941  0.4868  0.0184
  168SAPE  H17R18988   1.999   1.880   8.225 -0.2979  2.8642  0.1785
  168SAPE  H17S18989   2.122   1.970   8.331  0.5611  0.0033  0.2632
  168SAPE  C21818990   2.000   1.842   8.438 -0.7115 -0.3086 -0.4270
  168SAPE  H18R18991   2.071   1.846   8.524 -0.6829 -0.7732 -0.4250
  168SAPE  H18S18992   1.948   1.744   8.442  1.4913 -1.4717  0.9188
  168SAPE  C21918993   1.899   1.953   8.468 -0.4778  0.1381 -0.2741
  168SAPE  H19R18994   1.826   1.969   8.385 -0.2241 -0.4020 -0.5978
  168SAPE  H19S18995   1.953   2.047   8.489  1.6387 -0.8818 -1.0459
  168SAPE  C22018996   1.820   1.912   8.590  0.6382  0.2977 -0.2552
  168SAPE  H20R18997   1.733   1.976   8.614 -0.2065 -0.6885 -0.6379
  168SAPE  H20S18998   1.871   1.918   8.688 -1.5627  0.2398  0.9237
  168SAPE  H20T18999   1.780   1.808   8.583 -0.2354  0.5001  1.5165
  168SAPE   C3319000   2.523   1.388   7.016  0.0466  0.4935  0.0445
  168SAPE   H3X19001   2.466   1.482   7.026  1.6988  1.4562  0.5901
  168SAPE   H3Y19002   2.628   1.416   6.990 -0.0073  1.1636  0.5376
  168SAPE   C3419003   2.526   1.296   7.149 -0.2516  0.3959  0.9173
  168SAPE   H4X19004   2.570   1.198   7.122 -0.1171  1.0005 -1.1011
  168SAPE   H4Y19005   2.421   1.286   7.182 -0.6897  2.7259  0.3215
  168SAPE   C3519006   2.596   1.365   7.265 -0.4461  0.5465 -0.0780
  168SAPE   H5X19007   2.548   1.459   7.300  0.3945  0.3822  1.5590
  168SAPE   H5Y19008   2.694   1.384   7.216  0.7179  0.6372  2.2067
  168SAPE   C3619009   2.622   1.269   7.385 -0.2376 -0.3794 -0.1655
  168SAPE   H6X19010   2.680   1.177   7.362 -0.6704 -0.7339  0.1381
  168SAPE   H6Y19011   2.522   1.248   7.430 -0.2729  2.1443  0.9988
  168SAPE   C3719012   2.701   1.345   7.493 -0.4127  1.0423 -0.7526
  168SAPE   H7X19013   2.629   1.423   7.526 -0.4373  0.1013  1.4807
  168SAPE   H7Y19014   2.787   1.405   7.456 -0.9877  2.3977  0.0840
  168SAPE   C3819015   2.726   1.263   7.618  0.4304 -0.3231 -0.0680
  168SAPE   H8X19016   2.777   1.171   7.584  2.7326  0.5866  0.7916
  168SAPE   H8Y19017   2.638   1.242   7.682  0.9345 -0.1154  0.7047
  168SAPE   C3919018   2.832   1.325   7.715  0.9790 -0.7483 -0.3118
  168SAPE   H9X19019   2.791   1.410   7.774 -1.1384 -2.2361  0.4301
  168SAPE   H9Y19020   2.909   1.379   7.657 -0.4022  0.6505 -0.8974
  168SAPE  C31019021   2.911   1.235   7.818  0.1612 -0.2209 -0.0117
  168SAPE  H10X19022   2.983   1.170   7.765 -0.3554  0.7760 -2.0175
  168SAPE  H10Y19023   2.836   1.171   7.870 -0.6340  0.7118  0.0162
  168SAPE  C31119024   2.982   1.321   7.922  0.2899  0.1199 -0.7283
  168SAPE  H11X19025   2.982   1.253   8.010  2.6208 -0.9282 -1.5133
  168SAPE  H11Y19026   2.927   1.411   7.959  1.7311  0.1930  1.3473
  168SAPE  C31219027   3.126   1.347   7.876  0.4616 -0.0516  0.0642
  168SAPE  H12X19028   3.121   1.399   7.778  0.7994 -0.6825 -0.2914
  168SAPE  H12Y19029   3.184   1.253   7.866  1.2848  0.4908 -0.3021
  168SAPE  C31319030   3.197   1.441   7.975  0.5540  0.0362  0.8255
  168SAPE  H13X19031   3.130   1.529   7.985 -1.2396 -1.2395  0.2597
  168SAPE  H13Y19032   3.285   1.474   7.915 -0.2052 -2.1198 -1.5629
  168SAPE  C31419033   3.244   1.386   8.111 -0.1876 -0.1575  0.2390
  168SAPE  H14X19034   3.166   1.329   8.166 -1.8130  1.5427 -0.2234
  168SAPE  H14Y19035   3.267   1.473   8.177  1.4687 -0.5564  0.2044
  168SAPE  C31519036   3.364   1.295   8.101 -1.1950  0.0717  0.2562
  168SAPE  H15X19037   3.451   1.359   8.076 -0.0253 -1.3050  0.7265
  168SAPE  H15Y19038   3.364   1.205   8.036  2.1898 -0.0787  0.3746
  168SAPE  C31619039   3.392   1.231   8.241 -0.3767 -0.1781 -0.2343
  168SAPE  H16X19040   3.310   1.164   8.276  0.2324 -0.2312  1.1085
  168SAPE  H16Y19041   3.398   1.315   8.314  0.9724 -2.7135  2.7074
  168SAPE  C31719042   3.518   1.149   8.253 -0.5535 -0.3417  0.5303
  168SAPE  H17X19043   3.596   1.184   8.182 -1.7525 -0.6269 -0.9619
  168SAPE  H17Y19044   3.502   1.047   8.212 -1.2440 -0.1099  0.2198
  168SAPE  C31819045   3.574   1.150   8.393  0.8012  0.2377  0.2162
  168SAPE  H18X19046   3.673   1.098   8.389 -0.6293 -2.4435 -1.5155
  168SAPE  H18Y19047   3.514   1.094   8.467  0.0478  1.5373  0.6019
  168SAPE  H18Z19048   3.597   1.247   8.443 -1.3921 -0.1522  2.0286
  169SAPE     N19049   1.175   3.857   5.807 -0.2095  0.5603  0.4472
  169SAPE   HN119050   1.206   3.775   5.862  1.3451  0.0651 -1.1089
  169SAPE   HN219051   1.100   3.831   5.739 -0.0948  1.6036 -0.0864
  169SAPE   HN319052   1.260   3.883   5.753 -0.9983 -1.3048 -1.7972
  169SAPE   C1219053   1.137   3.961   5.906  0.1433 -0.1474  0.2001
  169SAPE  H12A19054   1.039   3.927   5.945 -0.1324  0.6243  0.1900
  169SAPE  H12B19055   1.137   4.058   5.852  4.9540  0.8390  1.7299
  169SAPE   C1119056   1.249   3.953   6.022 -0.2759 -0.4695  0.4037
  169SAPE  H11A19057   1.208   4.010   6.108 -0.1618 -0.0040  0.1515
  169SAPE  H11B19058   1.341   4.001   5.982 -0.5458 -0.1858  0.1265
  169SAPE     P19059   1.252   3.761   6.197 -0.3323 -0.5545 -0.0778
  169SAPE   O1319060   1.110   3.773   6.228 -0.4961  0.2256  0.0120
  169SAPE   O1419061   1.309   3.626   6.200 -0.8790  0.6419  0.4705
  169SAPE   O1219062   1.286   3.812   6.046  0.5521  0.0320  0.1679
  169SAPE   O1119063   1.332   3.871   6.288  0.2223  0.1872 -0.2887
  169SAPE    C119064   1.472   3.847   6.330  0.6958  0.7100 -0.2054
  169SAPE    HA19065   1.514   3.782   6.250  0.5378  3.6904 -2.7923
  169SAPE    HB19066   1.532   3.940   6.332 -0.2155  1.3064  0.0837
  169SAPE    C219067   1.477   3.795   6.475 -0.5201  0.2259 -0.8826
  169SAPE    HS19068   1.426   3.696   6.479  0.7238 -0.3684  1.0624
  169SAPE   O2119069   1.414   3.886   6.566 -0.2106 -0.0147  0.1858
  169SAPE   C2119070   1.364   3.835   6.668  0.5942  0.5373 -0.0175
  169SAPE   O2219071   1.345   3.715   6.699  0.1175 -0.0495  0.2274
  169SAPE   C2219072   1.316   3.940   6.765  0.2277 -0.3516 -0.1504
  169SAPE   H2R19073   1.320   4.038   6.712  0.8097 -2.1587 -3.6173
  169SAPE   H2S19074   1.210   3.914   6.781  0.0728  0.4556  0.1912
  169SAPE    C319075   1.622   3.767   6.522  0.7067 -0.0701 -0.4079
  169SAPE    HX19076   1.659   3.870   6.538  1.5705 -0.3131 -0.7764
  169SAPE    HY19077   1.698   3.718   6.456  1.8348  1.1656 -0.0443
  169SAPE   O3119078   1.618   3.705   6.654 -0.2883  0.1656  0.2540
  169SAPE   C3119079   1.713   3.738   6.740 -0.9324 -0.1484 -0.2545
  169SAPE   O3219080   1.811   3.808   6.716  0.4087 -0.2017  0.5635
  169SAPE   C3219081   1.687   3.665   6.875 -0.2491 -0.1668 -0.0003
  169SAPE   H2X19082   1.715   3.560   6.854  0.8916 -0.2317  1.7052
  169SAPE   H2Y19083   1.578   3.667   6.896  0.0529 -1.3853  1.7658
  169SAPE   C2319084   1.393   3.939   6.895  0.2556  0.1490 -0.2241
  169SAPE   H3R19085   1.402   3.834   6.930  0.9801  0.5625  0.8658
  169SAPE   H3S19086   1.317   3.989   6.959  1.1525 -1.9551  2.6063
  169SAPE   C2419087   1.518   4.019   6.891 -0.3019 -0.5461 -1.1927
  169SAPE   H4R19088   1.585   3.973   6.815  1.1374  0.8346 -0.7713
  169SAPE   H4S19089   1.572   4.012   6.988 -0.5890  1.2035 -0.8934
  169SAPE   C2519090   1.484   4.169   6.862 -0.6823 -0.4517 -0.3905
  169SAPE   H5R19091   1.500   4.209   6.760 -1.2491 -0.1248 -0.3520
  169SAPE   C2619092   1.433   4.257   6.956  0.3139  0.0975 -0.0549
  169SAPE   H6R19093   1.415   4.359   6.918 -1.8347  0.5976  2.1783
  169SAPE   C2719094   1.403   4.232   7.100  0.0144  0.0806  0.7745
  169SAPE   H7R19095   1.421   4.125   7.123  1.9030 -0.3259 -2.3658
  169SAPE   H7S19096   1.295   4.253   7.112  0.1809  0.9392  0.7873
  169SAPE   C2819097   1.496   4.305   7.196  0.3593  0.1263 -0.0781
  169SAPE   H8R19098   1.587   4.346   7.149  1.4678 -0.3929  1.5755
  169SAPE   C2919099   1.476   4.322   7.333  0.1325  0.0653  0.1812
  169SAPE   H9R19100   1.561   4.370   7.385  1.6757 -1.4000 -0.9192
  169SAPE  C21019101   1.368   4.276   7.423  0.0188 -0.1901  0.1690
  169SAPE  H10R19102   1.300   4.213   7.362  1.0497 -1.1396 -0.0058
  169SAPE  H10S19103   1.300   4.353   7.466 -2.0170 -0.6511 -2.1135
  169SAPE  C21119104   1.417   4.189   7.538  1.0288 -0.0027 -0.7122
  169SAPE  H11R19105   1.396   4.081   7.537  0.4874  0.1006 -2.3335
  169SAPE  C21219106   1.473   4.238   7.649 -0.9307  0.4170  0.4216
  169SAPE  H12R19107   1.481   4.168   7.733 -2.1718  1.0191  1.0531
  169SAPE  C21319108   1.508   4.385   7.676 -0.4288  0.6855 -0.0736
  169SAPE  H13R19109   1.438   4.428   7.750 -0.7402  0.0165  0.0191
  169SAPE  H13S19110   1.496   4.438   7.579  0.5312 -0.0071 -0.5767
  169SAPE  C21419111   1.644   4.414   7.724  0.3834  0.7086 -0.4460
  169SAPE  H14R19112   1.703   4.477   7.657 -0.7827  2.7339  0.3905
  169SAPE  C21519113   1.701   4.376   7.841 -0.0946 -0.2253  0.2703
  169SAPE  H15R19114   1.803   4.414   7.859 -0.1461  0.4588 -0.8393
  169SAPE  C21619115   1.636   4.294   7.947 -0.2144 -0.4464 -0.8653
  169SAPE  H16R19116   1.543   4.251   7.905 -0.2959 -0.6997 -0.4154
  169SAPE  H16S19117   1.600   4.365   8.024  1.5550  0.2488 -0.6437
  169SAPE  C21719118   1.711   4.173   8.015  0.4049 -0.2801 -0.3150
  169SAPE  H17R19119   1.769   4.200   8.107  0.6286 -0.5941 -0.3619
  169SAPE  H17S19120   1.778   4.148   7.930  2.2412  1.5972  0.5209
  169SAPE  C21819121   1.619   4.057   8.051 -0.3472 -0.1958  0.7631
  169SAPE  H18R19122   1.674   3.980   8.110 -1.6835 -0.7930  1.2648
  169SAPE  H18S19123   1.580   4.002   7.962  2.6908 -2.1440  0.5492
  169SAPE  C21919124   1.496   4.099   8.130  0.7034 -0.3767 -0.0070
  169SAPE  H19R19125   1.424   4.154   8.065 -2.6957 -3.5917  0.8220
  169SAPE  H19S19126   1.536   4.170   8.205 -1.2010 -1.4373  2.0876
  169SAPE  C22019127   1.424   3.991   8.198 -0.7644  0.0248  0.4102
  169SAPE  H20R19128   1.495   3.936   8.262  1.7314  1.0678 -1.3696
  169SAPE  H20S19129   1.406   3.910   8.124  0.2506 -0.6802  0.9239
  169SAPE  H20T19130   1.328   4.017   8.248 -0.0974  2.1948  0.5907
  169SAPE   C3319131   1.768   3.721   6.993  0.4818  0.1347 -0.3731
  169SAPE   H3X19132   1.760   3.831   6.996 -2.2524 -0.0710  0.8588
  169SAPE   H3Y19133   1.876   3.698   6.979  0.7013  0.3193  0.9773
  169SAPE   C3419134   1.734   3.656   7.128  0.1606  0.5051  0.2410
  169SAPE   H4X19135   1.779   3.556   7.145  1.2860  0.5615 -2.1011
  169SAPE   H4Y19136   1.626   3.633   7.132  0.2997  0.0359  1.3339
  169SAPE   C3519137   1.775   3.739   7.247 -0.1973  0.5491 -0.0440
  169SAPE   H5X19138   1.710   3.829   7.247 -0.2740  0.4930 -0.0128
  169SAPE   H5Y19139   1.876   3.785   7.239 -0.0444 -0.1139 -2.1448
  169SAPE   C3619140   1.746   3.659   7.378 -0.1969  0.3684  0.9132
  169SAPE   H6X19141   1.817   3.574   7.386 -0.1159  0.2903 -0.4268
  169SAPE   H6Y19142   1.643   3.620   7.373  0.3557 -0.8917 -1.3686
  169SAPE   C3719143   1.756   3.763   7.496 -0.1301 -0.0674  0.5757
  169SAPE   H7X19144   1.663   3.823   7.506 -1.3134 -2.0782  2.0605
  169SAPE   H7Y19145   1.837   3.838   7.483  0.0622 -0.2202  0.8713
  169SAPE   C3819146   1.790   3.705   7.635 -0.0367 -1.4193 -0.9814
  169SAPE   H8X19147   1.897   3.677   7.633  0.5903  0.6594  1.7307
  169SAPE   H8Y19148   1.719   3.620   7.649 -0.4182 -1.0458 -0.6220
  169SAPE   C3919149   1.787   3.818   7.737 -0.0346 -0.2366 -0.5581
  169SAPE   H9X19150   1.693   3.820   7.796  1.3570  1.5307  1.7161
  169SAPE   H9Y19151   1.787   3.918   7.689 -0.0629 -0.0144 -0.0953
  169SAPE  C31019152   1.897   3.793   7.843 -0.1486  0.3226 -0.3214
  169SAPE  H10X19153   1.899   3.880   7.913  0.3914  1.3607 -1.5951
  169SAPE  H10Y19154   1.996   3.771   7.797 -0.4417  0.2303 -0.8983
  169SAPE  C31119155   1.877   3.664   7.926  0.3431 -0.3268 -0.2857
  169SAPE  H11X19156   1.868   3.582   7.852 -0.3504 -0.8522  0.3827
  169SAPE  H11Y19157   1.784   3.684   7.982  0.1998 -0.6878 -0.3963
  169SAPE  C31219158   1.992   3.623   8.018  0.1078  0.5156  0.0205
  169SAPE  H12X19159   2.028   3.715   8.069  1.1512  0.9988 -1.5680
  169SAPE  H12Y19160   2.075   3.589   7.953  0.2337  0.7546  0.0562
  169SAPE  C31319161   1.953   3.510   8.116  0.3927 -0.5657 -0.3568
  169SAPE  H13X19162   2.046   3.462   8.152 -0.8321 -1.0681  2.2455
  169SAPE  H13Y19163   1.883   3.445   8.059  0.0190 -0.9398  0.5258
  169SAPE  C31419164   1.874   3.562   8.239 -0.3468  0.0516  0.0972
  169SAPE  H14X19165   1.776   3.589   8.196 -1.1627 -0.3982  1.6338
  169SAPE  H14Y19166   1.926   3.649   8.284  1.7032 -2.1847  2.2661
  169SAPE  C31519167   1.852   3.451   8.342  0.2591  0.5789  0.3027
  169SAPE  H15X19168   1.812   3.500   8.434 -2.2929 -0.1401 -0.3763
  169SAPE  H15Y19169   1.952   3.415   8.374  0.1978 -1.0788 -1.2819
  169SAPE  C31619170   1.764   3.342   8.303  0.4042  0.5489 -0.2691
  169SAPE  H16X19171   1.758   3.261   8.378 -1.7647  0.2509 -0.7503
  169SAPE  H16Y19172   1.798   3.299   8.206 -0.2342 -0.2780 -0.1319
  169SAPE  C31719173   1.620   3.387   8.300 -0.0433 -0.5840 -0.1554
  169SAPE  H17X19174   1.618   3.466   8.222  0.5890 -0.1648  0.2426
  169SAPE  H17Y19175   1.595   3.438   8.395  2.7692 -1.3792  1.0683
  169SAPE  C31819176   1.512   3.279   8.259  0.0727  1.1791 -0.4717
  169SAPE  H18X19177   1.527   3.237   8.157 -0.9843 -2.5533  0.8206
  169SAPE  H18Y19178   1.411   3.324   8.258  0.1364  1.2913 -2.2971
  169SAPE  H18Z19179   1.518   3.195   8.332  0.5358  0.3574 -1.4448
  170SAPE     N19180   2.301   6.556   6.199 -0.2159 -0.5293 -0.0216
  170SAPE   HN119181   2.254   6.649   6.192  2.1005  0.6492 -0.2067
  170SAPE   HN219182   2.295   6.514   6.104 -0.2883 -0.2070 -0.1598
  170SAPE   HN319183   2.234   6.499   6.254 -2.4505  0.9326 -1.1520
  170SAPE   C1219184   2.435   6.580   6.254 -0.8956  0.5170  0.6093
  170SAPE  H12A19185   2.508   6.584   6.170 -1.1927 -1.6247  0.2213
  170SAPE  H12B19186   2.466   6.498   6.322 -1.4732  1.2004  1.6964
  170SAPE   C1119187   2.436   6.704   6.337 -0.1493 -0.0853  0.5859
  170SAPE  H11A19188   2.529   6.710   6.398  0.5236  0.8023 -0.5131
  170SAPE  H11B19189   2.357   6.690   6.414 -0.7593 -1.9101 -0.3578
  170SAPE     P19190   2.534   6.901   6.192 -0.5816 -0.0710  0.3110
  170SAPE   O1319191   2.617   6.811   6.111  0.0189  0.1087  0.5981
  170SAPE   O1419192   2.474   7.007   6.109 -0.2574 -0.0444 -0.2154
  170SAPE   O1219193   2.418   6.819   6.253  0.4098  0.1414 -0.1249
  170SAPE   O1119194   2.614   6.951   6.317 -1.0414 -0.1199 -0.7771
  170SAPE    C119195   2.541   7.037   6.416  0.1885  0.0743  0.8358
  170SAPE    HA19196   2.431   7.042   6.400 -0.0242 -0.2826  2.0918
  170SAPE    HB19197   2.538   6.996   6.519  0.0242 -0.2016  0.7206
  170SAPE    C219198   2.590   7.185   6.426 -0.2321 -0.1675  0.3263
  170SAPE    HS19199   2.576   7.240   6.331  3.2937  1.7503  0.8043
  170SAPE   O2119200   2.736   7.184   6.464  0.9993 -0.1469 -0.4315
  170SAPE   C2119201   2.794   7.299   6.464 -0.1980  0.4818 -0.8162
  170SAPE   O2219202   2.743   7.409   6.461  0.3344  0.1770 -0.1294
  170SAPE   C2219203   2.948   7.274   6.484 -0.4991  0.3596  0.7366
  170SAPE   H2R19204   2.964   7.234   6.587 -0.3647 -1.2414  0.0981
  170SAPE   H2S19205   2.977   7.190   6.419 -0.9680 -0.0745  1.0782
  170SAPE    C319206   2.501   7.255   6.537  0.4184  0.2618  0.0979
  170SAPE    HX19207   2.405   7.270   6.483 -0.0649 -0.3212  0.7980
  170SAPE    HY19208   2.544   7.352   6.571 -1.3577  0.6760  1.2357
  170SAPE   O3119209   2.486   7.168   6.654  0.2743  0.4459  0.2941
  170SAPE   C3119210   2.389   7.194   6.738  0.3502  0.5917  0.0938
  170SAPE   O3219211   2.307   7.279   6.723 -0.0652  0.1635  0.0635
  170SAPE   C3219212   2.395   7.078   6.836 -0.1657 -0.2999  0.0896
  170SAPE   H2X19213   2.496   7.063   6.880 -1.1657  0.1558  2.6371
  170SAPE   H2Y19214   2.365   6.985   6.783  1.9460  0.5243 -2.6256
  170SAPE   C2319215   3.039   7.396   6.438 -0.5533  0.1219 -0.2198
  170SAPE   H3R19216   3.004   7.424   6.336  1.0911 -0.2383 -0.9080
  170SAPE   H3S19217   3.141   7.350   6.435  0.1147  1.6790 -2.2077
  170SAPE   C2419218   3.037   7.518   6.531 -0.9231  0.2641 -0.2011
  170SAPE   H4R19219   3.007   7.490   6.634  0.0479  0.0430  0.0226
  170SAPE   H4S19220   2.944   7.571   6.499 -0.3925 -0.1938 -2.5484
  170SAPE   C2519221   3.162   7.599   6.515  0.1586  0.2112 -0.1928
  170SAPE   H5R19222   3.185   7.610   6.408 -1.0720  0.6402 -0.4190
  170SAPE   C2619223   3.242   7.666   6.606 -0.3322 -0.1869  0.3595
  170SAPE   H6R19224   3.323   7.729   6.565 -1.0216 -0.5725 -1.6538
  170SAPE   C2719225   3.229   7.667   6.759  0.3375  0.0876  0.2369
  170SAPE   H7R19226   3.291   7.589   6.809  1.0132 -1.0656 -2.2828
  170SAPE   H7S19227   3.125   7.641   6.788  0.2502 -1.9602 -1.7548
  170SAPE   C2819228   3.243   7.806   6.810 -0.7597 -1.1054 -0.4174
  170SAPE   H8R19229   3.203   7.889   6.750 -0.3926  0.4588  1.4708
  170SAPE   C2919230   3.284   7.830   6.938 -0.2012  0.1438 -0.2422
  170SAPE   H9R19231   3.272   7.933   6.975 -0.0636 -0.3453  1.1901
  170SAPE  C21019232   3.325   7.740   7.053  0.4520  0.2107  0.1902
  170SAPE  H10R19233   3.255   7.658   7.080  1.2158 -0.7248 -0.6156
  170SAPE  H10S19234   3.329   7.797   7.148  0.2223 -1.5369  1.2792
  170SAPE  C21119235   3.456   7.666   7.034  0.3991  0.1465  0.8519
  170SAPE  H11R19236   3.484   7.649   6.929 -0.4649 -0.9121  0.7840
  170SAPE  C21219237   3.529   7.622   7.135  0.0232 -0.8120 -0.1107
  170SAPE  H12R19238   3.623   7.567   7.124 -0.2749 -1.5429  0.8942
  170SAPE  C21319239   3.492   7.638   7.286 -0.8132  0.2024  0.6155
  170SAPE  H13R19240   3.526   7.539   7.325  0.3254  0.8352  1.2361
  170SAPE  H13S19241   3.381   7.643   7.282 -0.6870  2.7752 -0.4947
  170SAPE  C21419242   3.566   7.746   7.364 -0.7238 -0.4029  0.1606
  170SAPE  H14R19243   3.590   7.837   7.308 -1.1768  0.8663  1.9668
  170SAPE  C21519244   3.571   7.751   7.495  0.1106  0.2306 -0.6794
  170SAPE  H15R19245   3.601   7.841   7.551 -0.5077  0.5659 -0.8725
  170SAPE  C21619246   3.506   7.637   7.578 -0.0588  0.9722 -0.0196
  170SAPE  H16R19247   3.578   7.580   7.640 -0.2854 -0.2025 -0.8131
  170SAPE  H16S19248   3.445   7.563   7.521 -0.6051  1.4883 -0.1104
  170SAPE  C21719249   3.400   7.689   7.684 -0.0669 -0.0477  0.4551
  170SAPE  H17R19250   3.365   7.592   7.725  0.0034 -0.7803 -1.1987
  170SAPE  H17S19251   3.322   7.740   7.625  0.2723  1.6131  1.4109
  170SAPE  C21819252   3.453   7.775   7.806  1.0695 -0.4348 -0.0384
  170SAPE  H18R19253   3.363   7.805   7.863  0.8899 -2.4479  0.7742
  170SAPE  H18S19254   3.498   7.869   7.768  2.2471 -0.4604  1.2191
  170SAPE  C21919255   3.564   7.708   7.897 -0.0855  0.0917  0.2261
  170SAPE  H19R19256   3.599   7.784   7.970 -0.0741 -0.0167  0.3332
  170SAPE  H19S19257   3.650   7.688   7.829 -0.0366 -0.0226  0.3188
  170SAPE  C22019258   3.534   7.577   7.978 -0.3390  0.1189  0.4435
  170SAPE  H20R19259   3.556   7.484   7.920 -1.8412 -0.1491  0.2929
  170SAPE  H20S19260   3.429   7.562   8.009 -1.2339  0.4879 -2.2478
  170SAPE  H20T19261   3.599   7.566   8.067 -1.0082 -3.0985  0.6109
  170SAPE   C3319262   2.294   7.111   6.956  0.8859 -0.0924 -0.2489
  170SAPE   H3X19263   2.205   7.045   6.958  2.0103 -1.6943 -1.4469
  170SAPE   H3Y19264   2.259   7.216   6.947  1.1271 -0.1353 -1.7492
  170SAPE   C3419265   2.353   7.097   7.095 -0.3419 -0.0075  0.5747
  170SAPE   H4X19266   2.449   7.152   7.100  0.0954 -0.8500  1.6276
  170SAPE   H4Y19267   2.365   6.991   7.123 -0.1035 -0.1846 -0.1961
  170SAPE   C3519268   2.255   7.158   7.191 -0.9687 -0.0120  0.7343
  170SAPE   H5X19269   2.171   7.085   7.188 -1.8349  0.9474  1.3661
  170SAPE   H5Y19270   2.211   7.258   7.170  0.7301  0.3669 -1.1496
  170SAPE   C3619271   2.309   7.169   7.335 -0.0110  0.2149  0.3618
  170SAPE   H6X19272   2.398   7.234   7.320 -1.6568  1.9414 -2.2467
  170SAPE   H6Y19273   2.333   7.065   7.367 -0.2876 -0.1217 -0.4995
  170SAPE   C3719274   2.213   7.219   7.439  0.4875  0.1818  0.0862
  170SAPE   H7X19275   2.123   7.155   7.422 -0.6498  1.2461  1.9297
  170SAPE   H7Y19276   2.195   7.320   7.397  1.5717 -0.5485 -2.1981
  170SAPE   C3819277   2.261   7.212   7.588  0.0078 -0.1728 -0.0178
  170SAPE   H8X19278   2.267   7.307   7.644  2.5991  0.3746 -1.1714
  170SAPE   H8Y19279   2.367   7.178   7.580 -0.0431  0.2061 -2.7127
  170SAPE   C3919280   2.192   7.104   7.677  0.3004 -0.0116  0.1272
  170SAPE   H9X19281   2.187   7.001   7.638 -1.8231 -0.3203  1.1274
  170SAPE   H9Y19282   2.084   7.131   7.684 -0.3345 -2.3671 -0.0658
  170SAPE  C31019283   2.267   7.096   7.816  0.1078  0.5028 -0.7055
  170SAPE  H10X19284   2.369   7.059   7.795  0.1772  1.4846 -2.1287
  170SAPE  H10Y19285   2.233   7.009   7.876 -0.7619  1.3467  0.0550
  170SAPE  C31119286   2.223   7.210   7.914  0.3128 -0.3992  0.3200
  170SAPE  H11X19287   2.116   7.208   7.944  1.2435 -2.3257  3.7796
  170SAPE  H11Y19288   2.228   7.309   7.864 -1.2988 -1.0561 -1.2043
  170SAPE  C31219289   2.309   7.196   8.037  0.2969  0.7222 -0.3714
  170SAPE  H12X19290   2.418   7.216   8.032 -0.1950  3.2116 -2.4398
  170SAPE  H12Y19291   2.301   7.089   8.066 -0.6446 -0.1893 -3.8073
  170SAPE  C31319292   2.259   7.274   8.163 -0.0006 -0.2165  0.0050
  170SAPE  H13X19293   2.156   7.237   8.185  0.5100  0.2467  3.4608
  170SAPE  H13Y19294   2.243   7.381   8.141  0.5155  0.1893  1.5676
  170SAPE  C31419295   2.339   7.259   8.291  0.8059  0.1869 -0.2739
  170SAPE  H14X19296   2.439   7.304   8.275  0.8151  0.4944  0.6506
  170SAPE  H14Y19297   2.358   7.155   8.324 -0.0607  0.3550  0.7616
  170SAPE  C31519298   2.267   7.335   8.402 -0.8034  0.3227 -0.6352
  170SAPE  H15X19299   2.157   7.321   8.408 -0.5276 -0.9850  2.6238
  170SAPE  H15Y19300   2.278   7.445   8.400 -2.0031  0.4459 -0.6543
  170SAPE  C31619301   2.333   7.305   8.539 -0.1099 -0.3361  1.0649
  170SAPE  H16X19302   2.432   7.354   8.541 -1.1994  2.0989 -1.2982
  170SAPE  H16Y19303   2.357   7.197   8.544  0.9614 -0.4308 -3.6465
  170SAPE  C31719304   2.243   7.344   8.656  1.0421  0.0358 -0.5038
  170SAPE  H17X19305   2.303   7.334   8.749  0.8170 -1.3899 -0.4962
  170SAPE  H17Y19306   2.177   7.257   8.677 -1.9030  2.3446  0.2798
  170SAPE  C31819307   2.163   7.475   8.648 -0.5559 -0.2836  0.0323
  170SAPE  H18X19308   2.087   7.468   8.567  0.6623 -1.5848 -1.0170
  170SAPE  H18Y19309   2.236   7.557   8.632 -2.3222  0.9933 -1.7868
  170SAPE  H18Z19310   2.107   7.486   8.744  1.1487 -0.4096  1.0692
  171SAPE     N19311   3.673   1.047   6.268  0.0939 -0.0734 -0.4400
  171SAPE   HN119312   3.738   1.028   6.189 -0.0604 -0.1363 -0.5512
  171SAPE   HN219313   3.738   1.052   6.349  2.1565 -0.2987 -2.0503
  171SAPE   HN319314   3.606   0.968   6.273  1.4755 -1.3332 -1.4467
  171SAPE   C1219315   3.599   1.180   6.255  0.0803  0.4585 -1.0504
  171SAPE  H12A19316   3.546   1.198   6.350 -1.4573 -0.3707 -1.7327
  171SAPE  H12B19317   3.519   1.160   6.181  0.1897  0.4073 -1.1555
  171SAPE   C1119318   3.690   1.296   6.224 -0.3758  0.6480  0.6111
  171SAPE  H11A19319   3.616   1.378   6.212  0.2388  1.2692  1.0700
  171SAPE  H11B19320   3.748   1.279   6.131  0.3535 -0.6050  1.2738
  171SAPE     P19321   3.848   1.441   6.357 -0.4205  0.3496  0.3778
  171SAPE   O1319322   3.843   1.508   6.228  0.4255 -0.2679  0.4642
  171SAPE   O1419323   3.782   1.505   6.469 -0.3236 -0.7774 -0.3446
  171SAPE   O1219324   3.774   1.305   6.333  0.4131  0.7142 -0.4774
  171SAPE   O1119325   3.998   1.385   6.392 -0.0494  0.1025 -0.4985
  171SAPE    C119326   4.109   1.466   6.404 -0.3672  0.6023  0.0798
  171SAPE    HA19327   4.171   1.469   6.312  0.6472  2.3685  0.7988
  171SAPE    HB19328   4.076   1.572   6.410 -0.5747  0.5106  0.6539
  171SAPE    C219329   4.201   1.418   6.526 -0.5670  0.6724 -1.0790
  171SAPE    HS19330   4.194   1.308   6.521  0.4145  0.4608  1.5442
  171SAPE   O2119331   4.146   1.459   6.655  0.6286  0.2813 -0.6423
  171SAPE   C2119332   4.155   1.372   6.753 -0.5396 -0.5500 -0.0135
  171SAPE   O2219333   4.184   1.258   6.743 -0.3882 -0.3955  0.2518
  171SAPE   C2219334   4.120   1.435   6.886  0.6886  0.7149  0.0399
  171SAPE   H2R19335   4.142   1.544   6.879  0.2596  0.7574 -0.7017
  171SAPE   H2S19336   4.016   1.398   6.900  0.9035 -0.1488 -0.6597
  171SAPE    C319337   4.346   1.469   6.511  0.5248 -0.6124 -0.1704
  171SAPE    HX19338   4.344   1.580   6.508  0.3569 -0.5856  0.6447
  171SAPE    HY19339   4.402   1.437   6.421  0.1099 -1.1739 -0.2341
  171SAPE   O3119340   4.426   1.423   6.620 -0.2960 -0.2590  0.7626
  171SAPE   C3119341   4.457   1.298   6.623  0.7600  0.2613  0.2376
  171SAPE   O3219342   4.430   1.220   6.535  0.0388 -0.2460 -0.1751
  171SAPE   C3219343   4.534   1.261   6.749  0.4668  0.3418  0.6177
  171SAPE   H2X19344   4.499   1.327   6.831  3.1464  0.2126  1.9383
  171SAPE   H2Y19345   4.639   1.293   6.732  1.1324 -3.4484 -3.4382
  171SAPE   C2319346   4.196   1.381   7.013  0.8511 -0.1485 -0.2819
  171SAPE   H3R19347   4.299   1.423   7.021  0.5744  0.1287  2.0171
  171SAPE   H3S19348   4.202   1.270   7.004  0.3298 -0.1331 -0.8645
  171SAPE   C2419349   4.120   1.416   7.147  0.3683 -0.1985  0.2182
  171SAPE   H4R19350   4.164   1.341   7.218  1.0817 -0.0167 -0.0280
  171SAPE   H4S19351   4.016   1.377   7.139  0.0160  1.1050 -1.7588
  171SAPE   C2519352   4.131   1.562   7.185 -0.3220  0.4047  0.1097
  171SAPE   H5R19353   4.098   1.638   7.113  0.1584  0.8123  0.3166
  171SAPE   C2619354   4.166   1.594   7.306 -0.4820 -0.5063 -0.3112
  171SAPE   H6R19355   4.181   1.703   7.314  1.5316 -0.7295 -0.8887
  171SAPE   C2719356   4.204   1.511   7.434  0.5161 -0.0068 -0.1653
  171SAPE   H7R19357   4.313   1.530   7.444  0.6022 -1.2281  1.2772
  171SAPE   H7S19358   4.204   1.402   7.411 -1.0365  0.0579 -0.4968
  171SAPE   C2819359   4.113   1.537   7.555 -0.0770  0.5597  0.2107
  171SAPE   H8R19360   4.007   1.508   7.546  0.0054  0.3282 -0.0087
  171SAPE   C2919361   4.145   1.594   7.674 -0.3538  0.7981  0.8142
  171SAPE   H9R19362   4.071   1.602   7.755  0.0859 -2.1783  1.5586
  171SAPE  C21019363   4.287   1.633   7.705 -0.9075 -0.4797 -0.6441
  171SAPE  H10R19364   4.362   1.646   7.624 -0.2949  1.8156  0.2450
  171SAPE  H10S19365   4.324   1.550   7.770 -0.1191  1.0198  0.8681
  171SAPE  C21119366   4.288   1.758   7.793 -0.3283 -0.2956 -0.0413
  171SAPE  H11R19367   4.311   1.849   7.736 -0.3443  0.3373  0.9665
  171SAPE  C21219368   4.265   1.766   7.922  0.3592  0.3534 -1.0498
  171SAPE  H12R19369   4.244   1.863   7.971 -1.8066 -0.2665 -0.6967
  171SAPE  C21319370   4.235   1.651   8.015  0.1162  0.7339 -0.4691
  171SAPE  H13R19371   4.200   1.562   7.958 -2.7284  2.0058 -0.7499
  171SAPE  H13S19372   4.153   1.676   8.085 -2.6690 -2.5917 -2.3543
  171SAPE  C21419373   4.364   1.602   8.081  0.2703  0.0015 -0.3716
  171SAPE  H14R19374   4.455   1.631   8.026  0.5907  0.9408  0.6279
  171SAPE  C21519375   4.374   1.560   8.208  0.3346  0.0430  0.3702
  171SAPE  H15R19376   4.473   1.530   8.246 -0.2227 -0.2100  1.6511
  171SAPE  C21619377   4.254   1.533   8.307 -0.2713 -0.1453  0.7753
  171SAPE  H16R19378   4.243   1.425   8.330 -1.1735  0.0590  1.3273
  171SAPE  H16S19379   4.153   1.570   8.279 -1.6252 -2.4512  2.5171
  171SAPE  C21719380   4.285   1.607   8.441 -0.0357  0.7792  0.1438
  171SAPE  H17R19381   4.390   1.596   8.475 -0.2641  1.9589  1.2533
  171SAPE  H17S19382   4.221   1.552   8.514 -0.4376  0.2436 -0.5998
  171SAPE  C21819383   4.251   1.756   8.426  0.6481 -0.0284  0.0169
  171SAPE  H18R19384   4.167   1.762   8.353 -1.2011 -1.5399  1.9237
  171SAPE  H18S19385   4.334   1.808   8.375  1.0387  0.3395  1.0059
  171SAPE  C21919386   4.209   1.838   8.559 -0.5237  0.6938 -0.2840
  171SAPE  H19R19387   4.116   1.806   8.611 -0.9571  2.1454 -0.1481
  171SAPE  H19S19388   4.186   1.942   8.528  1.1091  0.9032 -0.8289
  171SAPE  C22019389   4.320   1.848   8.666 -0.4414 -0.1015  0.2638
  171SAPE  H20R19390   4.337   1.752   8.720 -1.4421 -0.4414 -0.0096
  171SAPE  H20S19391   4.286   1.923   8.740  1.6307  0.2032  0.9201
  171SAPE  H20T19392   4.412   1.891   8.622 -0.3791  0.2511  0.7383
  171SAPE   C3319393   4.526   1.111   6.778 -0.2791  0.1237 -0.4069
  171SAPE   H3X19394   4.566   1.052   6.692 -1.3090 -0.2898 -0.6073
  171SAPE   H3Y19395   4.417   1.095   6.768 -0.0436 -1.4963 -0.5467
  171SAPE   C3419396   4.568   1.059   6.918  0.0369 -0.6372  0.8191
  171SAPE   H4X19397   4.678   1.073   6.933 -0.1503 -0.0165  1.6299
  171SAPE   H4Y19398   4.554   0.950   6.909 -1.8212 -0.3125 -0.6283
  171SAPE   C3519399   4.486   1.126   7.034  0.5836 -0.0602  0.4247
  171SAPE   H5X19400   4.379   1.100   7.018  0.8856 -0.0502 -1.6588
  171SAPE   H5Y19401   4.500   1.235   7.028 -1.1381  0.2277  1.0732
  171SAPE   C3619402   4.527   1.091   7.176  0.5162 -0.4829 -0.4650
  171SAPE   H6X19403   4.627   1.139   7.183  0.3585 -0.1050 -0.7318
  171SAPE   H6Y19404   4.528   0.981   7.188 -2.5490 -0.7135 -1.7850
  171SAPE   C3719405   4.449   1.156   7.281 -0.1409 -0.3271 -0.0901
  171SAPE   H7X19406   4.350   1.106   7.289 -0.2507 -0.1417 -0.2858
  171SAPE   H7Y19407   4.431   1.264   7.261  1.4637 -0.0986 -0.3915
  171SAPE   C3819408   4.518   1.144   7.417  0.0073 -0.0791  0.3797
  171SAPE   H8X19409   4.607   1.210   7.421 -0.7978  0.9845  0.9447
  171SAPE   H8Y19410   4.552   1.039   7.434  2.5640  0.6257 -0.1416
  171SAPE   C3919411   4.417   1.194   7.533  0.5527 -0.1928  0.6696
  171SAPE   H9X19412   4.336   1.119   7.539 -0.4378  0.7726 -0.3681
  171SAPE   H9Y19413   4.368   1.292   7.513 -0.1210 -0.0768  2.7760
  171SAPE  C31019414   4.480   1.207   7.670  0.6813 -0.2785  0.0835
  171SAPE  H10X19415   4.563   1.280   7.670  0.4986 -0.0728  0.4100
  171SAPE  H10Y19416   4.511   1.101   7.685 -1.0158 -0.9107 -0.7710
  171SAPE  C31119417   4.379   1.242   7.780  0.2836 -0.0810  0.4300
  171SAPE  H11X19418   4.313   1.153   7.779  1.1476 -0.7299  0.0062
  171SAPE  H11Y19419   4.318   1.327   7.742 -0.0688 -0.0820  0.9870
  171SAPE  C31219420   4.445   1.276   7.913 -0.3701 -0.0354  0.2685
  171SAPE  H12X19421   4.363   1.274   7.987 -1.4720 -0.1373 -0.9487
  171SAPE  H12Y19422   4.495   1.375   7.923 -2.1740  0.9064  0.1630
  171SAPE  C31319423   4.548   1.171   7.956  0.2498  0.0526  0.5013
  171SAPE  H13X19424   4.629   1.173   7.881  0.5048  0.3216  0.7852
  171SAPE  H13Y19425   4.507   1.069   7.973 -0.9122  0.4755  0.2990
  171SAPE  C31419426   4.614   1.197   8.095  0.6489 -0.4916  0.2700
  171SAPE  H14X19427   4.664   1.295   8.080 -0.1252  0.4288  3.2788
  171SAPE  H14Y19428   4.694   1.122   8.115  0.3681 -0.2457  2.4913
  171SAPE  C31519429   4.528   1.220   8.225  0.8495 -0.1209 -0.1953
  171SAPE  H15X19430   4.480   1.121   8.242 -0.3287  0.5460  0.4279
  171SAPE  H15Y19431   4.448   1.295   8.207  2.0895  1.4452  0.6964
  171SAPE  C31619432   4.626   1.258   8.335 -0.0589  0.1110 -0.7543
  171SAPE  H16X19433   4.667   1.361   8.325 -1.0223  0.8082  2.2000
  171SAPE  H16Y19434   4.722   1.205   8.317  1.0112  1.1815  1.6577
  171SAPE  C31719435   4.580   1.227   8.475 -0.2093  0.1653 -0.0366
  171SAPE  H17X19436   4.470   1.238   8.481 -0.2161 -0.1516  0.5284
  171SAPE  H17Y19437   4.621   1.302   8.546  2.0263 -1.1444  0.1277
  171SAPE  C31819438   4.619   1.084   8.533  0.3060 -0.1603  0.9049
  171SAPE  H18X19439   4.721   1.061   8.494 -0.3682 -1.0104 -0.3828
  171SAPE  H18Y19440   4.540   1.013   8.502 -1.0211  0.2274  3.2733
  171SAPE  H18Z19441   4.623   1.082   8.644 -0.8651  0.5876  0.9623
  172SAPE     N19442   3.106   6.255   6.362 -0.4281  0.0064 -0.1603
  172SAPE   HN119443   3.032   6.185   6.383 -1.1331  1.1103  1.1392
  172SAPE   HN219444   3.182   6.222   6.299  1.5465  1.3337  1.4449
  172SAPE   HN319445   3.158   6.276   6.450 -2.0555  0.0305  0.7986
  172SAPE   C1219446   3.058   6.384   6.296 -0.3321  0.1789  0.0985
  172SAPE  H12A19447   2.948   6.389   6.311 -0.4781 -0.2726 -0.7991
  172SAPE  H12B19448   3.067   6.375   6.186  2.0246  1.5828  0.1564
  172SAPE   C1119449   3.143   6.506   6.343  0.2524 -0.3669 -0.4510
  172SAPE  H11A19450   3.137   6.508   6.454  0.5462 -0.3584 -0.4343
  172SAPE  H11B19451   3.088   6.595   6.306 -0.7634 -0.7527  0.1249
  172SAPE     P19452   3.354   6.634   6.265  0.4489 -0.2842  0.1986
  172SAPE   O1319453   3.473   6.604   6.183 -0.4789 -0.6749 -0.6441
  172SAPE   O1419454   3.256   6.720   6.199 -0.0745  0.1085  0.8481
  172SAPE   O1219455   3.279   6.496   6.310  0.3266  0.1560  0.3203
  172SAPE   O1119456   3.395   6.695   6.407 -0.0651 -0.0005  0.1136
  172SAPE    C119457   3.345   6.817   6.449  0.0272  0.5476  0.6187
  172SAPE    HA19458   3.407   6.905   6.423  0.5295 -0.3912 -1.4789
  172SAPE    HB19459   3.241   6.839   6.417  0.9498  1.3707 -1.9557
  172SAPE    C219460   3.359   6.808   6.606  0.1523 -0.3749  0.7984
  172SAPE    HS19461   3.327   6.900   6.659  2.1847  0.3247  0.8713
  172SAPE   O2119462   3.494   6.790   6.641  0.2308 -0.4648  0.5780
  172SAPE   C2119463   3.524   6.820   6.765  0.6860 -0.1630  0.1064
  172SAPE   O2219464   3.467   6.898   6.840  0.1713 -0.6925 -0.3575
  172SAPE   C2219465   3.672   6.774   6.784 -0.9358 -0.3717  0.1185
  172SAPE   H2R19466   3.654   6.665   6.778 -1.1670 -0.2912 -0.6573
  172SAPE   H2S19467   3.732   6.804   6.695 -0.5125  1.6154  1.0392
  172SAPE    C319468   3.261   6.693   6.668 -0.3606  0.1383  0.2262
  172SAPE    HX19469   3.300   6.595   6.633 -2.5597 -0.0381 -1.8932
  172SAPE    HY19470   3.161   6.715   6.625 -0.1255 -0.1072 -0.4563
  172SAPE   O3119471   3.271   6.699   6.813  0.2732  0.1864  0.4042
  172SAPE   C3119472   3.182   6.773   6.880 -1.1672 -0.1158 -0.3699
  172SAPE   O3219473   3.089   6.826   6.822  0.0674 -0.4565  0.7174
  172SAPE   C3219474   3.211   6.770   7.033 -0.8741 -0.3000 -0.8813
  172SAPE   H2X19475   3.316   6.736   7.047 -1.1058 -0.4498  0.5649
  172SAPE   H2Y19476   3.151   6.696   7.090  1.4866 -1.0442  0.7570
  172SAPE   C2319477   3.733   6.820   6.916  0.6137  0.3650  0.5850
  172SAPE   H3R19478   3.661   6.860   6.991  0.2078  1.2815 -0.2766
  172SAPE   H3S19479   3.800   6.903   6.887 -0.8979  1.3374 -0.2059
  172SAPE   C2419480   3.815   6.711   6.994 -0.4286 -0.2082 -0.1988
  172SAPE   H4R19481   3.756   6.618   7.009  0.3673 -0.5826  0.6467
  172SAPE   H4S19482   3.842   6.752   7.094  0.8672  0.1245 -0.6801
  172SAPE   C2519483   3.937   6.669   6.916 -0.0914 -0.4557 -0.2643
  172SAPE   H5R19484   3.912   6.616   6.823 -1.4314 -0.1402 -0.0945
  172SAPE   C2619485   4.065   6.676   6.961 -0.1645  0.2911  0.5250
  172SAPE   H6R19486   4.143   6.633   6.897 -1.0128  0.1940 -0.4487
  172SAPE   C2719487   4.111   6.734   7.096 -0.2227 -0.3029 -0.2068
  172SAPE   H7R19488   4.045   6.806   7.149  0.4790 -1.1485  1.8969
  172SAPE   H7S19489   4.204   6.792   7.081 -1.7489  1.6757 -2.2599
  172SAPE   C2819490   4.158   6.622   7.191  0.0192 -0.7611  0.0682
  172SAPE   H8R19491   4.202   6.535   7.140  0.3399 -1.6798  1.8777
  172SAPE   C2919492   4.160   6.630   7.326 -0.6108 -0.0088 -0.2089
  172SAPE   H9R19493   4.185   6.541   7.386  0.8904  0.1839 -0.5234
  172SAPE  C21019494   4.112   6.749   7.408 -1.1282 -0.4978 -0.0129
  172SAPE  H10R19495   4.125   6.840   7.347 -0.3106 -0.1527  0.6688
  172SAPE  H10S19496   4.174   6.760   7.500  0.4863 -0.1265 -1.1419
  172SAPE  C21119497   3.969   6.740   7.453  0.4336  0.5641 -0.4936
  172SAPE  H11R19498   3.896   6.730   7.371 -1.0516  1.3031  0.7051
  172SAPE  C21219499   3.930   6.759   7.579  0.3585 -0.0310  0.6820
  172SAPE  H12R19500   3.826   6.775   7.611  0.5021 -2.2296  2.4089
  172SAPE  C21319501   4.014   6.778   7.704 -0.4805 -0.4415 -0.5037
  172SAPE  H13R19502   3.945   6.785   7.791 -0.7536 -0.1503 -0.7446
  172SAPE  H13S19503   4.071   6.873   7.707 -0.6383 -0.2536 -2.5748
  172SAPE  C21419504   4.114   6.668   7.735  0.5785  0.3242  0.6316
  172SAPE  H14R19505   4.146   6.608   7.648  2.0492  0.5596  0.9867
  172SAPE  C21519506   4.161   6.635   7.852 -0.1481 -0.2994 -0.6163
  172SAPE  H15R19507   4.222   6.544   7.862  1.8917  1.0622 -0.2420
  172SAPE  C21619508   4.129   6.711   7.973 -0.2241 -0.4558 -0.4031
  172SAPE  H16R19509   4.091   6.813   7.953  1.0780  0.0915 -0.1591
  172SAPE  H16S19510   4.223   6.718   8.033  0.1537 -0.3550 -1.0105
  172SAPE  C21719511   4.018   6.630   8.049  0.0887 -0.8773  0.2973
  172SAPE  H17R19512   4.043   6.524   8.069 -0.1694 -1.2317 -1.1596
  172SAPE  H17S19513   3.920   6.624   7.996 -1.0542  1.6624  2.0496
  172SAPE  C21819514   4.002   6.693   8.188  0.7910 -0.2234 -0.1969
  172SAPE  H18R19515   4.093   6.681   8.250 -0.0972 -1.0009  0.9814
  172SAPE  H18S19516   3.923   6.631   8.235  1.9016 -3.0304 -1.9356
  172SAPE  C21919517   3.959   6.841   8.186 -0.3912  0.1541 -0.1168
  172SAPE  H19R19518   3.885   6.845   8.104  0.9791 -1.3364 -1.4617
  172SAPE  H19S19519   4.047   6.908   8.172 -1.0775  1.2266  0.5947
  172SAPE  C22019520   3.893   6.874   8.319  0.5089 -0.4610  0.0173
  172SAPE  H20R19521   3.963   6.855   8.403  0.1311 -0.3416  0.3647
  172SAPE  H20S19522   3.807   6.805   8.338  0.2663  0.3600  1.9948
  172SAPE  H20T19523   3.850   6.976   8.322 -0.6068 -0.9378  0.9716
  172SAPE   C3319524   3.194   6.908   7.099  0.3780 -0.3435  0.2305
  172SAPE   H3X19525   3.088   6.940   7.088  0.3800  0.3589  2.0536
  172SAPE   H3Y19526   3.248   6.991   7.047 -2.0632 -0.2193 -2.2275
  172SAPE   C3419527   3.233   6.911   7.249  0.0322 -0.1586  0.0860
  172SAPE   H4X19528   3.342   6.899   7.268  0.2021  0.7689 -0.2628
  172SAPE   H4Y19529   3.187   6.819   7.290  0.2490 -0.5370 -0.5198
  172SAPE   C3519530   3.183   7.040   7.316  0.2888  0.3233  0.3987
  172SAPE   H5X19531   3.074   7.044   7.296  0.7069  2.4327 -1.5604
  172SAPE   H5Y19532   3.230   7.132   7.276  0.9444  0.8260  2.2667
  172SAPE   C3619533   3.210   7.036   7.469 -0.1296  0.6163  0.9052
  172SAPE   H6X19534   3.305   6.980   7.484 -0.0437  0.5998  0.3009
  172SAPE   H6Y19535   3.135   6.977   7.526  0.2496 -0.6866  0.0713
  172SAPE   C3719536   3.212   7.173   7.531  0.2765  0.2054 -0.4850
  172SAPE   H7X19537   3.123   7.236   7.513  1.2619  1.7321 -0.1106
  172SAPE   H7Y19538   3.299   7.231   7.493 -0.3384  0.7552 -1.0671
  172SAPE   C3819539   3.236   7.164   7.681  0.5362 -0.4058  0.1332
  172SAPE   H8X19540   3.330   7.107   7.696 -0.8147 -2.2997  1.6832
  172SAPE   H8Y19541   3.154   7.107   7.730  0.8022  1.0662  2.3706
  172SAPE   C3919542   3.247   7.294   7.758 -0.1317 -0.2244 -0.3576
  172SAPE   H9X19543   3.152   7.351   7.761  1.3106  2.2608  0.3470
  172SAPE   H9Y19544   3.318   7.361   7.705 -1.4322 -0.5646 -2.5701
  172SAPE  C31019545   3.305   7.280   7.899 -0.5153 -0.0621 -0.3298
  172SAPE  H10X19546   3.306   7.382   7.944 -3.2023  0.0307 -0.4027
  172SAPE  H10Y19547   3.404   7.231   7.896 -1.2645 -1.5503 -1.3645
  172SAPE  C31119548   3.223   7.177   7.986  0.0928  0.7520 -0.0206
  172SAPE  H11X19549   3.224   7.073   7.948  0.5563  0.9998 -0.7052
  172SAPE  H11Y19550   3.117   7.210   7.989  0.0766  0.9232 -1.7757
  172SAPE  C31219551   3.277   7.155   8.132 -0.0164  0.7187  0.5752
  172SAPE  H12X19552   3.262   7.253   8.182  0.9998  1.5298 -0.6647
  172SAPE  H12Y19553   3.383   7.120   8.128 -1.4762 -3.8531 -1.4654
  172SAPE  C31319554   3.209   7.034   8.195  0.1520  0.1512  0.2415
  172SAPE  H13X19555   3.246   6.948   8.135 -0.3721  0.4293 -0.4782
  172SAPE  H13Y19556   3.099   7.039   8.189  0.1204 -0.5631  0.1504
  172SAPE  C31419557   3.251   7.031   8.339 -0.3877 -0.0912 -0.5567
  172SAPE  H14X19558   3.240   7.135   8.377  0.4897 -0.3912  0.5445
  172SAPE  H14Y19559   3.358   7.007   8.357  0.1095  1.9947 -0.6225
  172SAPE  C31519560   3.171   6.928   8.425 -0.4743  0.2240 -0.0060
  172SAPE  H15X19561   3.192   6.832   8.374  0.8304  0.2124  0.5156
  172SAPE  H15Y19562   3.062   6.947   8.415 -0.5217 -0.0912 -0.0993
  172SAPE  C31619563   3.211   6.926   8.574  0.1093 -0.4217 -0.2583
  172SAPE  H16X19564   3.167   7.018   8.617  0.7153  0.9613 -2.5008
  172SAPE  H16Y19565   3.322   6.929   8.579 -0.0289  0.4809  2.7070
  172SAPE  C31719566   3.157   6.799   8.633  0.3708  0.4236 -0.4169
  172SAPE  H17X19567   3.164   6.800   8.744  0.4166 -1.5515 -0.3907
  172SAPE  H17Y19568   3.216   6.714   8.593  1.3578  0.7917  0.2255
  172SAPE  C31819569   3.014   6.759   8.598 -0.1029 -0.1433 -0.4612
  172SAPE  H18X19570   2.984   6.665   8.650  0.2028  0.1841  0.3226
  172SAPE  H18Y19571   3.007   6.743   8.489  0.3040 -1.4163 -0.3169
  172SAPE  H18Z19572   2.939   6.836   8.627 -0.6988 -1.1225  0.6356
  173SOPE     N19573   3.673   5.123  10.995  0.5064 -0.2613  0.0003
  173SOPE   HN119574   3.669   5.019  10.999 -0.9506 -0.2747 -1.5252
  173SOPE   HN219575   3.773   5.152  10.985  0.6450  0.6579  3.2209
  173SOPE   HN319576   3.639   5.173  11.080  0.1759 -0.9975  0.3028
  173SOPE   C1219577   3.585   5.151  10.874 -0.5502 -1.2168 -0.1945
  173SOPE  H12A19578   3.588   5.260  10.854 -1.5020 -1.1400  0.0355
  173SOPE  H12B19579   3.477   5.132  10.892 -0.6817  1.6267  2.3616
  173SOPE   C1119580   3.628   5.072  10.752 -0.1251  0.4975 -0.3496
  173SOPE  H11A19581   3.731   5.104  10.725  0.7941 -1.8813  0.1410
  173SOPE  H11B19582   3.568   5.106  10.666 -0.6291 -1.2495 -0.7204
  173SOPE     P19583   3.719   4.827  10.801 -0.3267  0.0346 -0.2147
  173SOPE   O1319584   3.673   4.688  10.774  0.0109  0.7423 -0.2398
  173SOPE   O1419585   3.758   4.853  10.941 -0.1546 -0.6551 -0.1356
  173SOPE   O1219586   3.607   4.932  10.765 -0.4686 -0.8035  0.7512
  173SOPE   O1119587   3.832   4.868  10.696 -0.4219  0.3034 -0.0010
  173SOPE    C119588   3.822   4.836  10.559 -0.0844  0.0064  0.2150
  173SOPE    HA19589   3.807   4.927  10.497  0.1751  0.4617  0.8218
  173SOPE    HB19590   3.737   4.766  10.540  0.6307 -1.1536  1.2029
  173SOPE    C219591   3.963   4.774  10.515 -0.3197 -0.3975 -0.6745
  173SOPE    HS19592   4.038   4.851  10.542 -1.4988  0.3037  0.6386
  173SOPE   O2119593   3.951   4.722  10.377 -0.0884 -0.1813  0.0244
  173SOPE   C2119594   3.964   4.822  10.289  0.5515  0.2213  0.6001
  173SOPE   O2219595   3.983   4.935  10.325 -0.0808 -0.7317  0.1425
  173SOPE   C2219596   3.941   4.781  10.141 -0.1317  0.2899  0.2698
  173SOPE   H2R19597   3.879   4.688  10.137 -0.2514  0.3882 -0.1995
  173SOPE   H2S19598   4.042   4.756  10.104  0.3675 -0.8247  2.2995
  173SOPE    C319599   4.007   4.648  10.605  0.2879  0.1431  0.0983
  173SOPE    HX19600   3.919   4.586  10.632  1.9778 -1.3032  2.3826
  173SOPE    HY19601   4.052   4.679  10.701 -0.3873 -1.6763  1.0154
  173SOPE   O3119602   4.097   4.561  10.533 -0.2184  0.4029 -0.0077
  173SOPE   C3119603   4.206   4.621  10.507  0.2122 -0.0870  0.8012
  173SOPE   O3219604   4.242   4.726  10.557  0.0482 -0.4259  0.3458
  173SOPE   C3219605   4.287   4.543  10.405 -0.4292 -0.5650  0.2873
  173SOPE   H2X19606   4.322   4.448  10.453  1.7886 -0.1422 -0.4207
  173SOPE   H2Y19607   4.380   4.602  10.389 -1.3428  0.8530  0.1264
  173SOPE   C2319608   3.882   4.899  10.064 -0.0006 -0.2563 -0.0094
  173SOPE   H3R19609   3.892   4.989  10.128  0.2871  0.8855 -1.6375
  173SOPE   H3S19610   3.773   4.882  10.055  0.0642 -0.7067  0.0583
  173SOPE   C2419611   3.950   4.924   9.925 -0.1207  0.1593  0.3337
  173SOPE   H4R19612   3.922   5.029   9.899  1.7903  0.7062  0.3943
  173SOPE   H4S19613   4.061   4.918   9.921 -0.0733 -0.2684  1.7852
  173SOPE   C2519614   3.889   4.830   9.823 -0.2609  0.0648  0.6523
  173SOPE   H5R19615   3.932   4.728   9.834  1.6113  0.6909 -0.5773
  173SOPE   H5S19616   3.781   4.827   9.846 -0.1808  2.1784  1.4514
  173SOPE   C2619617   3.908   4.870   9.670 -0.2257  0.0035 -0.3009
  173SOPE   H6R19618   3.839   4.954   9.651 -2.2507 -1.5833 -0.1379
  173SOPE   H6S19619   4.013   4.901   9.649 -0.1307  0.1450  0.3646
  173SOPE   C2719620   3.869   4.752   9.582  0.1002 -0.4660 -0.2458
  173SOPE   H7R19621   3.910   4.662   9.631 -1.1587 -1.2463 -0.6012
  173SOPE   H7S19622   3.758   4.755   9.578  0.0982  1.5730  0.6355
  173SOPE   C2819623   3.911   4.771   9.437  0.1381 -0.3348  0.3496
  173SOPE   H8R19624   4.022   4.767   9.437  0.1066 -1.2187  0.2208
  173SOPE   H8S19625   3.879   4.685   9.376 -0.4569  0.0243  0.1490
  173SOPE   C2919626   3.863   4.901   9.382  0.6095  0.9539  1.9021
  173SOPE   H9119627   3.763   4.921   9.424  0.3525  4.8855 -0.2628
  173SOPE  C21019628   3.934   5.000   9.316  0.3830  0.3144  0.1587
  173SOPE  H10119629   3.886   5.092   9.279  2.1815  1.9396  1.7466
  173SOPE  C21119630   4.077   4.996   9.292  0.1717 -0.2366 -0.2392
  173SOPE  H11R19631   4.117   4.907   9.345  0.9484  1.8454  2.7922
  173SOPE  H11S19632   4.118   5.082   9.349 -0.5922  0.8838 -1.3404
  173SOPE  C21219633   4.116   4.996   9.144 -0.0790  0.3548  0.3636
  173SOPE  H12R19634   4.227   5.003   9.140 -0.0646  0.3086  0.6945
  173SOPE  H12S19635   4.096   5.087   9.083 -1.0296  0.5493  0.9672
  173SOPE  C21319636   4.084   4.863   9.077  0.0355  0.7769  0.2004
  173SOPE  H13R19637   3.977   4.832   9.079  0.7467 -2.1145 -2.8591
  173SOPE  H13S19638   4.119   4.782   9.144 -2.2873 -0.6427 -0.2314
  173SOPE  C21419639   4.145   4.839   8.942 -0.4514 -0.4089  0.3321
  173SOPE  H14R19640   4.175   4.732   8.930  0.2398 -0.0351 -1.4397
  173SOPE  H14S19641   4.241   4.895   8.938  0.2564 -1.5626  0.9250
  173SOPE  C21519642   4.046   4.869   8.828  0.5342  0.5056  0.4196
  173SOPE  H15R19643   3.949   4.831   8.866 -0.5547  1.1358 -1.6588
  173SOPE  H15S19644   4.076   4.816   8.735  2.2572  2.2459 -0.0516
  173SOPE  C21619645   4.031   5.016   8.798 -0.2336 -0.0175 -0.3548
  173SOPE  H16R19646   4.124   5.051   8.747  0.3794 -1.3750 -0.1749
  173SOPE  H16S19647   4.022   5.071   8.894 -0.2332 -0.5358 -0.0538
  173SOPE  C21719648   3.915   5.045   8.713 -0.5316 -0.2198 -0.1866
  173SOPE  H17R19649   3.831   4.978   8.740 -0.4556 -0.6298 -0.9564
  173SOPE  H17S19650   3.945   5.021   8.609 -1.5624 -1.1607 -0.2730
  173SOPE  C21819651   3.875   5.194   8.704 -0.0311 -0.5505  0.3376
  173SOPE  H18R19652   3.825   5.223   8.799 -1.1739 -0.0840 -0.3869
  173SOPE  H18S19653   3.806   5.216   8.620  0.2162  0.7254  0.4613
  173SOPE  H18T19654   3.965   5.254   8.680  0.9198 -2.8774 -2.1574
  173SOPE   C3319655   4.214   4.517  10.270  0.1935 -0.3175 -0.1080
  173SOPE   H3X19656   4.166   4.614  10.245 -0.2104 -0.8295 -1.3455
  173SOPE   H3Y19657   4.132   4.441  10.277  0.3994 -0.5682 -0.4208
  173SOPE   C3419658   4.296   4.468  10.152 -0.2924 -0.6584  0.5972
  173SOPE   H4X19659   4.364   4.384  10.177 -0.2998 -0.9210 -0.2537
  173SOPE   H4Y19660   4.356   4.555  10.117  0.7165 -1.2283  0.8914
  173SOPE   C3519661   4.219   4.421  10.028 -0.6513  0.2125 -0.0746
  173SOPE   H5X19662   4.172   4.328  10.066  1.3245 -1.1657 -0.9584
  173SOPE   H5Y19663   4.285   4.398   9.942  0.8790 -3.9516  2.0842
  173SOPE   C3619664   4.119   4.513   9.972  0.8375  0.0645 -0.2219
  173SOPE   H6X19665   4.154   4.608   9.925 -1.1625  0.3687 -1.1606
  173SOPE   H6Y19666   4.063   4.536  10.065  3.1698  0.0273  1.2481
  173SOPE   C3719667   4.024   4.432   9.875  0.1205 -0.6623  0.0864
  173SOPE   H7X19668   3.947   4.507   9.846  0.0383 -1.1901 -1.1048
  173SOPE   H7Y19669   3.971   4.347   9.923 -3.2362  0.9943 -0.5406
  173SOPE   C3819670   4.085   4.397   9.738 -0.2989  0.2399 -0.3631
  173SOPE   H8X19671   4.176   4.335   9.752 -0.3700  0.3618  0.6672
  173SOPE   H8Y19672   4.113   4.492   9.687 -0.5148  1.2961  1.4326
  173SOPE   C3919673   3.997   4.312   9.636 -0.0864 -0.8037  0.0693
  173SOPE   H9X19674   3.966   4.216   9.683  1.2274  0.2617  3.2720
  173SOPE   H9Y19675   4.059   4.289   9.547  0.7053 -1.7963  0.8546
  173SOPE  C31019676   3.855   4.361   9.598  0.3686 -0.0712  0.8058
  173SOPE  H10X19677   3.849   4.463   9.554  0.6091 -0.7043 -0.7392
  173SOPE  H10Y19678   3.791   4.365   9.689  2.9133 -2.3242  2.7558
  173SOPE  C31119679   3.791   4.275   9.490  1.0385  0.1655  0.5213
  173SOPE  H11X19680   3.694   4.318   9.458  0.8746 -0.9277 -0.4996
  173SOPE  H11Y19681   3.760   4.179   9.538 -1.0172 -0.7057 -2.3835
  173SOPE  C31219682   3.874   4.249   9.366  0.2414 -0.6500 -0.2245
  173SOPE  H12X19683   3.822   4.171   9.307  0.3489 -0.0677 -1.0927
  173SOPE  H12Y19684   3.974   4.205   9.385  0.6905 -0.2200 -1.5772
  173SOPE  C31319685   3.908   4.380   9.292  0.0034  0.1656 -0.3121
  173SOPE  H13X19686   4.004   4.364   9.239  0.3606 -0.7521  0.5865
  173SOPE  H13Y19687   3.925   4.459   9.369  0.9850 -1.0359  0.7218
  173SOPE  C31419688   3.793   4.415   9.195  0.0261 -0.3029 -0.6616
  173SOPE  H14X19689   3.697   4.436   9.247 -0.4995 -0.1649 -1.6827
  173SOPE  H14Y19690   3.774   4.322   9.138 -1.9266 -0.9801  1.0211
  173SOPE  C31519691   3.820   4.537   9.092 -0.1965 -0.1475 -0.6456
  173SOPE  H15X19692   3.911   4.519   9.032 -1.0921  0.1127 -2.1182
  173SOPE  H15Y19693   3.850   4.623   9.155  0.0001 -1.4366  1.0534
  173SOPE  C31619694   3.696   4.569   9.004  0.3411 -0.3671  0.4536
  173SOPE  H16X19695   3.708   4.679   8.994  1.6134 -0.7747 -3.0965
  173SOPE  H16Y19696   3.596   4.551   9.049  0.3331 -1.7509 -0.1097
  173SOPE  C31719697   3.710   4.505   8.863 -0.6428 -0.6027  0.4493
  173SOPE  H17X19698   3.712   4.394   8.857 -0.1354 -0.5247 -1.1040
  173SOPE  H17Y19699   3.810   4.544   8.835 -0.3640 -0.6648  1.3459
  173SOPE  C31819700   3.604   4.553   8.769  0.9603 -0.5100 -0.5444
  173SOPE  H18X19701   3.618   4.502   8.672  0.0266 -1.7452 -0.0381
  173SOPE  H18Y19702   3.597   4.664   8.759 -0.7522 -0.4075  1.3724
  173SOPE  H18Z19703   3.505   4.513   8.797  1.3935 -1.7445 -0.7512
  174SOPE     N19704   4.461   4.150  11.012  0.0138 -0.1763 -0.3374
  174SOPE   HN119705   4.468   4.059  11.060 -0.9091 -0.2196 -0.2884
  174SOPE   HN219706   4.556   4.193  11.006 -0.1915  0.1951 -1.0381
  174SOPE   HN319707   4.407   4.215  11.072 -2.3199 -1.6798 -0.7565
  174SOPE   C1219708   4.405   4.127  10.876  0.0326  0.1296  0.5407
  174SOPE  H12A19709   4.476   4.069  10.813  0.4596  0.0728  1.0747
  174SOPE  H12B19710   4.402   4.226  10.826 -1.6096 -0.2962 -0.2304
  174SOPE   C1119711   4.262   4.068  10.876 -0.4434  0.3088  0.2432
  174SOPE  H11A19712   4.273   3.978  10.940  0.2011  1.2201  1.4302
  174SOPE  H11B19713   4.248   4.027  10.773 -0.9588  0.7515  0.1376
  174SOPE     P19714   4.014   4.130  10.892  0.7071 -0.4697  0.1051
  174SOPE   O1319715   3.923   4.238  10.936  0.5990 -0.9199 -0.1923
  174SOPE   O1419716   3.992   3.989  10.934 -0.2676 -0.7488  0.5572
  174SOPE   O1219717   4.168   4.170  10.919  0.5938  0.4452 -0.3032
  174SOPE   O1119718   4.015   4.128  10.736 -0.3710  0.5618  0.1064
  174SOPE    C119719   4.046   4.245  10.652  0.0428  0.7045 -0.3916
  174SOPE    HA19720   4.146   4.288  10.674 -0.4594  1.9800 -0.5617
  174SOPE    HB19721   3.979   4.333  10.664  1.1207  1.3793  0.8417
  174SOPE    C219722   4.040   4.206  10.504  0.6554 -1.0031 -0.1105
  174SOPE    HS19723   4.104   4.277  10.448 -1.5311  1.5810  0.5614
  174SOPE   O2119724   3.902   4.229  10.461  0.1067  0.5192  0.0876
  174SOPE   C2119725   3.883   4.259  10.330 -0.1638  0.0811  0.6509
  174SOPE   O2219726   3.968   4.275  10.244 -0.0192 -0.1043 -0.7057
  174SOPE   C2219727   3.735   4.286  10.312 -0.1883 -0.3213 -0.8216
  174SOPE   H2R19728   3.707   4.381  10.361  0.9522 -1.1644  1.5630
  174SOPE   H2S19729   3.681   4.206  10.367 -0.6570  1.1843  0.9698
  174SOPE    C319730   4.088   4.063  10.478  0.4639 -0.2822  0.5260
  174SOPE    HX19731   4.004   3.997  10.510 -1.7885  1.8716 -0.8289
  174SOPE    HY19732   4.171   4.028  10.543  0.2160 -1.9105 -0.0114
  174SOPE   O3119733   4.106   4.033  10.338  0.1011 -0.9765  0.3197
  174SOPE   C3119734   4.214   4.075  10.278 -0.3965 -0.2299 -0.5613
  174SOPE   O3219735   4.301   4.144  10.331  0.7192 -0.2448  0.4909
  174SOPE   C3219736   4.220   4.034  10.131  0.5029  0.4907 -0.6591
  174SOPE   H2X19737   4.148   4.101  10.079  0.9229  2.1851  0.9244
  174SOPE   H2Y19738   4.199   3.928  10.106  2.4748  0.2092 -1.1870
  174SOPE   C2319739   3.686   4.287  10.166 -0.3634  0.2173  0.4999
  174SOPE   H3R19740   3.745   4.343  10.089 -0.1444 -0.3638  0.2414
  174SOPE   H3S19741   3.588   4.338  10.161 -0.0851  0.7794  0.6582
  174SOPE   C2419742   3.645   4.147  10.113  0.0488 -0.1013 -0.7708
  174SOPE   H4R19743   3.579   4.091  10.183  0.4919 -0.1098 -0.3578
  174SOPE   H4S19744   3.592   4.146  10.016  2.0889 -0.8638 -1.8974
  174SOPE   C2519745   3.766   4.065  10.076 -0.0302  0.2219  0.7700
  174SOPE   H5R19746   3.840   4.120  10.014 -1.6161 -0.3907 -1.7240
  174SOPE   H5S19747   3.823   4.026  10.163  0.5945  0.7740  0.6135
  174SOPE   C2619748   3.734   3.942   9.992 -0.0094 -0.1270 -0.1511
  174SOPE   H6R19749   3.682   3.864  10.052 -0.8060 -0.3571 -1.1388
  174SOPE   H6S19750   3.659   3.974   9.916 -0.8258 -0.8980  0.3138
  174SOPE   C2719751   3.850   3.872   9.927  0.0065  0.9193  0.0026
  174SOPE   H7R19752   3.923   3.941   9.879  2.3509 -1.4244  0.1019
  174SOPE   H7S19753   3.905   3.827  10.013 -1.5455 -0.4808  0.2882
  174SOPE   C2819754   3.809   3.753   9.836  1.3210  0.2110 -0.2171
  174SOPE   H8R19755   3.899   3.692   9.818  0.6940 -1.1588  1.1882
  174SOPE   H8S19756   3.725   3.696   9.881  1.2923  0.5122  0.1149
  174SOPE   C2919757   3.746   3.809   9.712 -0.1732 -0.2475  0.2755
  174SOPE   H9119758   3.658   3.869   9.734 -0.5712 -0.9680  0.6700
  174SOPE  C21019759   3.791   3.800   9.585 -0.0994 -0.4625 -0.6716
  174SOPE  H10119760   3.730   3.845   9.505 -3.1609 -0.0085  1.8469
  174SOPE  C21119761   3.913   3.715   9.542  0.5012 -0.8706  0.7271
  174SOPE  H11R19762   3.870   3.618   9.510 -0.2337 -0.5702  0.8113
  174SOPE  H11S19763   3.989   3.705   9.623  0.8410  1.4691  0.7444
  174SOPE  C21219764   3.985   3.777   9.425  0.2877 -0.2258 -0.3915
  174SOPE  H12R19765   4.093   3.753   9.419  0.1125 -2.5007  3.7534
  174SOPE  H12S19766   3.994   3.885   9.446  0.3095 -0.3297  0.1386
  174SOPE  C21319767   3.912   3.755   9.290 -0.7365  0.2714 -0.2263
  174SOPE  H13R19768   3.967   3.834   9.234 -1.9437  0.9742 -0.4294
  174SOPE  H13S19769   3.804   3.780   9.297 -0.6122  0.9496 -0.6619
  174SOPE  C21419770   3.944   3.625   9.216  0.5261  0.1818  0.6227
  174SOPE  H14R19771   3.856   3.558   9.224 -0.7443  1.8665  1.2496
  174SOPE  H14S19772   4.027   3.567   9.261  0.3237 -0.4903  0.1265
  174SOPE  C21519773   3.969   3.660   9.062  0.1338 -0.5027  0.8500
  174SOPE  H15R19774   4.016   3.761   9.058 -1.2145  0.1741  1.6788
  174SOPE  H15S19775   3.864   3.668   9.028  0.0487  0.6546  1.3686
  174SOPE  C21619776   4.048   3.552   8.982 -0.5977  0.0386  0.2175
  174SOPE  H16R19777   4.050   3.455   9.037 -2.7933  0.1532  0.5497
  174SOPE  H16S19778   4.152   3.591   8.973 -0.7628  0.2018 -1.0914
  174SOPE  C21719779   3.985   3.508   8.852  0.0040  0.0369  0.6884
  174SOPE  H17R19780   3.885   3.461   8.868 -0.4839  0.5156 -0.8516
  174SOPE  H17S19781   4.050   3.427   8.812  1.1548  0.8134  0.9692
  174SOPE  C21819782   3.987   3.615   8.734  1.0172  0.1305  0.1606
  174SOPE  H18R19783   3.940   3.577   8.641  0.1270  2.4616 -0.3579
  174SOPE  H18S19784   4.091   3.644   8.707  0.4450  0.0530 -2.2261
  174SOPE  H18T19785   3.941   3.709   8.770  0.6508  1.3272 -3.2141
  174SOPE   C3319786   4.365   4.056  10.070  0.5163 -0.6675 -0.6892
  174SOPE   H3X19787   4.434   4.015  10.147  0.1288  0.5292  0.3231
  174SOPE   H3Y19788   4.373   4.166  10.057  0.2466 -0.6835 -0.9961
  174SOPE   C3419789   4.380   3.976   9.945 -0.0384 -0.7370 -0.1894
  174SOPE   H4X19790   4.358   3.867   9.953 -1.7286 -0.3537  0.4857
  174SOPE   H4Y19791   4.487   3.975   9.912  0.4077 -1.9233  1.2227
  174SOPE   C3519792   4.298   4.021   9.823  0.5495  0.5048  0.1857
  174SOPE   H5X19793   4.311   4.131   9.812  0.3575  0.3225 -2.0407
  174SOPE   H5Y19794   4.190   4.002   9.842  0.2817  0.4976 -1.2859
  174SOPE   C3619795   4.337   3.952   9.693 -0.6776  0.3912 -0.0480
  174SOPE   H6X19796   4.345   3.841   9.697  1.6080  0.5816  1.1512
  174SOPE   H6Y19797   4.433   4.001   9.667 -0.9881  0.1107 -1.8196
  174SOPE   C3719798   4.247   4.000   9.576  0.1928  0.4004 -0.1876
  174SOPE   H7X19799   4.217   4.106   9.588 -0.8215  0.0811  0.1188
  174SOPE   H7Y19800   4.149   3.951   9.592  1.0891 -1.0223  1.1250
  174SOPE   C3819801   4.309   3.974   9.437 -0.4331 -0.4327  0.2984
  174SOPE   H8X19802   4.282   3.871   9.405  0.0277 -0.5867  0.4061
  174SOPE   H8Y19803   4.418   3.975   9.460 -0.1133  2.6143 -1.2081
  174SOPE   C3919804   4.238   4.050   9.332 -0.2305  0.1193 -0.0922
  174SOPE   H9X19805   4.246   4.160   9.344  0.0992 -0.2094  3.2160
  174SOPE   H9Y19806   4.134   4.015   9.316 -0.2355 -1.8362  3.6858
  174SOPE  C31019807   4.289   4.021   9.189  0.1989 -0.6521  0.0772
  174SOPE  H10X19808   4.222   4.066   9.113  0.9412 -1.8150 -1.2864
  174SOPE  H10Y19809   4.284   3.910   9.191 -2.7163 -0.5885 -0.6427
  174SOPE  C31119810   4.431   4.071   9.156  0.1775 -0.1426 -0.4799
  174SOPE  H11X19811   4.509   4.022   9.218 -1.0674  0.2207  1.3892
  174SOPE  H11Y19812   4.441   4.181   9.160  2.5645 -0.3786  1.3593
  174SOPE  C31219813   4.458   4.023   9.017 -0.3573 -1.0758  0.5700
  174SOPE  H12X19814   4.394   4.084   8.948  1.0323 -0.0309  0.1798
  174SOPE  H12Y19815   4.427   3.917   9.022 -0.3794 -1.0835  0.2873
  174SOPE  C31319816   4.613   4.032   8.980  0.0174  0.8097  0.1787
  174SOPE  H13X19817   4.650   4.130   9.015 -1.3549  1.0617  0.9268
  174SOPE  H13Y19818   4.630   4.031   8.870 -0.5784 -1.7089  0.0615
  174SOPE  C31419819   4.696   3.923   9.045  0.0039  0.1954  0.5113
  174SOPE  H14X19820   4.648   3.827   9.017  0.3480  0.5651 -1.3780
  174SOPE  H14Y19821   4.694   3.932   9.156 -1.6310 -5.6692  1.1116
  174SOPE  C31519822   4.848   3.932   9.005  0.7135  0.1107  0.7152
  174SOPE  H15X19823   4.891   4.021   9.054 -2.0788  1.0390  1.6170
  174SOPE  H15Y19824   4.848   3.930   8.894 -0.4513  3.3168  0.5971
  174SOPE  C31619825   4.942   3.815   9.045 -0.4954  0.3196 -0.6942
  174SOPE  H16X19826   4.905   3.715   9.012 -3.1635  0.5939  1.3256
  174SOPE  H16Y19827   4.941   3.815   9.156 -0.3221 -0.3097 -0.6883
  174SOPE  C31719828   5.084   3.832   8.990 -0.4132 -0.1722  0.3347
  174SOPE  H17X19829   5.124   3.933   9.013  1.0623 -0.4982 -0.7507
  174SOPE  H17Y19830   5.065   3.824   8.881  1.3093  0.9575 -0.0670
  174SOPE  C31819831   5.179   3.711   9.023  0.7076  0.2957  0.5485
  174SOPE  H18X19832   5.200   3.710   9.132 -1.5142 -0.4282  0.9993
  174SOPE  H18Y19833   5.266   3.729   8.957 -0.8459 -0.2248 -1.7382
  174SOPE  H18Z19834   5.129   3.614   9.000 -0.0877  1.0523 -1.0732
  175SOPE     N19835   4.514   6.364  10.694  0.3841 -0.2764  0.6769
  175SOPE   HN119836   4.454   6.448  10.704 -1.8770 -1.6539 -0.7285
  175SOPE   HN219837   4.461   6.274  10.698 -0.2915 -0.0169 -1.7511
  175SOPE   HN319838   4.581   6.373  10.772  0.0783 -1.8205  1.1467
  175SOPE   C1219839   4.601   6.364  10.575  0.4598 -0.7909 -0.1669
  175SOPE  H12A19840   4.653   6.462  10.571 -0.2864 -0.3883 -0.0142
  175SOPE  H12B19841   4.531   6.364  10.489  1.4044 -0.2186 -0.9430
  175SOPE   C1119842   4.705   6.252  10.562  0.4370 -0.2898 -0.5334
  175SOPE  H11A19843   4.768   6.262  10.471 -0.7341 -0.7171 -1.4028
  175SOPE  H11B19844   4.660   6.150  10.565  0.4780 -0.2889  0.2256
  175SOPE     P19845   4.920   6.351  10.680  0.5628 -0.0638 -0.2740
  175SOPE   O1319846   4.994   6.313  10.800  0.6146 -0.1853 -0.6063
  175SOPE   O1419847   4.899   6.495  10.654  0.6449  0.5312  0.3093
  175SOPE   O1219848   4.784   6.272  10.677  0.5087  0.5055  0.0263
  175SOPE   O1119849   4.990   6.290  10.554  0.2662 -0.0130 -0.3574
  175SOPE    C119850   5.059   6.170  10.549  0.4217  0.1380 -0.1989
  175SOPE    HA19851   4.988   6.087  10.572  0.3464  0.7291  1.7845
  175SOPE    HB19852   5.134   6.162  10.631 -0.8858 -0.0329  1.0055
  175SOPE    C219853   5.118   6.135  10.412 -0.1930  0.4973 -0.0833
  175SOPE    HS19854   5.195   6.208  10.378  1.0118  0.0592  1.5922
  175SOPE   O2119855   5.022   6.136  10.303  0.0396  0.1531 -0.1780
  175SOPE   C2119856   4.923   6.060  10.294 -0.2286 -0.3916  0.0828
  175SOPE   O2219857   4.878   5.991  10.379  0.4571  0.2178 -0.5072
  175SOPE   C2219858   4.899   6.052  10.143 -0.4953  0.4057 -0.5901
  175SOPE   H2R19859   4.999   6.055  10.094  0.2687  0.5470  0.9386
  175SOPE   H2S19860   4.845   6.139  10.099 -1.3973 -0.1421 -0.5773
  175SOPE    C319861   5.198   6.003  10.421 -0.1809  0.4110  0.1936
  175SOPE    HX19862   5.130   5.939  10.481  1.1633  0.8995  2.3072
  175SOPE    HY19863   5.282   6.015  10.493  0.4055 -0.0415 -0.4055
  175SOPE   O3119864   5.238   5.938  10.302 -0.2190 -0.0758  0.0782
  175SOPE   C3119865   5.312   6.013  10.218 -0.2274 -0.4805 -0.4956
  175SOPE   O3219866   5.364   6.121  10.255 -0.2566  0.4141  0.4651
  175SOPE   C3219867   5.306   5.966  10.073  0.3857  0.5478  0.1407
  175SOPE   H2X19868   5.197   5.976  10.055  0.8570  0.4500 -3.2032
  175SOPE   H2Y19869   5.350   5.865  10.062 -1.5854 -0.1997 -1.2620
  175SOPE   C2319870   4.820   5.929  10.103  0.2023 -0.0520 -0.8262
  175SOPE   H3R19871   4.719   5.944  10.148  0.5279  0.4013 -0.2389
  175SOPE   H3S19872   4.860   5.838  10.153  3.1223  1.7460  0.2622
  175SOPE   C2419873   4.786   5.908   9.949  0.0687  0.2018 -0.4845
  175SOPE   H4R19874   4.720   5.818   9.949  1.3930 -0.8008 -1.6099
  175SOPE   H4S19875   4.736   5.997   9.905  0.4493 -0.0138 -1.3714
  175SOPE   C2519876   4.902   5.864   9.863 -0.3482  0.2693 -0.0545
  175SOPE   H5R19877   4.982   5.940   9.877 -0.1287 -0.5239  3.5662
  175SOPE   H5S19878   4.939   5.772   9.912  0.6447  0.9486  0.4959
  175SOPE   C2619879   4.879   5.832   9.709  0.4664  0.2247  0.2573
  175SOPE   H6R19880   4.980   5.820   9.663 -0.0292  2.2285 -1.4404
  175SOPE   H6S19881   4.830   5.733   9.699  2.4103 -0.7669  0.2882
  175SOPE   C2719882   4.801   5.944   9.633  0.3188 -0.5184 -0.0482
  175SOPE   H7R19883   4.700   5.934   9.680  0.0341  1.4339 -0.2202
  175SOPE   H7S19884   4.830   6.046   9.666 -3.7492 -0.4278  3.6957
  175SOPE   C2819885   4.787   5.924   9.481 -0.3100  0.1899  0.0538
  175SOPE   H8R19886   4.734   5.831   9.454  1.4629 -0.9550  0.4367
  175SOPE   H8S19887   4.716   5.999   9.440 -1.4134 -1.6075 -1.3790
  175SOPE   C2919888   4.925   5.928   9.413 -0.3344 -0.2455  0.3789
  175SOPE   H9119889   4.982   5.836   9.434  0.9881  0.4798  0.0578
  175SOPE  C21019890   4.992   6.036   9.363 -0.0477  0.1669  0.1442
  175SOPE  H10119891   5.089   6.013   9.315 -0.0114 -0.3971  0.4707
  175SOPE  C21119892   4.951   6.184   9.351 -0.4715  0.1214  0.2838
  175SOPE  H11R19893   5.039   6.243   9.319 -0.3685 -0.7821 -1.1398
  175SOPE  H11S19894   4.923   6.223   9.451  0.2849  0.5967  0.3091
  175SOPE  C21219895   4.832   6.210   9.251  0.7609  0.4645 -0.3470
  175SOPE  H12R19896   4.835   6.320   9.244  0.3992  0.3311 -2.7970
  175SOPE  H12S19897   4.731   6.185   9.291  0.7354 -0.7953 -1.1675
  175SOPE  C21319898   4.833   6.148   9.113 -0.8334 -0.1523  0.5059
  175SOPE  H13R19899   4.814   6.038   9.119  2.4560 -0.8464 -0.7941
  175SOPE  H13S19900   4.940   6.159   9.084 -1.4384  3.4551 -0.5161
  175SOPE  C21419901   4.736   6.210   9.012 -0.0838 -0.1865 -0.9604
  175SOPE  H14R19902   4.731   6.321   9.004  0.0993 -0.1016  0.0662
  175SOPE  H14S19903   4.636   6.179   9.047  0.1694  0.6510  0.5598
  175SOPE  C21519904   4.740   6.163   8.868 -0.4106 -0.2840  0.2908
  175SOPE  H15R19905   4.834   6.188   8.813 -0.6819  0.8203  0.3064
  175SOPE  H15S19906   4.668   6.229   8.815 -0.5540  1.0302  2.0945
  175SOPE  C21619907   4.704   6.021   8.839  0.0946 -0.6797 -0.3026
  175SOPE  H16R19908   4.614   6.002   8.901 -0.3975  2.6985  0.1157
  175SOPE  H16S19909   4.782   5.946   8.864  1.8094  0.9955 -0.5110
  175SOPE  C21719910   4.680   5.990   8.691  0.8134 -0.1419 -0.0795
  175SOPE  H17R19911   4.693   5.881   8.672 -1.9586 -0.3432 -1.0250
  175SOPE  H17S19912   4.756   6.035   8.624 -0.8958  0.7587 -1.4413
  175SOPE  C21819913   4.547   6.038   8.635 -0.3449  0.4026  0.6599
  175SOPE  H18R19914   4.541   6.148   8.649  1.7868  1.1329 -3.4553
  175SOPE  H18S19915   4.454   5.990   8.671 -1.4860  0.8046 -1.6566
  175SOPE  H18T19916   4.540   6.028   8.524 -3.4314  1.2949  0.7173
  175SOPE   C3319917   5.385   6.064   9.983 -0.4814 -0.9122  0.7169
  175SOPE   H3X19918   5.494   6.042   9.980 -0.1757  0.2173  2.9089
  175SOPE   H3Y19919   5.370   6.167  10.023 -0.2407  0.3054 -2.1568
  175SOPE   C3419920   5.334   6.070   9.837  0.3251  0.2461  0.0649
  175SOPE   H4X19921   5.388   6.155   9.790  0.4212  1.0434  1.5854
  175SOPE   H4Y19922   5.224   6.084   9.841  0.2700 -0.5467  1.8633
  175SOPE   C3519923   5.374   5.945   9.763 -0.2564  0.1674 -0.0808
  175SOPE   H5X19924   5.308   5.856   9.776 -0.7263  0.7382  1.4703
  175SOPE   H5Y19925   5.476   5.911   9.789  0.4398  1.1916 -1.4395
  175SOPE   C3619926   5.374   5.975   9.609  0.3312 -0.2330 -0.5726
  175SOPE   H6X19927   5.464   6.032   9.578  2.3850 -2.3425  1.3428
  175SOPE   H6Y19928   5.294   6.046   9.580  0.7016  0.5857  0.3842
  175SOPE   C3719929   5.372   5.851   9.507  0.3523  0.0911 -0.1475
  175SOPE   H7X19930   5.278   5.792   9.515  1.5274 -2.0565 -1.4278
  175SOPE   H7Y19931   5.451   5.776   9.529 -0.6544 -0.8640  0.3121
  175SOPE   C3819932   5.386   5.893   9.359 -0.0746 -0.0496  0.1022
  175SOPE   H8X19933   5.485   5.941   9.341 -0.1396  0.3193  0.7186
  175SOPE   H8Y19934   5.322   5.982   9.341 -0.7147 -1.0884 -3.2663
  175SOPE   C3919935   5.346   5.776   9.259  0.0068 -0.5544 -0.9204
  175SOPE   H9X19936   5.369   5.811   9.156 -0.1664  0.0475 -0.7618
  175SOPE   H9Y19937   5.236   5.761   9.263 -0.4301  2.4524 -0.1745
  175SOPE  C31019938   5.416   5.649   9.287  0.0990  1.0888  0.0470
  175SOPE  H10X19939   5.411   5.615   9.393  1.0994  2.0842  0.4225
  175SOPE  H10Y19940   5.524   5.669   9.268 -0.0729  0.6260 -1.5021
  175SOPE  C31119941   5.384   5.530   9.198 -0.2473 -0.1428 -0.2749
  175SOPE  H11X19942   5.278   5.498   9.204  0.3790 -2.3627 -0.4626
  175SOPE  H11Y19943   5.448   5.449   9.240  2.4334  1.2565 -1.5301
  175SOPE  C31219944   5.417   5.561   9.051 -0.7227  0.3541 -0.0695
  175SOPE  H12X19945   5.523   5.579   9.022 -0.4027 -0.2926  0.6871
  175SOPE  H12Y19946   5.352   5.645   9.019  0.6295  1.1696 -0.7266
  175SOPE  C31319947   5.381   5.434   8.967  0.0761  0.2719 -0.8100
  175SOPE  H13X19948   5.276   5.404   8.987 -0.2501  0.4757 -2.2240
  175SOPE  H13Y19949   5.446   5.345   8.983  0.8435  1.0895  0.7853
  175SOPE  C31419950   5.383   5.464   8.819 -0.2710 -0.6401  0.3125
  175SOPE  H14X19951   5.483   5.492   8.780 -1.4696  1.8263 -1.1698
  175SOPE  H14Y19952   5.306   5.542   8.798  0.5757 -0.4629 -2.3880
  175SOPE  C31519953   5.355   5.339   8.735 -0.3979 -0.1771 -0.3594
  175SOPE  H15X19954   5.261   5.299   8.778  0.3183 -0.9000  0.5786
  175SOPE  H15Y19955   5.435   5.263   8.748  0.6578  0.8788 -0.5036
  175SOPE  C31619956   5.340   5.359   8.590 -0.0407  0.2747 -0.0186
  175SOPE  H16X19957   5.413   5.439   8.566  0.4452 -0.3281 -0.5462
  175SOPE  H16Y19958   5.239   5.403   8.572  0.7264  2.0350 -0.0881
  175SOPE  C31719959   5.363   5.240   8.495 -0.2783  0.9457  0.0879
  175SOPE  H17X19960   5.282   5.170   8.524 -0.7038 -0.0160 -3.1428
  175SOPE  H17Y19961   5.460   5.196   8.526 -0.6804  1.5052  2.2397
  175SOPE  C31819962   5.363   5.272   8.349  0.1515 -0.5094 -0.2452
  175SOPE  H18X19963   5.436   5.352   8.325 -1.2916  0.4399 -1.5885
  175SOPE  H18Y19964   5.260   5.294   8.314  0.3189 -0.8306 -0.9406
  175SOPE  H18Z19965   5.374   5.182   8.284 -0.7928 -2.1253  1.7404
  176SOPE     N19966   4.631   5.970  10.874  0.5223 -0.3232 -0.1585
  176SOPE   HN119967   4.585   6.063  10.875 -0.8942 -0.9870  2.5770
  176SOPE   HN219968   4.566   5.890  10.893 -0.6004  0.1073 -2.0696
  176SOPE   HN319969   4.692   5.963  10.959 -0.4206 -0.6650  0.5023
  176SOPE   C1219970   4.724   5.950  10.759 -0.6617  0.1507 -0.2966
  176SOPE  H12A19971   4.792   6.037  10.765  0.4717 -0.7678  0.2365
  176SOPE  H12B19972   4.666   5.966  10.665  1.5142  0.7680 -1.5552
  176SOPE   C1119973   4.797   5.815  10.771 -0.4045 -0.4544 -0.5286
  176SOPE  H11A19974   4.863   5.815  10.682  1.8589  1.3670  1.1024
  176SOPE  H11B19975   4.710   5.746  10.760 -1.9832  0.8963  2.7588
  176SOPE     P19976   4.938   5.676  10.934  0.2488  0.3284 -0.1590
  176SOPE   O1319977   4.835   5.580  10.963  0.7625  0.5016 -0.5482
  176SOPE   O1419978   5.036   5.697  11.044 -0.1205  0.0094  0.4953
  176SOPE   O1219979   4.871   5.810  10.893  0.4274  0.4623  0.2052
  176SOPE   O1119980   5.017   5.642  10.804  0.0333  0.0323 -0.0436
  176SOPE    C119981   5.049   5.508  10.779 -0.9719 -0.1563  0.4843
  176SOPE    HA19982   5.038   5.437  10.863  3.8017  0.0704  1.4887
  176SOPE    HB19983   5.157   5.504  10.750 -0.9518 -0.7587  0.6319
  176SOPE    C219984   4.974   5.437  10.659 -0.3077  0.7265  0.0321
  176SOPE    HS19985   5.009   5.332  10.657 -1.3983  0.3946 -2.1836
  176SOPE   O2119986   4.999   5.509  10.534 -0.1162 -0.3334  0.0788
  176SOPE   C2119987   5.119   5.495  10.478  1.0473  0.8622 -0.8403
  176SOPE   O2219988   5.203   5.409  10.511  0.1754  0.2531 -0.0724
  176SOPE   C2219989   5.146   5.597  10.373 -0.0920 -0.2102  0.3928
  176SOPE   H2R19990   5.217   5.680  10.397 -0.6938  0.2325  0.6761
  176SOPE   H2S19991   5.050   5.648  10.352 -0.0933 -0.6970 -0.8100
  176SOPE    C319992   4.819   5.437  10.664  0.6502  0.2743  0.9981
  176SOPE    HX19993   4.791   5.544  10.651  3.3902  0.9772  0.4542
  176SOPE    HY19994   4.776   5.396  10.757 -0.2597  0.7154  0.7782
  176SOPE   O3119995   4.765   5.356  10.554 -0.1972  0.5796  0.0671
  176SOPE   C3119996   4.740   5.236  10.587  0.6094  0.4749 -0.1308
  176SOPE   O3219997   4.769   5.185  10.693  0.0614 -0.0250 -0.2539
  176SOPE   C3219998   4.679   5.158  10.466  0.6483  0.1219  0.3269
  176SOPE   H2X19999   4.753   5.170  10.384  0.4813  2.9945  0.5398
  176SOPE   H2Y20000   4.586   5.216  10.450  1.6447  1.7708  0.4461
  176SOPE   C2320001   5.201   5.532  10.240  0.6448 -0.7441 -0.1331
  176SOPE   H3R20002   5.153   5.432  10.227 -0.8910  0.0078 -0.2864
  176SOPE   H3S20003   5.312   5.534  10.237  0.6299 -0.0727 -0.1541
  176SOPE   C2420004   5.168   5.615  10.113 -0.3216 -0.0458 -0.7086
  176SOPE   H4R20005   5.057   5.619  10.104 -0.3187  0.6483 -0.5139
  176SOPE   H4S20006   5.219   5.714  10.121  0.1275 -0.1288 -2.4263
  176SOPE   C2520007   5.226   5.537   9.990  0.0289  0.1969 -0.5933
  176SOPE   H5R20008   5.334   5.523  10.011  0.2217 -1.0892 -2.3417
  176SOPE   H5S20009   5.179   5.437   9.984 -0.2630  0.0890  2.4012
  176SOPE   C2620010   5.203   5.593   9.855  0.3579  0.0445 -0.1880
  176SOPE   H6R20011   5.100   5.633   9.857  0.1700 -0.4973  1.9874
  176SOPE   H6S20012   5.274   5.676   9.834  2.5848 -1.3791  1.4844
  176SOPE   C2720013   5.213   5.506   9.726 -0.3843 -0.0378 -0.8947
  176SOPE   H7R20014   5.322   5.499   9.705 -0.3513 -1.2388 -0.3343
  176SOPE   H7S20015   5.177   5.401   9.734  1.9396 -0.7274  1.0222
  176SOPE   C2820016   5.146   5.571   9.602  0.0720 -0.0810  0.6365
  176SOPE   H8R20017   5.142   5.675   9.641 -4.5015  0.4357 -0.8677
  176SOPE   H8S20018   5.217   5.552   9.520 -0.1864  2.0367 -0.1210
  176SOPE   C2920019   5.006   5.522   9.590 -0.0643  0.2915  0.5997
  176SOPE   H9120020   4.944   5.527   9.681  0.5470 -1.0742  1.1100
  176SOPE  C21020021   4.943   5.475   9.475  0.2199 -0.4593 -0.3241
  176SOPE  H10120022   4.836   5.448   9.476  0.0182  0.3574  0.6604
  176SOPE  C21120023   5.016   5.453   9.344  0.6757 -0.0291  0.1039
  176SOPE  H11R20024   5.123   5.482   9.349  0.5840  0.2053  0.9147
  176SOPE  H11S20025   4.968   5.524   9.273 -1.0675  2.0071  3.1890
  176SOPE  C21220026   5.003   5.309   9.297  0.0419  1.0058 -0.8251
  176SOPE  H12R20027   4.900   5.291   9.258 -0.0754  3.7123 -1.8370
  176SOPE  H12S20028   5.019   5.244   9.385 -0.8512  0.7138 -0.8711
  176SOPE  C21320029   5.099   5.271   9.190  0.0820 -0.3158  0.2699
  176SOPE  H13R20030   5.190   5.263   9.253 -0.1316  1.7795  0.8949
  176SOPE  H13S20031   5.112   5.358   9.122 -2.2415 -0.9028 -0.9941
  176SOPE  C21420032   5.074   5.142   9.120 -0.3631  0.3719  0.2184
  176SOPE  H14R20033   4.988   5.153   9.050  0.6277 -1.1117 -1.2615
  176SOPE  H14S20034   5.035   5.067   9.192 -0.3593  0.0420 -0.1189
  176SOPE  C21520035   5.198   5.089   9.047 -0.5843  0.1285 -0.2615
  176SOPE  H15R20036   5.278   5.066   9.120 -1.7636 -2.9430  0.1399
  176SOPE  H15S20037   5.243   5.167   8.982  0.1289  1.2326  1.5476
  176SOPE  C21620038   5.192   4.953   8.973  0.2946  0.8752 -0.0933
  176SOPE  H16R20039   5.127   4.965   8.883  0.7297  3.8947 -0.0558
  176SOPE  H16S20040   5.136   4.891   9.046  1.3034  0.8770  0.6933
  176SOPE  C21720041   5.332   4.906   8.937 -0.6721 -0.0563  0.1358
  176SOPE  H17R20042   5.326   4.798   8.909 -0.7436  0.5077 -2.1202
  176SOPE  H17S20043   5.385   4.921   9.033 -0.7572  3.6057 -0.3353
  176SOPE  C21820044   5.397   4.989   8.826  0.2338 -0.1877  0.3445
  176SOPE  H18R20045   5.353   4.992   8.724 -1.7233  0.8143  1.1963
  176SOPE  H18S20046   5.495   4.944   8.802  0.6572  0.4569  0.8364
  176SOPE  H18T20047   5.412   5.097   8.849 -0.1274 -0.1800  0.5497
  176SOPE   C3320048   4.645   5.015  10.515  0.0452  0.0289 -0.4019
  176SOPE   H3X20049   4.605   5.005  10.618  1.2177 -0.6630 -0.0081
  176SOPE   H3Y20050   4.743   4.963  10.519  0.4354  0.7886 -0.1032
  176SOPE   C3420051   4.561   4.931  10.414 -0.1661  0.3075 -0.4546
  176SOPE   H4X20052   4.454   4.952  10.434 -0.5051 -0.9027 -0.8876
  176SOPE   H4Y20053   4.571   4.823  10.439  0.1349  0.0765 -1.5396
  176SOPE   C3520054   4.593   4.947  10.266 -0.3638  0.4166 -0.5934
  176SOPE   H5X20055   4.699   4.923  10.246 -0.3338  1.7205 -2.1083
  176SOPE   H5Y20056   4.575   5.054  10.243 -0.6890  0.2253 -1.2581
  176SOPE   C3620057   4.508   4.870  10.172 -0.9780 -0.0693 -0.0945
  176SOPE   H6X20058   4.400   4.896  10.182 -1.0896 -0.5843  0.0732
  176SOPE   H6Y20059   4.512   4.761  10.195 -1.4371 -0.4757 -1.8356
  176SOPE   C3720060   4.541   4.879  10.018 -0.1183  0.0089 -0.1543
  176SOPE   H7X20061   4.647   4.846  10.010  0.5002  0.9931  3.3459
  176SOPE   H7Y20062   4.541   4.989  10.000 -0.3380  0.3224  1.6395
  176SOPE   C3820063   4.438   4.826   9.913 -0.1450 -0.2964 -0.2562
  176SOPE   H8X20064   4.363   4.908   9.914 -0.8161 -0.9080  1.1808
  176SOPE   H8Y20065   4.393   4.730   9.946  0.1236 -0.6126 -0.8084
  176SOPE   C3920066   4.506   4.804   9.772 -0.3420 -0.1684 -0.3907
  176SOPE   H9X20067   4.606   4.757   9.777 -0.2287 -0.1382 -1.9898
  176SOPE   H9Y20068   4.530   4.906   9.736 -1.1567  0.6541  1.3220
  176SOPE  C31020069   4.417   4.726   9.676 -0.3177  0.1430  0.6049
  176SOPE  H10X20070   4.312   4.734   9.708 -0.9015 -0.5478 -1.0715
  176SOPE  H10Y20071   4.431   4.616   9.676 -2.1506 -0.1338 -2.0286
  176SOPE  C31120072   4.418   4.771   9.531 -0.2312 -0.6031 -0.0363
  176SOPE  H11X20073   4.527   4.781   9.508 -0.0826  0.0087  0.9222
  176SOPE  H11Y20074   4.379   4.874   9.522  0.3702 -0.3210  0.5285
  176SOPE  C31220075   4.344   4.673   9.438 -0.3493  0.4395  0.0941
  176SOPE  H12X20076   4.236   4.690   9.456 -0.5348 -0.2585 -0.3203
  176SOPE  H12Y20077   4.377   4.570   9.461 -1.0838 -0.0799 -1.1297
  176SOPE  C31320078   4.373   4.691   9.289  0.2670 -0.1172 -0.0949
  176SOPE  H13X20079   4.350   4.799   9.277 -4.1232 -0.9963 -0.5216
  176SOPE  H13Y20080   4.303   4.625   9.234 -0.0546 -0.6066  0.9068
  176SOPE  C31420081   4.517   4.657   9.245  0.5951 -0.8439 -0.0597
  176SOPE  H14X20082   4.543   4.551   9.260 -0.6893 -1.2648 -0.6692
  176SOPE  H14Y20083   4.590   4.705   9.313 -1.1435 -1.9844  2.6607
  176SOPE  C31520084   4.553   4.703   9.096 -0.6799 -0.3464  0.0096
  176SOPE  H15X20085   4.525   4.811   9.093  0.8268  0.0776  0.7628
  176SOPE  H15Y20086   4.485   4.645   9.030 -0.4621 -0.0121 -0.5125
  176SOPE  C31620087   4.695   4.685   9.052  0.0210 -0.6484 -0.4429
  176SOPE  H16X20088   4.701   4.704   8.943 -2.3414  0.2257 -0.4534
  176SOPE  H16Y20089   4.730   4.581   9.066 -2.8382 -1.5699  0.1257
  176SOPE  C31720090   4.803   4.778   9.116 -0.4959  0.6000 -0.1452
  176SOPE  H17X20091   4.900   4.734   9.084 -0.6608  1.0528 -1.3213
  176SOPE  H17Y20092   4.793   4.777   9.226 -0.8280  0.0089 -0.1792
  176SOPE  C31820093   4.800   4.918   9.064 -0.4608  0.1412  0.0130
  176SOPE  H18X20094   4.866   4.995   9.109 -0.5175  0.7258 -0.8835
  176SOPE  H18Y20095   4.703   4.971   9.074 -0.4853 -0.1164  1.1958
  176SOPE  H18Z20096   4.827   4.921   8.956  0.8343  1.3791  0.3537
  177SOPE     N20097   5.078   2.921  10.876  0.5207 -0.4360 -0.1146
  177SOPE   HN120098   5.163   2.871  10.910  0.4767  1.1315  2.4562
  177SOPE   HN220099   5.100   3.021  10.892  0.4024 -0.7409  2.2788
  177SOPE   HN320100   5.001   2.908  10.945 -0.4206  1.2107 -0.8437
  177SOPE   C1220101   5.039   2.891  10.734  0.2634 -1.2177  0.3858
  177SOPE  H12A20102   5.066   2.785  10.711 -0.5555 -1.6650  1.4396
  177SOPE  H12B20103   5.100   2.964  10.676  1.5510 -1.4494  1.4180
  177SOPE   C1120104   4.888   2.905  10.716  0.0306 -0.3882 -0.1279
  177SOPE  H11A20105   4.865   2.887  10.609 -1.7188  0.2738  0.1145
  177SOPE  H11B20106   4.856   3.009  10.740 -0.1581 -0.2807 -0.8289
  177SOPE     P20107   4.742   2.840  10.925 -0.4199 -0.3456  0.2765
  177SOPE   O1320108   4.854   2.889  11.015 -0.4785 -0.0497 -0.1274
  177SOPE   O1420109   4.668   2.717  10.970  0.0356 -0.3280 -0.4463
  177SOPE   O1220110   4.814   2.810  10.788  0.1780 -0.2972  0.1182
  177SOPE   O1120111   4.641   2.952  10.894 -0.5539  0.4165  0.5214
  177SOPE    C120112   4.507   2.931  10.847  0.4936  0.0735  1.0158
  177SOPE    HA20113   4.439   3.015  10.872 -0.0712  0.0607 -0.4107
  177SOPE    HB20114   4.457   2.838  10.882  0.2278  0.0152  0.4976
  177SOPE    C220115   4.493   2.921  10.690  0.5669 -0.6204  0.2863
  177SOPE    HS20116   4.551   2.838  10.645  1.0860  0.3888 -0.9541
  177SOPE   O2120117   4.544   3.050  10.641  0.3741 -0.1572 -0.2805
  177SOPE   C2120118   4.598   3.031  10.521 -0.5708  0.6993  0.2860
  177SOPE   O2220119   4.612   2.928  10.461  0.6344 -0.6446  0.1546
  177SOPE   C2220120   4.651   3.157  10.476 -0.5807 -0.4027  0.5732
  177SOPE   H2R20121   4.727   3.180  10.555 -0.3932  1.3202 -0.0914
  177SOPE   H2S20122   4.574   3.237  10.476  0.0441  0.2142  1.7723
  177SOPE    C320123   4.346   2.887  10.645  0.0612  0.2465  0.5423
  177SOPE    HX20124   4.276   2.966  10.681 -0.3423 -0.6718  1.8222
  177SOPE    HY20125   4.307   2.796  10.696 -0.0412  0.8305  1.5142
  177SOPE   O3120126   4.335   2.856  10.507  0.0948 -0.2837 -0.3192
  177SOPE   C3120127   4.297   2.955  10.427  1.1850 -0.6481  0.1588
  177SOPE   O3220128   4.283   3.071  10.464 -0.6360 -0.2040  0.5061
  177SOPE   C3220129   4.272   2.898  10.289  0.0215  0.3764  0.4297
  177SOPE   H2X20130   4.172   2.851  10.292 -0.3413  0.9405 -1.7421
  177SOPE   H2Y20131   4.355   2.825  10.282  0.4757  1.0732 -1.8088
  177SOPE   C2320132   4.734   3.162  10.343  0.6717 -1.4144  0.3970
  177SOPE   H3R20133   4.809   3.081  10.325  2.4450 -0.1791  1.9890
  177SOPE   H3S20134   4.800   3.247  10.369 -0.2556 -0.2371 -1.0229
  177SOPE   C2420135   4.649   3.188  10.216  0.3699  0.0091 -0.2639
  177SOPE   H4R20136   4.604   3.091  10.187  1.7306  0.4719 -4.3161
  177SOPE   H4S20137   4.561   3.255  10.229  1.4042  0.9289  2.1993
  177SOPE   C2520138   4.740   3.251  10.105  0.0131  0.2140 -0.5771
  177SOPE   H5R20139   4.785   3.345  10.144 -1.5369  0.0464  1.6930
  177SOPE   H5S20140   4.826   3.181  10.114 -1.4573 -1.4492  0.7248
  177SOPE   C2620141   4.678   3.273   9.965 -0.4260 -0.8915 -0.0550
  177SOPE   H6R20142   4.616   3.182   9.953 -0.5405 -1.1364  2.1701
  177SOPE   H6S20143   4.607   3.359   9.973  0.7526 -0.0395  1.7319
  177SOPE   C2720144   4.775   3.288   9.851  0.0591  0.1908  0.1723
  177SOPE   H7R20145   4.821   3.187   9.844 -0.2611 -0.0674  1.5360
  177SOPE   H7S20146   4.716   3.293   9.757  0.7541 -2.1617 -0.4107
  177SOPE   C2820147   4.871   3.410   9.866  1.2822  0.7802 -0.3736
  177SOPE   H8R20148   4.812   3.502   9.885 -0.1776 -0.5300  1.6669
  177SOPE   H8S20149   4.927   3.400   9.961 -0.1141  0.2929  0.4039
  177SOPE   C2920150   4.952   3.427   9.735  0.5256 -0.1703  0.1855
  177SOPE   H9120151   4.895   3.398   9.646  0.1739  1.1496 -0.0407
  177SOPE  C21020152   5.073   3.484   9.725  0.1488 -0.0898 -0.2966
  177SOPE  H10120153   5.118   3.497   9.626 -0.1726 -0.1455 -0.4519
  177SOPE  C21120154   5.150   3.537   9.843  0.3816 -0.0429  0.2967
  177SOPE  H11R20155   5.228   3.463   9.870 -0.5206 -0.9787  0.3308
  177SOPE  H11S20156   5.088   3.563   9.931  0.8765 -2.6656  1.4662
  177SOPE  C21220157   5.216   3.674   9.809  0.0976  0.2898  0.1215
  177SOPE  H12R20158   5.143   3.748   9.770 -0.8590 -0.3654  0.6423
  177SOPE  H12S20159   5.297   3.657   9.736 -0.2476 -0.2719 -0.1341
  177SOPE  C21320160   5.276   3.724   9.940  0.3869 -0.0103  0.2191
  177SOPE  H13R20161   5.325   3.636   9.987  0.1674 -0.6702 -0.7824
  177SOPE  H13S20162   5.190   3.759  10.001 -0.4597  0.7876 -1.3868
  177SOPE  C21420163   5.371   3.837   9.925 -0.2559  0.7804  0.2712
  177SOPE  H14R20164   5.324   3.918   9.865  0.4551  0.3492 -0.8808
  177SOPE  H14S20165   5.465   3.797   9.880 -0.1896 -0.3994  1.4372
  177SOPE  C21520166   5.405   3.887  10.064  0.2856  0.4196 -1.0837
  177SOPE  H15R20167   5.466   3.808  10.113 -0.3071  2.0363  2.4645
  177SOPE  H15S20168   5.311   3.901  10.122  1.3024  0.6316  0.5564
  177SOPE  C21620169   5.477   4.026  10.065  0.9335 -0.1589  0.2328
  177SOPE  H16R20170   5.430   4.102   9.998  2.8018  1.0535  0.2743
  177SOPE  H16S20171   5.584   4.028  10.036  0.0647  1.2029 -3.2011
  177SOPE  C21720172   5.469   4.095  10.204  0.1376 -0.3201  0.5979
  177SOPE  H17R20173   5.376   4.060  10.255 -1.8698  1.7955 -1.4973
  177SOPE  H17S20174   5.470   4.206  10.201 -0.0244 -0.2691  2.0650
  177SOPE  C21820175   5.585   4.053  10.285  0.6148 -0.0190 -0.1265
  177SOPE  H18R20176   5.667   4.127  10.277  1.5531 -1.2563 -2.5099
  177SOPE  H18S20177   5.620   3.959  10.238 -0.9668 -1.0538  0.7116
  177SOPE  H18T20178   5.556   4.035  10.390 -3.1565  0.0965 -1.0706
  177SOPE   C3320179   4.279   3.005  10.180 -0.8646 -0.0133  0.5744
  177SOPE   H3X20180   4.366   3.073  10.189 -1.3884  1.5100 -4.3222
  177SOPE   H3Y20181   4.197   3.080  10.189  0.6756  1.5822  1.8126
  177SOPE   C3420182   4.292   2.943  10.046  0.0871  0.2036 -0.0280
  177SOPE   H4X20183   4.201   2.886  10.017  0.4967 -1.2898  1.5390
  177SOPE   H4Y20184   4.376   2.871  10.047 -1.0578 -1.1897 -1.2321
  177SOPE   C3520185   4.336   3.039   9.942 -0.2579 -0.4738  0.4290
  177SOPE   H5X20186   4.407   3.116   9.980  0.0713 -0.8030  0.4783
  177SOPE   H5Y20187   4.241   3.091   9.918 -0.1071 -0.5880 -0.4448
  177SOPE   C3620188   4.380   2.964   9.820 -0.2579  0.3547  0.5380
  177SOPE   H6X20189   4.303   2.892   9.786  0.3681  0.3194 -0.8146
  177SOPE   H6Y20190   4.473   2.907   9.842  0.6440  0.9639 -1.5728
  177SOPE   C3720191   4.395   3.052   9.699 -0.5023  0.8177 -0.3672
  177SOPE   H7X20192   4.486   3.111   9.723 -1.0234  1.7628 -0.6908
  177SOPE   H7Y20193   4.302   3.113   9.707 -0.1558  1.7137 -2.6815
  177SOPE   C3820194   4.410   2.977   9.571 -0.8207  0.7130  0.1461
  177SOPE   H8X20195   4.322   2.916   9.544  1.1435 -2.3149  0.3503
  177SOPE   H8Y20196   4.505   2.920   9.562 -0.9541  0.5437 -0.1872
  177SOPE   C3920197   4.420   3.086   9.461 -0.2829 -0.2978 -0.1241
  177SOPE   H9X20198   4.498   3.159   9.490  0.6298 -0.7891 -1.3471
  177SOPE   H9Y20199   4.329   3.147   9.480  0.2775  0.2268  0.8946
  177SOPE  C31020200   4.423   3.037   9.315 -0.2375  0.1907  0.1048
  177SOPE  H10X20201   4.503   2.961   9.306 -0.3801  0.2072 -1.4063
  177SOPE  H10Y20202   4.447   3.131   9.261  1.2201  0.7259  1.6688
  177SOPE  C31120203   4.285   2.990   9.271  0.2430 -0.4152  0.7997
  177SOPE  H11X20204   4.206   3.065   9.293 -0.5545 -1.0421  0.1088
  177SOPE  H11Y20205   4.254   2.904   9.335 -0.1672  1.1800  2.8104
  177SOPE  C31220206   4.288   2.943   9.119 -0.3502  0.3169  0.5709
  177SOPE  H12X20207   4.187   2.898   9.110 -0.6646  1.2572 -0.9068
  177SOPE  H12Y20208   4.373   2.875   9.100  0.4699  2.0970 -2.5495
  177SOPE  C31320209   4.302   3.060   9.019  0.3257  0.7385  1.0939
  177SOPE  H13X20210   4.393   3.117   9.047  1.2774  0.6389 -1.5754
  177SOPE  H13Y20211   4.213   3.126   9.029  0.8504  1.3564  1.6455
  177SOPE  C31420212   4.316   3.006   8.871 -0.7344  0.6564  0.5803
  177SOPE  H14X20213   4.396   2.929   8.864 -1.1782  0.3903 -2.3823
  177SOPE  H14Y20214   4.350   3.081   8.796 -0.4982  1.7288  1.7359
  177SOPE  C31520215   4.178   2.947   8.823 -0.2494 -0.2515  0.0812
  177SOPE  H15X20216   4.099   3.024   8.836 -1.3015 -1.0153 -1.5934
  177SOPE  H15Y20217   4.144   2.855   8.877  0.7876 -0.4028  0.4795
  177SOPE  C31620218   4.166   2.904   8.672 -0.1618 -0.3180  0.3944
  177SOPE  H16X20219   4.228   2.814   8.653 -1.7619 -1.0021 -1.7307
  177SOPE  H16Y20220   4.222   2.984   8.618 -0.1416  2.1282  3.8278
  177SOPE  C31720221   4.026   2.893   8.616  0.3555 -0.1391 -0.5011
  177SOPE  H17X20222   3.975   2.991   8.621 -0.3273 -0.5836  1.9102
  177SOPE  H17Y20223   3.952   2.826   8.663 -1.8800  2.1395 -0.6857
  177SOPE  C31820224   4.031   2.846   8.463  0.4050  0.6739 -0.6640
  177SOPE  H18X20225   4.052   2.935   8.401  0.2713  0.8650 -0.4388
  177SOPE  H18Y20226   3.926   2.830   8.430  0.8042 -2.2615 -0.6648
  177SOPE  H18Z20227   4.091   2.753   8.457  1.7006  1.4984 -0.6932
  178SOPE     N20228   1.960   1.834  10.559 -0.5874  0.4741  0.2220
  178SOPE   HN120229   2.022   1.796  10.633 -1.8608  0.3684  1.2605
  178SOPE   HN220230   1.951   1.936  10.575  1.3658  0.5443  1.0840
  178SOPE   HN320231   1.863   1.797  10.558 -0.4597  0.1424  0.0572
  178SOPE   C1220232   2.015   1.807  10.416  0.4779 -0.7524  0.1156
  178SOPE  H12A20233   2.114   1.853  10.397  0.1009  0.3418  0.7256
  178SOPE  H12B20234   1.941   1.848  10.343  0.4092 -0.9224  0.0900
  178SOPE   C1120235   2.017   1.657  10.384  0.1753 -0.5802 -0.4696
  178SOPE  H11A20236   2.031   1.647  10.274  0.3492 -1.4341 -0.3755
  178SOPE  H11B20237   1.918   1.610  10.402 -1.5356  2.9044 -0.3652
  178SOPE     P20238   2.070   1.509  10.589  0.3453  0.3648  0.0109
  178SOPE   O1320239   2.017   1.600  10.693 -0.0108  0.0415  0.1683
  178SOPE   O1420240   2.191   1.433  10.630  0.2618  0.4753  0.3422
  178SOPE   O1220241   2.110   1.589  10.466  0.3119 -0.3757 -0.2636
  178SOPE   O1120242   1.955   1.422  10.525 -0.0265 -0.5606  1.0792
  178SOPE    C120243   1.972   1.288  10.477  0.4732 -0.2075 -0.0064
  178SOPE    HA20244   1.891   1.216  10.503  0.0925  0.6715  1.3108
  178SOPE    HB20245   2.058   1.244  10.532  1.6073  1.3435 -0.5395
  178SOPE    C220246   1.987   1.280  10.319  0.0737 -0.0153 -0.1968
  178SOPE    HS20247   2.011   1.173  10.301  0.7762  0.2568 -0.9292
  178SOPE   O2120248   2.100   1.354  10.272 -0.5141  0.0925 -0.2171
  178SOPE   C2120249   2.211   1.310  10.312 -0.0455 -0.4372  0.2658
  178SOPE   O2220250   2.237   1.219  10.387 -0.3138 -0.0187  0.2495
  178SOPE   C2220251   2.312   1.415  10.270  0.4324 -0.5705 -0.4175
  178SOPE   H2R20252   2.326   1.487  10.353  0.8858 -1.1457  0.0019
  178SOPE   H2S20253   2.261   1.477  10.192 -0.1722 -0.0529  0.3824
  178SOPE    C320254   1.857   1.323  10.248  0.1666 -0.1333  0.9047
  178SOPE    HX20255   1.855   1.434  10.262 -2.5922  0.0283 -0.4884
  178SOPE    HY20256   1.759   1.287  10.287 -0.2322  0.4525  0.4520
  178SOPE   O3120257   1.870   1.289  10.108  1.0012  0.1618  0.8076
  178SOPE   C3120258   1.895   1.400  10.021  0.1139  0.3930  0.0183
  178SOPE   O3220259   1.898   1.518  10.049  0.1845 -0.3105 -0.1313
  178SOPE   C3220260   1.931   1.340   9.885  0.6323  0.3437  0.4603
  178SOPE   H2X20261   1.879   1.243   9.871  2.6153 -0.7694  0.5188
  178SOPE   H2Y20262   2.038   1.313   9.900  0.9990  1.3082 -0.3488
  178SOPE   C2320263   2.437   1.354  10.219 -0.3833  0.1343  0.0241
  178SOPE   H3R20264   2.465   1.257  10.264  0.2079 -0.4970 -1.6630
  178SOPE   H3S20265   2.521   1.421  10.247 -0.3594 -0.1919  0.7475
  178SOPE   C2420266   2.446   1.317  10.067 -0.2455 -0.2284  0.1355
  178SOPE   H4R20267   2.421   1.410  10.011 -0.9180 -0.1594  0.5378
  178SOPE   H4S20268   2.548   1.280  10.043 -1.9555 -2.9689 -3.3426
  178SOPE   C2520269   2.349   1.212  10.021  0.3440  0.0846  0.0685
  178SOPE   H5R20270   2.354   1.125  10.090 -0.2126 -2.2891 -2.8067
  178SOPE   H5S20271   2.247   1.253  10.010  0.0588 -0.5491  0.3124
  178SOPE   C2620272   2.394   1.158   9.888  0.1283  0.2842  1.1997
  178SOPE   H6R20273   2.495   1.113   9.894 -0.4074 -1.0223  0.5439
  178SOPE   H6S20274   2.323   1.078   9.858  0.4896  0.4648 -0.1477
  178SOPE   C2720275   2.393   1.264   9.776  0.5510  0.7898  0.7365
  178SOPE   H7R20276   2.292   1.307   9.791 -0.1421 -0.9850  1.2903
  178SOPE   H7S20277   2.469   1.341   9.803 -0.1366  1.7921 -0.1705
  178SOPE   C2820278   2.407   1.191   9.632 -0.0014  0.0950  0.0823
  178SOPE   H8R20279   2.496   1.125   9.641  0.5505  0.9092  0.5597
  178SOPE   H8S20280   2.318   1.126   9.617 -1.0909  1.3987  0.8573
  178SOPE   C2920281   2.435   1.278   9.513 -0.0118 -0.0284 -0.3410
  178SOPE   H9120282   2.513   1.349   9.543  1.6156 -1.2088 -1.6752
  178SOPE  C21020283   2.387   1.272   9.388 -0.5366 -0.1706  0.6564
  178SOPE  H10120284   2.416   1.342   9.308  1.1375 -1.3425  0.2103
  178SOPE  C21120285   2.280   1.167   9.347 -0.2832  0.4707 -0.0049
  178SOPE  H11R20286   2.180   1.201   9.381 -0.5467 -0.3949  0.0975
  178SOPE  H11S20287   2.312   1.070   9.389  1.8967  0.1768 -2.1863
  178SOPE  C21220288   2.284   1.143   9.192 -0.2038 -0.1271 -0.9176
  178SOPE  H12R20289   2.254   1.037   9.180  0.8707 -0.4113 -1.1682
  178SOPE  H12S20290   2.389   1.148   9.156 -0.2129 -2.2825 -1.3286
  178SOPE  C21320291   2.195   1.237   9.115 -0.0443 -0.2369 -0.7216
  178SOPE  H13R20292   2.235   1.338   9.139  0.4887 -0.2214 -1.6333
  178SOPE  H13S20293   2.090   1.233   9.151  0.4856  0.2574  0.9182
  178SOPE  C21420294   2.218   1.216   8.965  0.1905  0.6762  0.5204
  178SOPE  H14R20295   2.148   1.144   8.918  1.3615  0.6242 -1.1852
  178SOPE  H14S20296   2.323   1.182   8.951 -0.6352 -1.7152  0.0087
  178SOPE  C21520297   2.201   1.349   8.885 -1.0700 -0.0035 -0.2693
  178SOPE  H15R20298   2.267   1.333   8.797 -0.7930  0.0787 -0.0767
  178SOPE  H15S20299   2.239   1.438   8.940  0.2660 -0.1425 -0.9440
  178SOPE  C21620300   2.066   1.374   8.832  0.5844  0.4770  0.2593
  178SOPE  H16R20301   1.988   1.387   8.910 -0.3258  0.9292 -0.6983
  178SOPE  H16S20302   2.049   1.279   8.778  3.4149  0.5612 -0.8803
  178SOPE  C21720303   2.046   1.494   8.734 -0.2506 -0.1439  0.3008
  178SOPE  H17R20304   1.949   1.498   8.679 -0.2912  2.7596  0.4789
  178SOPE  H17S20305   2.117   1.486   8.649  0.3796 -0.6007  0.8712
  178SOPE  C21820306   2.076   1.628   8.799  0.3255 -0.5104  0.3182
  178SOPE  H18R20307   1.999   1.640   8.879  0.0661 -0.0502 -0.0007
  178SOPE  H18S20308   2.063   1.707   8.721  2.1266  0.9489  1.4540
  178SOPE  H18T20309   2.175   1.638   8.847  0.7293 -1.2046 -0.3727
  178SOPE   C3320310   1.917   1.444   9.773  0.1065  0.4930 -0.6674
  178SOPE   H3X20311   1.969   1.539   9.795  1.3946 -1.0493  3.5383
  178SOPE   H3Y20312   1.809   1.471   9.764 -0.1891 -0.7415 -0.9701
  178SOPE   C3420313   1.970   1.399   9.643  0.0530 -0.6768 -0.1429
  178SOPE   H4X20314   1.942   1.292   9.642 -0.8843 -0.4238 -1.1472
  178SOPE   H4Y20315   2.080   1.405   9.634  0.0914 -0.5574  0.3456
  178SOPE   C3520316   1.904   1.474   9.527  0.3196 -0.5075  1.0446
  178SOPE   H5X20317   1.912   1.584   9.541 -0.9588 -0.5513  2.1464
  178SOPE   H5Y20318   1.798   1.443   9.514  0.0354  0.7535  0.2803
  178SOPE   C3620319   1.986   1.456   9.403 -0.5328 -0.1005  0.1366
  178SOPE   H6X20320   1.996   1.352   9.365  1.7242  0.5753 -1.1691
  178SOPE   H6Y20321   2.089   1.479   9.437  0.3511 -2.3962 -0.8965
  178SOPE   C3720322   1.942   1.545   9.280  0.0135  0.5830  0.0102
  178SOPE   H7X20323   2.024   1.533   9.206 -0.9659  2.3962 -1.4102
  178SOPE   H7Y20324   1.925   1.651   9.308  1.1214  0.4547  1.2200
  178SOPE   C3820325   1.816   1.482   9.209  0.3404 -0.2202  0.0749
  178SOPE   H8X20326   1.732   1.467   9.280  0.7130  0.3490  0.6527
  178SOPE   H8Y20327   1.841   1.386   9.160 -0.3443  0.5552 -1.8369
  178SOPE   C3920328   1.770   1.582   9.108  0.4454  0.8786  0.8085
  178SOPE   H9X20329   1.854   1.620   9.046  0.9113  0.9992  1.5061
  178SOPE   H9Y20330   1.722   1.675   9.146  3.3687  1.9705  1.9256
  178SOPE  C31020331   1.688   1.502   9.005  0.2254  0.2447  0.0057
  178SOPE  H10X20332   1.610   1.436   9.050  1.6705 -2.0839 -0.7975
  178SOPE  H10Y20333   1.755   1.426   8.959 -0.4629  0.3366 -1.1348
  178SOPE  C31120334   1.625   1.583   8.892  0.1931  1.0796  0.0647
  178SOPE  H11X20335   1.688   1.666   8.852  0.9494  0.7377  0.5220
  178SOPE  H11Y20336   1.527   1.628   8.916 -0.1486  0.0676  0.6078
  178SOPE  C31220337   1.581   1.493   8.768 -0.2274 -0.0310  0.4712
  178SOPE  H12X20338   1.534   1.401   8.809 -2.6648  0.5371 -0.9228
  178SOPE  H12Y20339   1.674   1.453   8.723 -1.3923 -1.6425 -0.5180
  178SOPE  C31320340   1.495   1.562   8.659 -0.9867 -0.5490  0.5550
  178SOPE  H13X20341   1.544   1.652   8.616 -0.0036 -1.2962  0.1023
  178SOPE  H13Y20342   1.398   1.608   8.691  0.2983  1.9331  0.9839
  178SOPE  C31420343   1.472   1.465   8.534 -0.3581  0.0056 -0.3784
  178SOPE  H14X20344   1.568   1.450   8.480 -0.1252  4.0537 -1.2898
  178SOPE  H14Y20345   1.406   1.534   8.476 -0.1847  0.5678  0.0817
  178SOPE  C31520346   1.412   1.331   8.572 -0.3770  0.4814 -0.2498
  178SOPE  H15X20347   1.328   1.332   8.644 -0.4323 -0.9285 -0.2738
  178SOPE  H15Y20348   1.489   1.263   8.614 -0.9098  1.1136  1.8046
  178SOPE  C31620349   1.341   1.263   8.450  0.1269  0.0533 -0.2481
  178SOPE  H16X20350   1.313   1.159   8.477 -2.3200  1.0043  1.0604
  178SOPE  H16Y20351   1.411   1.257   8.364 -1.5083  1.6798 -1.7550
  178SOPE  C31720352   1.212   1.333   8.406 -0.1077  0.0706  0.3825
  178SOPE  H17X20353   1.241   1.440   8.394  0.5413 -0.2214 -0.6723
  178SOPE  H17Y20354   1.136   1.317   8.486  0.5300 -1.7970  0.6289
  178SOPE  C31820355   1.155   1.278   8.272  0.5776 -0.1303 -0.1505
  178SOPE  H18X20356   1.114   1.176   8.285  0.8496 -0.3250 -0.8181
  178SOPE  H18Y20357   1.235   1.285   8.195 -0.6695  0.1487 -1.4415
  178SOPE  H18Z20358   1.079   1.348   8.231 -0.4197 -1.8913 -1.3672
  179SOPE     N20359   0.998   2.849   6.281  0.6005 -0.8791 -0.0393
  179SOPE   HN120360   0.966   2.823   6.186  0.4941 -0.5539 -0.0943
  179SOPE   HN220361   1.019   2.951   6.288  1.0220 -0.8846 -1.1866
  179SOPE   HN320362   1.083   2.798   6.311  0.0926 -1.5448  0.2673
  179SOPE   C1220363   0.879   2.815   6.368  0.5051  0.7671  0.2021
  179SOPE  H12A20364   0.858   2.710   6.338 -2.3912  1.3602 -0.0087
  179SOPE  H12B20365   0.793   2.879   6.340 -0.6375  0.0545  1.9708
  179SOPE   C1120366   0.910   2.832   6.524  0.4148  0.2404 -0.4046
  179SOPE  H11A20367   0.971   2.751   6.569  0.7792  0.6418 -0.1727
  179SOPE  H11B20368   0.813   2.823   6.577 -0.5617  2.3496 -1.7650
  179SOPE     P20369   0.879   3.080   6.596  0.2619  0.0241  0.5784
  179SOPE   O1320370   0.744   3.065   6.538  0.0619  0.0174  0.0215
  179SOPE   O1420371   0.950   3.208   6.577  0.1136  0.0013  0.4772
  179SOPE   O1220372   0.969   2.957   6.556  0.1707  0.5799  0.6736
  179SOPE   O1120373   0.872   3.064   6.754 -0.1382 -0.2682  0.5630
  179SOPE    C120374   0.989   3.024   6.828  0.0677  0.4690  0.1962
  179SOPE    HA20375   1.084   3.074   6.798 -0.1090  1.9932  2.0801
  179SOPE    HB20376   1.001   2.914   6.829 -1.4752  0.2406 -1.9672
  179SOPE    C220377   0.973   3.067   6.984 -0.2415 -0.0508  0.0745
  179SOPE    HS20378   1.072   3.036   7.024 -2.3726 -4.2039  2.4849
  179SOPE   O2120379   0.865   2.996   7.051  0.5460 -0.3118  0.1214
  179SOPE   C2120380   0.905   2.881   7.100  0.3404  0.0020  0.3126
  179SOPE   O2220381   1.014   2.829   7.077  0.2918 -0.3375  0.0368
  179SOPE   C2220382   0.799   2.821   7.195  0.0967  0.7354 -0.1317
  179SOPE   H2R20383   0.759   2.731   7.143  0.6955 -0.4843  1.4685
  179SOPE   H2S20384   0.710   2.886   7.210 -0.5170 -0.1684  0.1894
  179SOPE    C320385   0.947   3.226   6.991 -0.0147  0.5760  0.1789
  179SOPE    HX20386   0.864   3.249   6.921  0.2406 -0.4027 -0.4659
  179SOPE    HY20387   1.036   3.288   6.969 -0.3444  0.9878 -0.0064
  179SOPE   O3120388   0.884   3.252   7.118  0.1052 -0.5480 -0.6325
  179SOPE   C3120389   0.973   3.251   7.215  0.3328  0.4158  0.5116
  179SOPE   O3220390   1.092   3.243   7.200  0.4611  0.4280 -0.2754
  179SOPE   C3220391   0.895   3.262   7.347  0.2083 -0.7917  0.1171
  179SOPE   H2X20392   0.796   3.310   7.329  0.2288 -0.3410  1.1592
  179SOPE   H2Y20393   0.965   3.318   7.413 -0.7370  0.0975  0.3875
  179SOPE   C2320394   0.866   2.758   7.314 -0.7581  0.4092 -0.0805
  179SOPE   H3R20395   0.933   2.832   7.364 -0.0333 -0.2195 -0.1057
  179SOPE   H3S20396   0.946   2.685   7.289 -1.0853 -0.0241  0.1411
  179SOPE   C2420397   0.766   2.705   7.415  0.1058  0.2897 -0.1622
  179SOPE   H4R20398   0.697   2.784   7.451 -1.4882 -0.1670 -2.1790
  179SOPE   H4S20399   0.708   2.627   7.362  2.1510  0.0476 -2.1336
  179SOPE   C2520400   0.840   2.634   7.528 -0.8377 -1.0274 -0.3674
  179SOPE   H5R20401   0.911   2.563   7.480 -1.4427 -2.2107  0.4593
  179SOPE   H5S20402   0.894   2.714   7.583 -2.1214 -0.7205  0.4635
  179SOPE   C2620403   0.742   2.543   7.607 -0.0957  0.1913 -0.2477
  179SOPE   H6R20404   0.665   2.600   7.663 -0.2746  0.1400 -0.4388
  179SOPE   H6S20405   0.691   2.481   7.530 -0.4088  0.0465  0.0769
  179SOPE   C2720406   0.810   2.448   7.701  0.0604  0.5821 -0.0542
  179SOPE   H7R20407   0.737   2.379   7.748  1.6488 -1.5534 -0.6557
  179SOPE   H7S20408   0.878   2.383   7.642  1.5115  2.6342 -0.7132
  179SOPE   C2820409   0.873   2.529   7.817 -0.3312 -0.2028 -0.6402
  179SOPE   H8R20410   0.958   2.593   7.781 -0.5628  1.1058  1.0784
  179SOPE   H8S20411   0.801   2.600   7.863  1.6489  0.9064  0.8432
  179SOPE   C2920412   0.942   2.443   7.928  0.2087 -0.4806  0.3347
  179SOPE   H9120413   1.010   2.366   7.890 -0.8484  0.0910 -2.9219
  179SOPE  C21020414   0.932   2.456   8.066  0.5811  0.3860  0.4151
  179SOPE  H10120415   0.985   2.377   8.121  1.3560 -0.3757 -1.3710
  179SOPE  C21120416   0.857   2.557   8.145 -0.3059  0.0726 -0.7778
  179SOPE  H11R20417   0.816   2.508   8.235  1.3833 -0.0138 -0.0273
  179SOPE  H11S20418   0.767   2.585   8.086  0.4148 -1.1271 -2.4823
  179SOPE  C21220419   0.938   2.687   8.169 -0.0371 -1.0070 -0.3670
  179SOPE  H12R20420   0.870   2.763   8.213 -0.2414 -1.9531  1.0126
  179SOPE  H12S20421   0.973   2.732   8.074  0.9673  1.6645  1.2095
  179SOPE  C21320422   1.051   2.674   8.265 -0.5009  0.1162 -0.1512
  179SOPE  H13R20423   1.085   2.772   8.306 -0.2195  0.8231 -2.0199
  179SOPE  H13S20424   1.140   2.624   8.222 -0.3395 -1.9816  2.5470
  179SOPE  C21420425   1.026   2.591   8.391  0.0298 -0.1241 -0.5300
  179SOPE  H14R20426   1.018   2.484   8.366  0.8398 -0.8217  2.0819
  179SOPE  H14S20427   0.930   2.618   8.439 -0.7834 -2.3682 -0.8508
  179SOPE  C21520428   1.135   2.613   8.498  0.5790 -0.6644  0.6986
  179SOPE  H15R20429   1.150   2.722   8.515 -0.1318  0.3469 -4.2612
  179SOPE  H15S20430   1.231   2.590   8.448 -0.1122  2.3298 -2.2393
  179SOPE  C21620431   1.100   2.534   8.624  0.2988 -0.2371  0.1797
  179SOPE  H16R20432   0.991   2.532   8.643  0.0502 -1.3288 -1.2997
  179SOPE  H16S20433   1.159   2.577   8.708  2.4871 -3.4208  0.3485
  179SOPE  C21720434   1.141   2.386   8.620  0.1750 -0.7358  0.3712
  179SOPE  H17R20435   1.245   2.392   8.582 -0.3244 -1.3992 -1.1390
  179SOPE  H17S20436   1.082   2.329   8.545  0.4853 -0.6250  0.0405
  179SOPE  C21820437   1.132   2.309   8.750 -0.4416 -0.1429  0.1529
  179SOPE  H18R20438   1.031   2.316   8.797  0.3526 -0.7744  2.0066
  179SOPE  H18S20439   1.206   2.347   8.824 -1.9803  2.6842  0.3377
  179SOPE  H18T20440   1.132   2.201   8.726 -2.1734  0.1673 -1.3922
  179SOPE   C3320441   0.873   3.122   7.407 -0.1096 -0.8276  0.3457
  179SOPE   H3X20442   0.966   3.061   7.407  0.2975 -0.2252  0.8728
  179SOPE   H3Y20443   0.802   3.069   7.340 -0.7227  2.4940 -1.7669
  179SOPE   C3420444   0.814   3.137   7.544  0.4689  0.6381  0.0373
  179SOPE   H4X20445   0.703   3.140   7.545  0.4590  0.7675  3.0173
  179SOPE   H4Y20446   0.840   3.230   7.601  3.0737 -0.0292  0.0105
  179SOPE   C3520447   0.842   3.028   7.640  0.2834 -0.8133  0.1426
  179SOPE   H5X20448   0.949   3.002   7.650  0.3869 -0.3604  0.2044
  179SOPE   H5Y20449   0.801   2.929   7.610 -1.3430 -0.1014 -0.0666
  179SOPE   C3620450   0.785   3.060   7.782 -0.3410 -0.3806  0.0908
  179SOPE   H6X20451   0.713   3.143   7.763  0.2952 -0.4475 -2.7682
  179SOPE   H6Y20452   0.871   3.090   7.846  0.8637 -1.1653 -1.1419
  179SOPE   C3720453   0.706   2.951   7.836  0.2383  0.2519  0.2349
  179SOPE   H7X20454   0.761   2.855   7.823  0.6209  0.6125 -0.9348
  179SOPE   H7Y20455   0.616   2.945   7.771 -0.9275 -1.3470  1.9535
  179SOPE   C3820456   0.660   2.969   7.976  0.2986  0.2935 -0.3409
  179SOPE   H8X20457   0.626   3.074   7.979  0.8053  0.5067 -1.7403
  179SOPE   H8Y20458   0.738   2.963   8.055 -0.0406  0.4405  0.0036
  179SOPE   C3920459   0.538   2.880   8.022  0.5771 -0.8412  0.0081
  179SOPE   H9X20460   0.557   2.771   8.014 -2.7315 -1.3845 -0.9657
  179SOPE   H9Y20461   0.460   2.908   7.948 -1.2658 -1.5018  1.6676
  179SOPE  C31020462   0.486   2.909   8.161  0.6672 -0.2368  0.2569
  179SOPE  H10X20463   0.454   3.015   8.172 -1.1349 -0.5288 -1.6852
  179SOPE  H10Y20464   0.564   2.893   8.239  1.3224  0.0184 -0.3450
  179SOPE  C31120465   0.362   2.820   8.196 -0.4570  0.2469 -0.1989
  179SOPE  H11X20466   0.385   2.711   8.203  3.0627  0.8683 -1.0326
  179SOPE  H11Y20467   0.280   2.841   8.124 -1.9408  2.0987  1.9773
  179SOPE  C31220468   0.322   2.856   8.344 -0.1941  0.2999 -0.2915
  179SOPE  H12X20469   0.299   2.964   8.342 -1.3417  0.0553 -1.5762
  179SOPE  H12Y20470   0.406   2.835   8.414  1.1421  1.1100 -1.6218
  179SOPE  C31320471   0.194   2.793   8.401 -1.0051  0.5405 -0.8220
  179SOPE  H13X20472   0.209   2.683   8.394  0.8453  0.7235  0.1162
  179SOPE  H13Y20473   0.104   2.829   8.346 -0.2322  1.7862 -1.2812
  179SOPE  C31420474   0.178   2.824   8.550 -0.2043 -0.0013 -0.4277
  179SOPE  H14X20475   0.155   2.931   8.571 -0.0277  0.1082 -0.7858
  179SOPE  H14Y20476   0.278   2.812   8.599 -0.5579  0.2741  0.3703
  179SOPE  C31520477   0.078   2.735   8.624 -0.1513  0.3928  0.2001
  179SOPE  H15X20478  -0.018   2.722   8.570 -0.1653 -1.4551  0.6088
  179SOPE  H15Y20479   0.066   2.776   8.727 -0.0359 -0.5649  0.6069
  179SOPE  C31620480   0.145   2.603   8.662 -0.1570 -0.1935  0.5853
  179SOPE  H16X20481   0.228   2.619   8.734  0.1095 -0.4881  0.3476
  179SOPE  H16Y20482   0.193   2.551   8.576 -3.0245 -3.0163  0.5989
  179SOPE  C31720483   0.053   2.491   8.710 -0.9675 -0.2486  0.0227
  179SOPE  H17X20484  -0.031   2.482   8.639 -0.7314 -1.6286 -0.0980
  179SOPE  H17Y20485   0.021   2.511   8.815  0.2162 -0.3126  0.4048
  179SOPE  C31820486   0.115   2.354   8.734  0.2306 -0.2001  0.4072
  179SOPE  H18X20487   0.177   2.352   8.826  1.8553 -0.7225 -0.6608
  179SOPE  H18Y20488   0.178   2.324   8.647  1.6786 -0.0756  1.4028
  179SOPE  H18Z20489   0.038   2.274   8.741  0.5994 -0.6717 -0.7336
  180SOPE     N20490   0.257   3.085   6.438  0.1817 -0.8804  0.1843
  180SOPE   HN120491   0.359   3.071   6.423  0.6714  2.0196  0.4735
  180SOPE   HN220492   0.246   3.114   6.537 -1.0902  0.7791 -0.4194
  180SOPE   HN320493   0.203   2.997   6.429 -1.3272  0.0720 -0.1398
  180SOPE   C1220494   0.219   3.202   6.347 -0.5522  0.4480 -1.0689
  180SOPE  H12A20495   0.262   3.185   6.246  0.4707 -1.8718 -0.2644
  180SOPE  H12B20496   0.274   3.287   6.391  0.4463 -0.8806  0.2866
  180SOPE   C1120497   0.065   3.230   6.346 -0.5329 -0.0103  0.1786
  180SOPE  H11A20498   0.061   3.327   6.293  3.3562  0.1910  0.0589
  180SOPE  H11B20499   0.038   3.241   6.453 -1.4976  0.5110 -0.1217
  180SOPE     P20500  -0.133   3.051   6.317  0.5711  0.1111 -0.0670
  180SOPE   O1320501  -0.110   2.905   6.329  0.3455  0.0970  0.4670
  180SOPE   O1420502  -0.238   3.091   6.213  0.3124  0.5518  0.4467
  180SOPE   O1220503   0.005   3.123   6.280  0.2065  0.1006 -0.2494
  180SOPE   O1120504  -0.165   3.119   6.454 -0.2444 -0.2688  0.8765
  180SOPE    C120505  -0.296   3.141   6.497  0.5206  0.3759 -0.5206
  180SOPE    HA20506  -0.364   3.059   6.468  1.8011 -0.0764 -2.3377
  180SOPE    HB20507  -0.343   3.233   6.454  3.1423  1.1704 -1.8143
  180SOPE    C220508  -0.291   3.148   6.652 -0.4056 -0.9363 -0.0637
  180SOPE    HS20509  -0.218   3.225   6.683 -1.1840 -0.6212  1.0356
  180SOPE   O2120510  -0.254   3.026   6.713  0.3985  0.1489 -0.4357
  180SOPE   C2120511  -0.150   3.013   6.797  0.2379 -0.9802  0.0341
  180SOPE   O2220512  -0.078   3.102   6.834  0.0183 -0.3899  0.9369
  180SOPE   C2220513  -0.148   2.873   6.850 -0.2836 -0.8184  0.8616
  180SOPE   H2R20514  -0.132   2.806   6.762  2.0451 -0.5788  1.0668
  180SOPE   H2S20515  -0.241   2.843   6.901 -1.6516  2.2153  0.2666
  180SOPE    C320516  -0.428   3.197   6.706  0.6658 -0.3591  0.1291
  180SOPE    HX20517  -0.518   3.133   6.692 -0.1807  0.7631  0.3758
  180SOPE    HY20518  -0.478   3.283   6.656 -2.6475 -1.2061  1.8105
  180SOPE   O3120519  -0.420   3.228   6.846 -0.9177 -0.1440 -0.2744
  180SOPE   C3120520  -0.538   3.244   6.912  0.5073 -0.3271  0.5167
  180SOPE   O3220521  -0.644   3.229   6.859 -0.0877 -0.1459 -0.5720
  180SOPE   C3220522  -0.510   3.272   7.056  0.4295 -0.3319  0.1855
  180SOPE   H2X20523  -0.607   3.303   7.100  1.3370  1.9503  0.6532
  180SOPE   H2Y20524  -0.443   3.361   7.050 -1.5082  1.1207 -0.4556
  180SOPE   C2320525  -0.023   2.848   6.935  0.9026  0.6059  0.7609
  180SOPE   H3R20526   0.057   2.868   6.860  0.7855  1.8900  0.9733
  180SOPE   H3S20527  -0.018   2.737   6.943 -4.6856  0.1509 -0.4455
  180SOPE   C2420528  -0.003   2.923   7.064 -0.8005 -0.0096 -0.3594
  180SOPE   H4R20529   0.103   2.948   7.083 -0.2045 -1.1913 -2.0332
  180SOPE   H4S20530  -0.050   3.024   7.063 -1.5068 -0.3057  1.2630
  180SOPE   C2520531  -0.071   2.855   7.186 -0.1575  0.6460  0.2087
  180SOPE   H5R20532  -0.182   2.851   7.192 -0.0792  0.1270  1.5086
  180SOPE   H5S20533  -0.038   2.750   7.196  0.7287  0.8728 -0.3023
  180SOPE   C2620534  -0.019   2.906   7.322 -0.1550 -0.1024 -0.3578
  180SOPE   H6R20535   0.092   2.902   7.315 -0.1598 -0.4512 -0.2590
  180SOPE   H6S20536  -0.042   3.013   7.344 -1.1249 -0.2521 -0.6154
  180SOPE   C2720537  -0.063   2.824   7.447 -0.0638 -0.7787  0.2813
  180SOPE   H7R20538  -0.035   2.719   7.426  1.4083 -0.2294 -0.6043
  180SOPE   H7S20539   0.000   2.861   7.530 -0.6510  0.0153  0.3805
  180SOPE   C2820540  -0.219   2.825   7.482 -0.4062  0.5252  0.4737
  180SOPE   H8R20541  -0.274   2.783   7.396  0.0605 -1.1238  0.9691
  180SOPE   H8S20542  -0.234   2.754   7.566 -0.4817  1.1402  0.9908
  180SOPE   C2920543  -0.276   2.967   7.524 -0.9416 -0.0957  0.0760
  180SOPE   H9120544  -0.326   3.018   7.440 -0.0863  2.7327  1.2439
  180SOPE  C21020545  -0.235   3.045   7.630  0.0915  0.6010  0.6995
  180SOPE  H10120546  -0.305   3.126   7.655 -1.2718  1.0562 -4.0633
  180SOPE  C21120547  -0.145   3.008   7.746 -0.3333  0.4819 -0.2101
  180SOPE  H11R20548  -0.056   3.074   7.753  1.2758 -1.6526  0.2774
  180SOPE  H11S20549  -0.111   2.905   7.723  0.0513  0.3096  1.1078
  180SOPE  C21220550  -0.236   3.004   7.867 -0.5519  0.0973  0.6960
  180SOPE  H12R20551  -0.303   2.917   7.856  0.1436 -0.4354  0.6165
  180SOPE  H12S20552  -0.306   3.090   7.867 -0.9367 -0.1583 -2.3901
  180SOPE  C21320553  -0.156   3.000   8.004  0.6181  0.4280 -0.2850
  180SOPE  H13R20554  -0.088   3.087   7.999  0.7547  0.5937  3.2530
  180SOPE  H13S20555  -0.081   2.918   7.998  2.0699  1.5175  2.1573
  180SOPE  C21420556  -0.252   2.977   8.125  0.5318  0.9607  0.4116
  180SOPE  H14R20557  -0.283   2.871   8.112  1.8506  0.6764 -0.6655
  180SOPE  H14S20558  -0.339   3.042   8.104  0.7333  0.7812 -1.0601
  180SOPE  C21520559  -0.189   2.993   8.259  0.2617 -0.2010 -0.1436
  180SOPE  H15R20560  -0.126   3.084   8.267 -1.7844  1.1310  1.5301
  180SOPE  H15S20561  -0.124   2.903   8.259  1.8667  0.9442 -0.9907
  180SOPE  C21620562  -0.292   2.982   8.372 -0.3634  0.4087  0.4026
  180SOPE  H16R20563  -0.341   2.883   8.363  1.0508 -0.1069 -2.0389
  180SOPE  H16S20564  -0.371   3.060   8.371 -0.2240  0.5624  1.0575
  180SOPE  C21720565  -0.236   2.971   8.511  0.0027 -0.0809 -0.4820
  180SOPE  H17R20566  -0.174   3.062   8.523 -0.5507  0.4151 -1.3225
  180SOPE  H17S20567  -0.173   2.879   8.514 -0.3802 -0.3034  3.8443
  180SOPE  C21820568  -0.334   2.963   8.633 -0.0575 -0.0159 -0.1947
  180SOPE  H18R20569  -0.277   2.940   8.725 -1.0297  1.3731  0.7750
  180SOPE  H18S20570  -0.428   2.907   8.614 -1.4084  1.5458  1.6950
  180SOPE  H18T20571  -0.370   3.065   8.656  0.9082  0.0203  1.2555
  180SOPE   C3320572  -0.437   3.160   7.133  1.4125  0.4681 -1.0706
  180SOPE   H3X20573  -0.428   3.192   7.239  2.2526  0.1948 -1.0527
  180SOPE   H3Y20574  -0.336   3.129   7.099  0.4575 -1.5930 -2.1751
  180SOPE   C3420575  -0.530   3.035   7.143  0.3966 -0.3928  0.2638
  180SOPE   H4X20576  -0.590   3.019   7.051  2.0627  1.0112 -1.1067
  180SOPE   H4Y20577  -0.596   3.046   7.232  0.9347 -1.1557  0.7671
  180SOPE   C3520578  -0.442   2.913   7.148 -0.5616  0.3860 -0.4297
  180SOPE   H5X20579  -0.389   2.917   7.245  0.3937 -1.5420 -0.8565
  180SOPE   H5Y20580  -0.376   2.929   7.060  1.3047 -0.0085  0.8612
  180SOPE   C3620581  -0.505   2.777   7.136  0.6184 -0.4519 -0.3719
  180SOPE   H6X20582  -0.424   2.709   7.103  2.0673  1.2671 -0.4367
  180SOPE   H6Y20583  -0.592   2.774   7.067  0.0068  0.4982  0.3324
  180SOPE   C3720584  -0.559   2.728   7.274  0.1756  0.1383  1.0678
  180SOPE   H7X20585  -0.614   2.813   7.320  0.7325  0.2609  1.5126
  180SOPE   H7Y20586  -0.486   2.698   7.352  0.8898 -0.6626  0.1089
  180SOPE   C3820587  -0.658   2.610   7.254  0.4278  0.5313 -0.0785
  180SOPE   H8X20588  -0.630   2.535   7.177  1.2596  0.8897 -0.1284
  180SOPE   H8Y20589  -0.751   2.645   7.206  0.8842 -1.9636 -2.9370
  180SOPE   C3920590  -0.683   2.536   7.387  0.4674 -0.1859  0.2734
  180SOPE   H9X20591  -0.716   2.603   7.468 -4.1319 -3.9862  1.8006
  180SOPE   H9Y20592  -0.601   2.464   7.410 -0.3786 -1.5710 -0.9469
  180SOPE  C31020593  -0.804   2.442   7.377 -0.4400  0.3704 -0.1059
  180SOPE  H10X20594  -0.797   2.407   7.272  0.5363  0.0937  0.0448
  180SOPE  H10Y20595  -0.902   2.495   7.387 -0.9303 -0.6060  0.3438
  180SOPE  C31120596  -0.804   2.330   7.482 -0.4323  0.2484 -0.2741
  180SOPE  H11X20597  -0.703   2.283   7.474 -1.3042 -1.9695  1.2605
  180SOPE  H11Y20598  -0.876   2.258   7.440 -1.6862  0.0658  2.1075
  180SOPE  C31220599  -0.848   2.377   7.619 -0.4278 -0.2298 -0.4788
  180SOPE  H12X20600  -0.958   2.395   7.614 -0.6832 -1.9665 -1.5947
  180SOPE  H12Y20601  -0.791   2.463   7.659  3.2216 -2.7299 -0.1375
  180SOPE  C31320602  -0.821   2.267   7.728  0.4449 -0.7356  0.0792
  180SOPE  H13X20603  -0.717   2.270   7.765  0.6343  0.8627 -0.5324
  180SOPE  H13Y20604  -0.845   2.171   7.679 -1.3652 -0.6793  0.7867
  180SOPE  C31420605  -0.918   2.271   7.849  0.6195 -0.7641  0.2269
  180SOPE  H14X20606  -0.930   2.179   7.911 -0.1053 -0.9232 -0.1426
  180SOPE  H14Y20607  -1.021   2.285   7.811  0.2939 -1.8274  0.7103
  180SOPE  C31520608  -0.899   2.400   7.927  0.2816 -0.4669 -0.3758
  180SOPE  H15X20609  -0.922   2.484   7.858 -0.6040 -0.2645  0.1562
  180SOPE  H15Y20610  -0.800   2.410   7.975 -0.1958  1.2208  0.3018
  180SOPE  C31620611  -0.992   2.418   8.053  0.0428 -0.2878 -0.4783
  180SOPE  H16X20612  -1.099   2.418   8.021  0.0698  1.8662 -0.6677
  180SOPE  H16Y20613  -0.973   2.519   8.095  2.8289 -0.7304 -0.5893
  180SOPE  C31720614  -0.975   2.315   8.168 -0.0586  0.4077  0.6230
  180SOPE  H17X20615  -0.870   2.281   8.180  0.9966  2.7855 -1.2732
  180SOPE  H17Y20616  -1.022   2.223   8.127 -0.0339  0.9209 -0.5983
  180SOPE  C31820617  -1.044   2.359   8.298 -0.2463  0.0979 -0.1074
  180SOPE  H18X20618  -1.154   2.367   8.288 -0.2688 -0.2019 -0.0969
  180SOPE  H18Y20619  -1.001   2.455   8.337 -1.4465  2.1000 -3.5375
  180SOPE  H18Z20620  -1.012   2.286   8.376 -0.1317  0.1738 -0.0812
  181SOPE     N20621   6.493   5.813   5.950  0.0826 -0.2838  0.4893
  181SOPE   HN120622   6.397   5.850   5.959  0.3740 -0.1166  3.1048
  181SOPE   HN220623   6.517   5.804   5.849  0.5818 -1.2040  0.6771
  181SOPE   HN320624   6.479   5.717   5.986  1.1343 -0.9706 -0.8670
  181SOPE   C1220625   6.595   5.896   6.015  0.4251  0.0568  0.1949
  181SOPE  H12A20626   6.690   5.857   5.971 -0.0595 -1.2284  0.2671
  181SOPE  H12B20627   6.592   5.881   6.125 -1.8214 -0.4202  0.0896
  181SOPE   C1120628   6.582   6.044   5.972 -0.3144 -0.2861  0.2736
  181SOPE  H11A20629   6.489   6.081   6.018 -0.3413 -1.1373  0.9297
  181SOPE  H11B20630   6.584   6.048   5.861 -1.3264  1.4904  0.3082
  181SOPE     P20631   6.742   6.249   5.997 -0.2982  0.2949  0.2642
  181SOPE   O1320632   6.675   6.301   5.874 -0.3834  0.3623 -0.1530
  181SOPE   O1420633   6.890   6.244   6.000 -0.3313 -0.0442 -0.1663
  181SOPE   O1220634   6.694   6.108   6.037  0.3979 -0.9233 -0.6290
  181SOPE   O1120635   6.692   6.339   6.120 -0.1169 -0.7007 -0.2400
  181SOPE    C120636   6.551   6.324   6.146 -0.3041 -0.2381 -0.7626
  181SOPE    HA20637   6.522   6.217   6.157 -0.7073 -0.3473 -2.5541
  181SOPE    HB20638   6.501   6.357   6.052  1.3542  2.8106 -0.6211
  181SOPE    C220639   6.512   6.403   6.273  0.0009  0.3044  0.5303
  181SOPE    HS20640   6.409   6.387   6.310  0.8175 -2.0253  1.9212
  181SOPE   O2120641   6.547   6.541   6.264  0.0054  0.6637 -0.2502
  181SOPE   C2120642   6.455   6.610   6.205 -0.5468 -0.2964 -0.7145
  181SOPE   O2220643   6.356   6.559   6.150 -0.8304 -0.1062  0.5083
  181SOPE   C2220644   6.491   6.753   6.213 -0.3550 -0.0357  0.0842
  181SOPE   H2R20645   6.519   6.793   6.113  1.3452 -1.6894 -0.1206
  181SOPE   H2S20646   6.585   6.756   6.272 -1.0612 -1.1744  1.2984
  181SOPE    C320647   6.593   6.343   6.395 -0.3693  0.7151 -0.2614
  181SOPE    HX20648   6.700   6.356   6.367 -0.2698  1.9553  0.6641
  181SOPE    HY20649   6.584   6.232   6.398  1.8198  0.5311  0.2194
  181SOPE   O3120650   6.555   6.413   6.514  0.0200  0.5241  0.2430
  181SOPE   C3120651   6.645   6.492   6.568  0.6032 -0.2557  0.0457
  181SOPE   O3220652   6.749   6.512   6.511  0.0555 -0.1537  0.9014
  181SOPE   C3220653   6.604   6.552   6.698  0.1160  0.6765  0.1248
  181SOPE   H2X20654   6.582   6.472   6.771 -0.6286  0.8724  0.1208
  181SOPE   H2Y20655   6.513   6.615   6.682 -0.7526 -0.0836  1.8996
  181SOPE   C2320656   6.381   6.836   6.284 -0.0991 -0.2006  0.3340
  181SOPE   H3R20657   6.280   6.809   6.245  0.8264 -1.7660 -1.0463
  181SOPE   H3S20658   6.402   6.942   6.257 -1.9507  0.3666  1.0169
  181SOPE   C2420659   6.382   6.831   6.438 -0.3561  0.2208  0.5280
  181SOPE   H4R20660   6.488   6.837   6.471 -0.4366 -0.4529  0.9090
  181SOPE   H4S20661   6.347   6.927   6.482 -2.4021 -0.8188  1.2217
  181SOPE   C2520662   6.310   6.713   6.493  0.3767 -0.4267  0.9196
  181SOPE   H5R20663   6.361   6.618   6.469  2.2557  0.5150  1.0884
  181SOPE   H5S20664   6.313   6.721   6.604  0.6218  0.3406  0.8678
  181SOPE   C2620665   6.162   6.695   6.436 -0.0281  0.1783  0.2522
  181SOPE   H6R20666   6.118   6.794   6.458  0.0406  0.1173  0.6719
  181SOPE   H6S20667   6.164   6.687   6.325 -2.4273 -1.2005  0.2712
  181SOPE   C2720668   6.080   6.583   6.505  0.3257  0.5114 -0.3686
  181SOPE   H7R20669   5.977   6.589   6.465  1.1893  1.4006 -2.5700
  181SOPE   H7S20670   6.115   6.483   6.472 -1.6224  0.0189 -1.0102
  181SOPE   C2820671   6.081   6.585   6.657  0.3487  0.4799  0.2120
  181SOPE   H8R20672   6.011   6.505   6.688  3.2837 -2.4970 -0.6396
  181SOPE   H8S20673   6.184   6.559   6.689  1.0891 -0.4955 -2.8062
  181SOPE   C2920674   6.044   6.720   6.722  0.3340 -0.3725 -0.1454
  181SOPE   H9120675   5.950   6.765   6.687  2.3063  4.0036 -0.1378
  181SOPE  C21020676   6.107   6.777   6.824 -0.4035  0.4051  0.4404
  181SOPE  H10120677   6.065   6.866   6.872 -0.4537  0.5299  0.1651
  181SOPE  C21120678   6.226   6.726   6.890 -0.7335  0.3368 -1.0064
  181SOPE  H11R20679   6.320   6.765   6.846  0.2791  0.4846  1.2246
  181SOPE  H11S20680   6.230   6.616   6.884  0.2903  0.4206 -2.0141
  181SOPE  C21220681   6.239   6.780   7.036 -0.3523  0.8004  0.0617
  181SOPE  H12R20682   6.220   6.889   7.043 -2.0587  0.6223 -1.5027
  181SOPE  H12S20683   6.340   6.772   7.081  0.2636 -0.1382 -1.4414
  181SOPE  C21320684   6.138   6.715   7.132  0.2868  0.1789  0.3511
  181SOPE  H13R20685   6.147   6.605   7.141  2.2432  0.3584  0.7513
  181SOPE  H13S20686   6.035   6.740   7.099  0.5789 -0.0935 -0.7780
  181SOPE  C21420687   6.160   6.782   7.270  0.0798  0.8547 -0.5419
  181SOPE  H14R20688   6.148   6.891   7.248 -2.1970  0.6583 -0.3495
  181SOPE  H14S20689   6.264   6.771   7.309  0.3977  1.9268 -1.0657
  181SOPE  C21520690   6.055   6.751   7.381  0.4910 -0.6011  0.3017
  181SOPE  H15R20691   6.053   6.642   7.401  3.3496 -0.4247  1.8434
  181SOPE  H15S20692   5.950   6.779   7.357  0.7594  2.3122  2.3368
  181SOPE  C21620693   6.078   6.852   7.495  0.2408  0.2119 -0.0022
  181SOPE  H16R20694   6.075   6.958   7.462  0.7872 -0.1072 -1.0929
  181SOPE  H16S20695   6.178   6.833   7.541 -0.4457  1.2638  2.0007
  181SOPE  C21720696   5.967   6.833   7.603  0.2249  0.3577  0.0459
  181SOPE  H17R20697   5.963   6.737   7.659 -0.8841 -0.3063 -1.1417
  181SOPE  H17S20698   5.865   6.843   7.559 -0.4034 -2.3667  0.8192
  181SOPE  C21820699   5.994   6.943   7.702  0.2854 -0.4095 -0.6117
  181SOPE  H18R20700   6.012   7.039   7.649  0.4152  1.2904  2.3540
  181SOPE  H18S20701   6.081   6.923   7.769 -0.7681 -0.4588  0.7804
  181SOPE  H18T20702   5.903   6.960   7.763  0.1569 -0.4201 -0.8019
  181SOPE   C3320703   6.717   6.626   6.757  0.0032 -0.3552 -0.1217
  181SOPE   H3X20704   6.740   6.718   6.698 -2.5636  0.6348  0.3493
  181SOPE   H3Y20705   6.812   6.569   6.756  1.2019  1.5770 -0.1752
  181SOPE   C3420706   6.694   6.673   6.903 -0.4553 -0.1565  1.1981
  181SOPE   H4X20707   6.585   6.694   6.912 -0.4600  0.0631  0.6410
  181SOPE   H4Y20708   6.757   6.764   6.908 -1.7066  0.8971 -0.9515
  181SOPE   C3520709   6.733   6.566   7.009  0.4936 -0.4519  0.0220
  181SOPE   H5X20710   6.844   6.561   7.015  0.4202  0.4641  2.9553
  181SOPE   H5Y20711   6.687   6.473   6.968  1.9413 -0.6954 -1.0924
  181SOPE   C3620712   6.679   6.586   7.149  0.4381  1.5023  0.6976
  181SOPE   H6X20713   6.691   6.496   7.213  1.1978  0.7929 -0.4068
  181SOPE   H6Y20714   6.569   6.595   7.145  0.3145  0.4868  1.6961
  181SOPE   C3720715   6.737   6.710   7.229  0.3557 -0.5295 -0.2495
  181SOPE   H7X20716   6.737   6.788   7.150  0.0136 -0.9181 -0.6381
  181SOPE   H7Y20717   6.838   6.691   7.271  0.3509 -2.6511 -1.0913
  181SOPE   C3820718   6.646   6.749   7.349  0.3278 -0.3449  0.0288
  181SOPE   H8X20719   6.624   6.662   7.415 -3.8171 -0.9958 -1.9962
  181SOPE   H8Y20720   6.552   6.784   7.301  0.6455  1.1241  0.4544
  181SOPE   C3920721   6.699   6.854   7.451  0.1530  0.0708  0.0253
  181SOPE   H9X20722   6.614   6.910   7.495  0.4398 -0.3913  1.1671
  181SOPE   H9Y20723   6.754   6.921   7.381 -0.2900 -3.0731 -3.5025
  181SOPE  C31020724   6.797   6.810   7.561  0.7130 -0.0823 -0.3299
  181SOPE  H10X20725   6.877   6.746   7.518 -0.6459 -1.5006 -0.7796
  181SOPE  H10Y20726   6.739   6.738   7.621 -0.6087 -0.0515 -1.5430
  181SOPE  C31120727   6.852   6.918   7.653 -0.3304 -0.3914 -0.2486
  181SOPE  H11X20728   6.933   6.971   7.599  0.7432 -2.1975 -0.4776
  181SOPE  H11Y20729   6.899   6.868   7.741 -2.1681 -1.0225  0.4153
  181SOPE  C31220730   6.754   7.023   7.699  0.1445 -0.2335  0.2159
  181SOPE  H12X20731   6.661   6.973   7.734 -0.3705  0.6397  0.1216
  181SOPE  H12Y20732   6.736   7.093   7.614 -1.7061 -0.9203  0.0257
  181SOPE  C31320733   6.797   7.108   7.819 -0.6044  0.2975  0.0248
  181SOPE  H13X20734   6.875   7.176   7.778 -1.6704  0.0754 -2.4562
  181SOPE  H13Y20735   6.843   7.036   7.890  0.1100 -1.2452 -1.9830
  181SOPE  C31420736   6.673   7.185   7.868 -0.3645  0.8723  0.0010
  181SOPE  H14X20737   6.596   7.118   7.911  1.5148 -0.5312  1.2523
  181SOPE  H14Y20738   6.629   7.256   7.794 -0.8872 -0.7559 -1.2613
  181SOPE  C31520739   6.707   7.262   8.000 -0.0582  0.3308 -0.3445
  181SOPE  H15X20740   6.770   7.350   7.972  1.8669 -1.2592 -1.1458
  181SOPE  H15Y20741   6.768   7.204   8.071 -1.2609  0.7007  1.0166
  181SOPE  C31620742   6.586   7.315   8.072  0.2331  0.4719 -0.0142
  181SOPE  H16X20743   6.512   7.235   8.093  1.0850 -1.4408 -3.9064
  181SOPE  H16Y20744   6.542   7.388   8.001 -2.5182 -0.8334  0.3133
  181SOPE  C31720745   6.626   7.391   8.200  0.1761 -0.0981  0.7508
  181SOPE  H17X20746   6.668   7.491   8.176 -0.6398  0.2260  0.6479
  181SOPE  H17Y20747   6.702   7.326   8.248  1.7612  0.5561 -0.8323
  181SOPE  C31820748   6.510   7.403   8.298 -0.9390  0.6384 -0.3105
  181SOPE  H18X20749   6.544   7.436   8.398 -0.1894 -2.5673  0.5658
  181SOPE  H18Y20750   6.474   7.300   8.320  0.7006  0.7359  3.1184
  181SOPE  H18Z20751   6.436   7.470   8.250 -0.8127  0.0769 -1.3101
  182SOPE     N20752   6.188   2.283   6.317 -0.3027  0.3523 -0.1875
  182SOPE   HN120753   6.097   2.316   6.278 -0.9640  0.2267  1.1956
  182SOPE   HN220754   6.248   2.260   6.236 -0.1507 -0.8062  0.2517
  182SOPE   HN320755   6.166   2.194   6.365  2.0671  0.6197  1.4614
  182SOPE   C1220756   6.258   2.374   6.411 -0.3108  0.4417 -0.8563
  182SOPE  H12A20757   6.189   2.390   6.497 -1.3399  0.3748 -1.6614
  182SOPE  H12B20758   6.279   2.472   6.363 -3.9762  1.9264  0.4231
  182SOPE   C1120759   6.388   2.314   6.463  0.1074 -0.5846 -0.5340
  182SOPE  H11A20760   6.367   2.223   6.523  3.0333  0.2923  1.9470
  182SOPE  H11B20761   6.423   2.396   6.529 -2.2318 -0.9934  1.2773
  182SOPE     P20762   6.612   2.348   6.332 -0.2688  0.1613 -0.0044
  182SOPE   O1320763   6.586   2.490   6.313 -0.2448  0.2249  0.0451
  182SOPE   O1420764   6.688   2.273   6.227 -0.2224 -0.3987  0.5629
  182SOPE   O1220765   6.472   2.277   6.352 -0.1582 -0.0426 -0.2660
  182SOPE   O1120766   6.672   2.330   6.476  0.3080 -0.2175  0.2162
  182SOPE    C120767   6.755   2.231   6.519 -0.1790  1.2467 -0.6430
  182SOPE    HA20768   6.860   2.267   6.522  0.7636 -1.4817  1.3448
  182SOPE    HB20769   6.750   2.142   6.452 -0.8269  1.5283 -0.9761
  182SOPE    C220770   6.730   2.172   6.661 -0.8239  0.0318 -0.0379
  182SOPE    HS20771   6.622   2.146   6.667 -1.2908  2.3811  3.0320
  182SOPE   O2120772   6.767   2.270   6.757  0.7081 -0.3329  0.0528
  182SOPE   C2120773   6.690   2.273   6.874  0.1537  0.0988 -1.2813
  182SOPE   O2220774   6.610   2.188   6.910  0.0882  0.0413 -0.7530
  182SOPE   C2220775   6.738   2.390   6.962  0.6185  0.5016  0.9097
  182SOPE   H2R20776   6.711   2.476   6.898 -0.5859 -0.0939  0.5861
  182SOPE   H2S20777   6.848   2.388   6.969  0.6331  0.3481  0.6091
  182SOPE    C320778   6.826   2.045   6.679  0.3110  0.1111 -0.7291
  182SOPE    HX20779   6.924   2.065   6.630  0.5724 -0.5888 -0.4916
  182SOPE    HY20780   6.785   1.966   6.613 -0.2840 -0.2955  0.1210
  182SOPE   O3120781   6.843   2.007   6.818 -0.0248 -0.4638 -0.3903
  182SOPE   C3120782   6.737   1.936   6.867  0.8455 -0.0601 -1.2938
  182SOPE   O3220783   6.643   1.895   6.803 -0.1605 -0.6214 -0.5266
  182SOPE   C3220784   6.754   1.916   7.020  1.4016  0.0631  0.0307
  182SOPE   H2X20785   6.798   2.001   7.076  1.7712 -1.0399  1.4630
  182SOPE   H2Y20786   6.811   1.822   7.041  0.8001 -0.7308 -1.7817
  182SOPE   C2320787   6.695   2.395   7.108 -0.6305  0.2733  0.1560
  182SOPE   H3R20788   6.747   2.481   7.155 -3.6571  1.7221  0.9610
  182SOPE   H3S20789   6.739   2.308   7.161  2.2973  1.8844  0.4734
  182SOPE   C2420790   6.544   2.418   7.148  0.0822 -0.1561  0.6097
  182SOPE   H4R20791   6.504   2.500   7.085 -2.3427 -0.7644  1.3067
  182SOPE   H4S20792   6.491   2.322   7.134  3.8803 -2.1539 -0.8623
  182SOPE   C2520793   6.542   2.472   7.294  0.4572 -0.8892  0.3465
  182SOPE   H5R20794   6.599   2.566   7.301  0.7768 -0.7516 -3.0892
  182SOPE   H5S20795   6.437   2.498   7.321  0.1677 -0.4217 -1.1692
  182SOPE   C2620796   6.569   2.365   7.403 -0.6367 -1.0436  0.0386
  182SOPE   H6R20797   6.487   2.290   7.393 -0.3534 -1.1244 -1.7740
  182SOPE   H6S20798   6.672   2.325   7.392 -0.5061 -0.8157  0.4006
  182SOPE   C2720799   6.565   2.420   7.546 -0.9100  0.0719  0.4909
  182SOPE   H7R20800   6.603   2.339   7.612  2.2524  0.2878 -0.9702
  182SOPE   H7S20801   6.630   2.509   7.558 -2.6353  1.4719 -0.3722
  182SOPE   C2820802   6.425   2.444   7.602  0.5234 -0.1493 -0.2064
  182SOPE   H8R20803   6.373   2.517   7.537 -1.7384  0.5654  2.3511
  182SOPE   H8S20804   6.370   2.349   7.587  0.1642 -0.1359  1.0166
  182SOPE   C2920805   6.442   2.491   7.745  0.3382  0.0624  0.1534
  182SOPE   H9120806   6.510   2.424   7.799 -0.9378 -1.3245  0.0519
  182SOPE  C21020807   6.399   2.606   7.800 -0.3221  0.4353 -0.3955
  182SOPE  H10120808   6.407   2.626   7.908  0.6666 -1.4661 -0.0798
  182SOPE  C21120809   6.321   2.714   7.733 -0.5388 -0.0534 -0.0888
  182SOPE  H11R20810   6.307   2.695   7.624  0.2574  0.3322 -0.2630
  182SOPE  H11S20811   6.380   2.808   7.724  1.3978 -0.9822  2.4705
  182SOPE  C21220812   6.185   2.749   7.775  0.0720 -0.4084  0.0478
  182SOPE  H12R20813   6.126   2.655   7.767  0.3770 -0.4449 -2.0589
  182SOPE  H12S20814   6.154   2.824   7.699 -0.8817 -0.3156  0.5222
  182SOPE  C21320815   6.174   2.802   7.914 -0.1061  0.2344 -0.4900
  182SOPE  H13R20816   6.212   2.906   7.922  1.2825 -0.3697  1.1486
  182SOPE  H13S20817   6.228   2.743   7.992 -0.8791 -1.4272 -1.1912
  182SOPE  C21420818   6.025   2.804   7.943  0.1175 -0.2064 -0.7688
  182SOPE  H14R20819   6.002   2.696   7.931  0.5454 -0.1299 -2.5008
  182SOPE  H14S20820   5.974   2.842   7.852  0.0397 -0.2148 -0.7280
  182SOPE  C21520821   5.976   2.870   8.072 -0.1962 -0.0511  0.1638
  182SOPE  H15R20822   5.866   2.874   8.080 -0.0993  2.0698  0.6515
  182SOPE  H15S20823   5.992   2.979   8.060 -0.6051  0.1448  1.3578
  182SOPE  C21620824   6.053   2.812   8.191 -0.3465 -0.1511  0.4141
  182SOPE  H16R20825   6.025   2.859   8.288 -2.3005 -0.8149  0.1960
  182SOPE  H16S20826   6.163   2.826   8.186 -0.0354 -2.8185 -0.7484
  182SOPE  C21720827   6.018   2.670   8.229 -0.1316 -0.3887 -0.3293
  182SOPE  H17R20828   6.050   2.601   8.148  0.3352  0.0405 -0.5171
  182SOPE  H17S20829   5.908   2.657   8.227 -0.4194  1.3100  2.2189
  182SOPE  C21820830   6.077   2.624   8.365  0.1909  0.0110  0.2261
  182SOPE  H18R20831   6.041   2.685   8.450 -0.9283 -1.8747  1.1282
  182SOPE  H18S20832   6.187   2.630   8.375  0.1264  1.2730  0.2890
  182SOPE  H18T20833   6.043   2.521   8.391 -0.0251 -0.3370 -1.3335
  182SOPE   C3320834   6.616   1.902   7.077 -0.0427  0.3067 -0.7924
  182SOPE   H3X20835   6.553   1.836   7.013 -1.2264  0.3511  0.3053
  182SOPE   H3Y20836   6.564   2.001   7.072  0.1567  0.3282 -2.6905
  182SOPE   C3420837   6.620   1.852   7.224 -1.1824 -0.7683 -0.3313
  182SOPE   H4X20838   6.660   1.748   7.223  0.7979 -0.0488  1.0187
  182SOPE   H4Y20839   6.517   1.839   7.263 -2.3758  0.7355 -2.8546
  182SOPE   C3520840   6.684   1.956   7.319 -0.7728 -0.8889 -0.1706
  182SOPE   H5X20841   6.633   2.049   7.285 -2.0670 -1.5231  0.0180
  182SOPE   H5Y20842   6.791   1.961   7.289 -0.1843  1.8071  2.1359
  182SOPE   C3620843   6.673   1.928   7.469 -0.1967 -0.4271 -0.3170
  182SOPE   H6X20844   6.733   1.835   7.477 -0.1861 -0.5498 -1.6033
  182SOPE   H6Y20845   6.572   1.911   7.512 -0.4860  1.0425 -0.3846
  182SOPE   C3720846   6.742   2.035   7.558  0.4364 -0.6050  0.4017
  182SOPE   H7X20847   6.654   2.099   7.581 -0.1344 -0.6685 -1.5108
  182SOPE   H7Y20848   6.821   2.093   7.506  1.0722 -0.8521  1.0843
  182SOPE   C3820849   6.791   1.982   7.692  0.1443  0.4273  0.2184
  182SOPE   H8X20850   6.827   2.062   7.760 -0.7879  1.2023 -0.2017
  182SOPE   H8Y20851   6.880   1.920   7.666  1.2780  0.3785  3.7982
  182SOPE   C3920852   6.691   1.902   7.771  0.0535  0.1171 -0.3506
  182SOPE   H9X20853   6.642   1.823   7.710 -0.1185 -0.7844  0.9338
  182SOPE   H9Y20854   6.605   1.967   7.796 -0.7226 -0.1287 -2.3116
  182SOPE  C31020855   6.736   1.840   7.905 -0.2186  0.0938 -0.2851
  182SOPE  H10X20856   6.780   1.743   7.874 -1.7053 -0.4010 -0.9098
  182SOPE  H10Y20857   6.655   1.810   7.975  2.1243 -1.1421  1.9858
  182SOPE  C31120858   6.836   1.921   7.984 -0.0192 -0.0054 -0.6246
  182SOPE  H11X20859   6.788   2.017   8.011  0.8206  0.3683 -0.4355
  182SOPE  H11Y20860   6.930   1.943   7.929  1.0308  0.2657  1.2526
  182SOPE  C31220861   6.875   1.855   8.113 -0.0477 -0.2784 -0.4902
  182SOPE  H12X20862   6.967   1.899   8.156 -0.9405 -0.2240  1.3902
  182SOPE  H12Y20863   6.901   1.751   8.085 -0.5395  0.0789 -2.3639
  182SOPE  C31320864   6.764   1.851   8.220 -0.4033 -0.5500 -0.1187
  182SOPE  H13X20865   6.808   1.779   8.293  0.9370  0.0937 -0.2855
  182SOPE  H13Y20866   6.668   1.806   8.187 -0.5400 -0.0164 -0.4533
  182SOPE  C31420867   6.738   1.988   8.286 -0.1122 -0.9873 -0.1411
  182SOPE  H14X20868   6.691   2.059   8.214 -3.1440 -1.6076  1.1343
  182SOPE  H14Y20869   6.840   2.022   8.314 -1.1260  1.7144  0.4611
  182SOPE  C31520870   6.649   1.985   8.410  0.0043  0.1317 -0.3583
  182SOPE  H15X20871   6.704   1.924   8.484 -0.1422  0.7320  0.2602
  182SOPE  H15Y20872   6.552   1.936   8.385 -0.4390  0.0032  1.5366
  182SOPE  C31620873   6.640   2.123   8.459  0.8981 -0.0413 -0.1774
  182SOPE  H16X20874   6.608   2.189   8.376  0.2960 -1.4783 -1.1106
  182SOPE  H16Y20875   6.727   2.165   8.513  1.9475  0.4152 -2.2052
  182SOPE  C31720876   6.525   2.134   8.560  0.2815  0.6797  0.2623
  182SOPE  H17X20877   6.543   2.078   8.654 -0.5104 -1.2509 -0.7158
  182SOPE  H17Y20878   6.426   2.101   8.522  0.5076  0.2040  0.0908
  182SOPE  C31820879   6.502   2.276   8.618 -0.0030  0.1191 -0.2489
  182SOPE  H18X20880   6.599   2.329   8.633 -1.7759  2.9568  1.6251
  182SOPE  H18Y20881   6.454   2.278   8.718  2.6870 -2.3633  1.1698
  182SOPE  H18Z20882   6.446   2.336   8.543  0.6801  1.6856  0.4759
  183SOPE     N20883   2.168   5.843   6.628 -0.5468  0.0006 -0.3199
  183SOPE   HN120884   2.085   5.799   6.583 -0.2029 -0.6062 -0.3569
  183SOPE   HN220885   2.252   5.793   6.593  0.5924  1.5620  0.1035
  183SOPE   HN320886   2.151   5.832   6.730 -1.0150  0.6855 -0.3204
  183SOPE   C1220887   2.184   5.987   6.590  0.1429  0.1295  0.2646
  183SOPE  H12A20888   2.278   6.024   6.634  0.6282 -0.5543 -0.1732
  183SOPE  H12B20889   2.095   6.041   6.630  0.4286  1.2577 -0.5982
  183SOPE   C1120890   2.188   6.003   6.431  0.0520  0.7332 -0.4256
  183SOPE  H11A20891   2.191   6.113   6.421 -3.5170  1.1116  1.9457
  183SOPE  H11B20892   2.098   5.955   6.387 -0.2497 -0.5669  1.5712
  183SOPE     P20893   2.365   5.980   6.244 -0.1189 -0.0495  0.1507
  183SOPE   O1320894   2.348   6.130   6.229 -0.0193  0.8874 -0.1090
  183SOPE   O1420895   2.304   5.897   6.144  0.3076  0.2303 -1.0301
  183SOPE   O1220896   2.307   5.949   6.387 -0.0552 -0.5271  0.5007
  183SOPE   O1120897   2.515   5.939   6.258  0.1308 -0.4898 -0.1308
  183SOPE    C120898   2.562   5.879   6.381  0.2214  0.7165  0.1454
  183SOPE    HA20899   2.660   5.836   6.353  1.3174  2.8402  0.6122
  183SOPE    HB20900   2.496   5.793   6.407  1.4262 -0.4613 -0.6597
  183SOPE    C220901   2.587   5.981   6.495 -0.4805 -1.2312 -0.0772
  183SOPE    HS20902   2.485   6.017   6.523 -0.7605 -0.1947 -2.3686
  183SOPE   O2120903   2.668   6.095   6.460 -0.1528  0.0750  0.4329
  183SOPE   C2120904   2.632   6.213   6.522 -0.4502  0.3339 -0.5814
  183SOPE   O2220905   2.524   6.227   6.585  0.1454 -0.5595 -0.0401
  183SOPE   C2220906   2.736   6.331   6.504 -0.2169 -0.2383  0.5824
  183SOPE   H2R20907   2.733   6.350   6.394  2.0954  0.9341  0.6875
  183SOPE   H2S20908   2.836   6.289   6.528  0.7475  2.2167  0.9825
  183SOPE    C320909   2.655   5.909   6.621  0.6037 -0.8344 -0.1181
  183SOPE    HX20910   2.760   5.894   6.588  1.4307 -0.8473  2.4536
  183SOPE    HY20911   2.599   5.816   6.644  0.1897 -0.2532  1.2387
  183SOPE   O3120912   2.663   5.987   6.744 -0.1917 -0.0862  0.0799
  183SOPE   C3120913   2.545   6.017   6.791  0.4055 -0.2302 -0.1153
  183SOPE   O3220914   2.436   5.970   6.760 -0.1127  0.0521 -0.7250
  183SOPE   C3220915   2.569   6.130   6.893 -0.3295  0.0655 -0.8617
  183SOPE   H2X20916   2.640   6.205   6.853 -0.2626  0.5579  0.1528
  183SOPE   H2Y20917   2.626   6.089   6.980 -0.5338  0.2099 -0.6590
  183SOPE   C2320918   2.693   6.461   6.589  0.0858 -0.3679  0.0061
  183SOPE   H3R20919   2.655   6.440   6.691  0.7199  0.3254  0.3977
  183SOPE   H3S20920   2.610   6.507   6.532  0.1259 -0.1271  0.1404
  183SOPE   C2420921   2.812   6.561   6.605  0.3110 -0.2637  0.0032
  183SOPE   H4R20922   2.877   6.590   6.519  0.0386  0.0745 -0.0863
  183SOPE   H4S20923   2.782   6.656   6.652 -1.4352 -1.4822  1.3934
  183SOPE   C2520924   2.922   6.504   6.695  0.0297 -0.4842  0.4252
  183SOPE   H5R20925   2.935   6.394   6.687 -1.1963 -0.6429  0.4887
  183SOPE   H5S20926   3.013   6.552   6.654 -0.6051  0.1771 -0.2351
  183SOPE   C2620927   2.896   6.536   6.841  0.3562 -0.5472  0.3282
  183SOPE   H6R20928   2.890   6.645   6.864 -0.8259 -0.5138 -0.1265
  183SOPE   H6S20929   2.797   6.492   6.863 -0.2462 -0.6649 -2.5151
  183SOPE   C2720930   3.000   6.457   6.922  0.1317  0.6419 -1.0035
  183SOPE   H7R20931   3.000   6.351   6.889 -0.6759 -0.1710  1.4807
  183SOPE   H7S20932   3.099   6.501   6.898  0.7064  0.8765  1.6358
  183SOPE   C2820933   2.973   6.446   7.074  0.5354 -0.1817  1.1221
  183SOPE   H8R20934   2.953   6.545   7.121 -1.8212 -0.8517  1.5948
  183SOPE   H8S20935   2.881   6.388   7.093  0.5105 -0.8413 -0.8601
  183SOPE   C2920936   3.073   6.361   7.148 -0.0492 -0.4372 -0.0588
  183SOPE   H9120937   3.097   6.270   7.092  0.3652 -2.1274  2.7264
  183SOPE  C21020938   3.133   6.378   7.267 -0.0767 -0.2681 -0.2372
  183SOPE  H10120939   3.213   6.309   7.297 -1.4225 -2.1113 -0.8034
  183SOPE  C21120940   3.110   6.495   7.360 -0.3405 -0.2571 -0.5531
  183SOPE  H11R20941   3.028   6.562   7.328 -1.1769  0.3420  2.6763
  183SOPE  H11S20942   3.199   6.562   7.364 -2.6564  2.8276  1.9372
  183SOPE  C21220943   3.091   6.465   7.515 -0.6636  0.0980 -0.0652
  183SOPE  H12R20944   3.187   6.424   7.552  0.2182  0.1682 -2.2026
  183SOPE  H12S20945   3.016   6.387   7.538 -2.0180  1.2842 -0.3764
  183SOPE  C21320946   3.051   6.595   7.596  0.2047  0.6567 -0.4065
  183SOPE  H13R20947   2.949   6.627   7.563  0.4759  1.1042 -0.8261
  183SOPE  H13S20948   3.122   6.672   7.558 -1.0085  2.4859  0.9488
  183SOPE  C21420949   3.061   6.578   7.747  0.1426  0.4802 -0.5846
  183SOPE  H14R20950   3.160   6.539   7.778 -0.7424  0.1264  1.8959
  183SOPE  H14S20951   2.984   6.509   7.786 -0.9260  0.8185 -2.0465
  183SOPE  C21520952   3.029   6.711   7.808  0.4868  0.0982 -0.1625
  183SOPE  H15R20953   2.928   6.737   7.768  1.1248 -0.5610 -2.2608
  183SOPE  H15S20954   3.095   6.798   7.784  0.7159  0.4407  1.6663
  183SOPE  C21620955   3.011   6.693   7.955 -0.2283  0.8248  0.8572
  183SOPE  H16R20956   3.112   6.684   7.999 -0.3083  0.9379  1.0667
  183SOPE  H16S20957   2.957   6.601   7.984 -1.9231  0.6091 -2.7416
  183SOPE  C21720958   2.936   6.809   8.028 -0.8997 -0.1401 -0.3452
  183SOPE  H17R20959   2.834   6.816   7.985 -0.9752 -0.9066 -0.3106
  183SOPE  H17S20960   2.995   6.900   8.006  0.2443 -0.5674  0.8555
  183SOPE  C21820961   2.914   6.788   8.174  0.0142  0.4596 -0.5343
  183SOPE  H18R20962   3.006   6.749   8.223  0.0499  1.8896  0.5684
  183SOPE  H18S20963   2.837   6.712   8.199 -1.1419  1.2086 -1.7198
  183SOPE  H18T20964   2.889   6.878   8.235 -0.6859  0.4937 -0.8667
  183SOPE   C3320965   2.452   6.206   6.958  0.3280  0.8034  0.5229
  183SOPE   H3X20966   2.386   6.134   7.012  3.1645 -1.6907  0.8115
  183SOPE   H3Y20967   2.391   6.245   6.874 -0.3143 -1.4142 -0.0861
  183SOPE   C3420968   2.500   6.321   7.048  0.3606  0.0177  0.2855
  183SOPE   H4X20969   2.402   6.372   7.059 -2.3410 -4.7199 -0.2921
  183SOPE   H4Y20970   2.565   6.395   6.998 -1.2259  0.1024 -1.7514
  183SOPE   C3520971   2.561   6.279   7.180  0.7648  0.1741  0.0045
  183SOPE   H5X20972   2.659   6.228   7.172  1.3370  1.0489  1.1735
  183SOPE   H5Y20973   2.490   6.211   7.233  0.3437  2.0649  1.9372
  183SOPE   C3620974   2.575   6.409   7.267 -0.0404  0.6739  0.0146
  183SOPE   H6X20975   2.482   6.470   7.272  0.7431  1.7489  2.0608
  183SOPE   H6Y20976   2.656   6.476   7.231 -1.6400  1.7241 -1.7236
  183SOPE   C3720977   2.611   6.369   7.404  0.2582 -0.3042 -0.5555
  183SOPE   H7X20978   2.700   6.303   7.398  1.4188  1.2108 -0.3834
  183SOPE   H7Y20979   2.520   6.314   7.437  1.0043  0.4150  2.9075
  183SOPE   C3820980   2.637   6.490   7.507  0.1885 -0.3532  0.6624
  183SOPE   H8X20981   2.552   6.561   7.498  2.0155  1.6473 -1.3626
  183SOPE   H8Y20982   2.734   6.538   7.481 -0.4316  0.4321 -0.2208
  183SOPE   C3920983   2.630   6.430   7.648 -0.4882  0.1921  0.9242
  183SOPE   H9X20984   2.716   6.367   7.679 -2.3638 -1.8108  2.2393
  183SOPE   H9Y20985   2.535   6.375   7.667 -0.3201 -1.1668 -2.0276
  183SOPE  C31020986   2.628   6.553   7.748 -0.0394 -0.0583 -0.3338
  183SOPE  H10X20987   2.537   6.616   7.742  0.4460  0.7699  0.9116
  183SOPE  H10Y20988   2.709   6.626   7.726  0.5852 -0.4630  0.6063
  183SOPE  C31120989   2.624   6.496   7.888  0.0660 -0.3144 -0.8756
  183SOPE  H11X20990   2.717   6.441   7.912  0.6772  0.1295 -2.1715
  183SOPE  H11Y20991   2.541   6.423   7.876  0.0757 -0.1711 -1.8690
  183SOPE  C31220992   2.601   6.596   8.004  0.0397 -0.0473 -0.4526
  183SOPE  H12X20993   2.522   6.666   7.970  1.0510  1.2544 -0.1913
  183SOPE  H12Y20994   2.688   6.659   8.033 -1.2415  1.0292  1.1575
  183SOPE  C31320995   2.562   6.531   8.142 -0.5395 -0.3471 -0.7743
  183SOPE  H13X20996   2.650   6.473   8.176  0.2647  2.7163  2.6682
  183SOPE  H13Y20997   2.467   6.476   8.124 -0.7025 -0.5973  0.8530
  183SOPE  C31420998   2.539   6.641   8.244 -0.6580 -0.3589  0.3366
  183SOPE  H14X20999   2.429   6.658   8.236 -0.6943 -1.5420 -1.8764
  183SOPE  H14Y21000   2.579   6.735   8.201  0.8604 -1.1032  0.1161
  183SOPE  C31521001   2.609   6.630   8.379 -0.7054 -0.0065 -0.0106
  183SOPE  H15X21002   2.713   6.611   8.347 -0.9166 -0.9232 -0.1596
  183SOPE  H15Y21003   2.566   6.545   8.436 -2.0117  0.0774 -0.8564
  183SOPE  C31621004   2.617   6.748   8.477  0.0404  0.7941 -0.5209
  183SOPE  H16X21005   2.627   6.844   8.422  2.4360  0.7793 -0.1685
  183SOPE  H16Y21006   2.702   6.751   8.548 -1.0879 -1.7815  1.0239
  183SOPE  C31721007   2.483   6.763   8.557  0.2501 -0.3951 -0.2494
  183SOPE  H17X21008   2.469   6.668   8.614 -1.8440 -0.2420 -0.4562
  183SOPE  H17Y21009   2.398   6.770   8.486 -0.4950 -0.6475  0.6088
  183SOPE  C31821010   2.477   6.892   8.648  0.0712 -0.8822 -0.3106
  183SOPE  H18X21011   2.379   6.911   8.696 -1.0329 -3.0096 -1.6385
  183SOPE  H18Y21012   2.488   6.974   8.574  2.8518 -0.6205  0.3383
  183SOPE  H18Z21013   2.557   6.883   8.724 -0.9331 -0.8841  0.7638
  184SOPE     N21014   2.120   0.119   5.790  0.4238 -0.2603 -0.2023
  184SOPE   HN121015   2.091   0.076   5.700  2.2980  2.0165 -1.9781
  184SOPE   HN221016   2.056   0.199   5.809 -1.4849 -1.5436 -1.1270
  184SOPE   HN321017   2.218   0.155   5.785 -0.9635  3.6607 -0.8224
  184SOPE   C1221018   2.104   0.012   5.900 -1.2738 -0.2951 -0.0772
  184SOPE  H12A21019   2.171  -0.072   5.872 -0.2028  0.3815  0.4095
  184SOPE  H12B21020   1.998  -0.021   5.896 -1.0821 -0.6622 -3.4202
  184SOPE   C1121021   2.149   0.066   6.038  0.2251 -0.5818 -0.3630
  184SOPE  H11A21022   2.097   0.164   6.053 -3.1495 -1.8641 -2.8399
  184SOPE  H11B21023   2.258   0.084   6.035  0.1257 -0.1165 -1.4959
  184SOPE     P21024   1.994  -0.037   6.228 -0.1409  0.0408 -0.0545
  184SOPE   O1321025   1.998  -0.143   6.337  0.0857 -0.2380 -0.1710
  184SOPE   O1421026   1.881  -0.036   6.134 -0.0555 -0.0985 -0.3675
  184SOPE   O1221027   2.128  -0.037   6.142  0.2755  0.4482 -0.1022
  184SOPE   O1121028   1.994   0.101   6.297  0.4003  0.3933 -0.4269
  184SOPE    C121029   2.110   0.148   6.372 -0.0355  0.5210  0.3764
  184SOPE    HA21030   2.159   0.234   6.321 -2.6192  0.0389 -3.1419
  184SOPE    HB21031   2.184   0.068   6.391 -0.4071  0.1283  0.1859
  184SOPE    C221032   2.068   0.191   6.515  0.1065 -0.3178 -0.0240
  184SOPE    HS21033   2.168   0.214   6.557  0.2767 -3.9596  1.7271
  184SOPE   O2121034   1.993   0.085   6.577 -0.1376 -0.1430 -0.0091
  184SOPE   C2121035   2.068   0.005   6.654  0.1817  0.0536  0.1460
  184SOPE   O2221036   2.188   0.023   6.671  0.1829 -0.2084 -0.3529
  184SOPE   C2221037   1.987  -0.107   6.714  0.3639 -0.5997  0.4517
  184SOPE   H2R21038   1.957  -0.172   6.629  1.3330  2.1753 -2.0838
  184SOPE   H2S21039   1.905  -0.066   6.777  1.2569  1.5446  0.2601
  184SOPE    C321040   1.979   0.314   6.523 -0.6395 -0.3050 -0.9373
  184SOPE    HX21041   1.872   0.285   6.520 -0.9502  0.7902 -0.6461
  184SOPE    HY21042   2.007   0.389   6.445  0.8891 -0.3777 -0.4805
  184SOPE   O3121043   2.009   0.381   6.650  0.3053  0.0836  0.1097
  184SOPE   C3121044   1.933   0.486   6.681  1.0718 -0.0012  0.2744
  184SOPE   O3221045   1.841   0.529   6.612  0.8336 -0.9758  0.2829
  184SOPE   C3221046   1.973   0.535   6.821  0.4230 -0.4516 -0.3388
  184SOPE   H2X21047   2.067   0.594   6.807 -0.4877  0.7199 -1.6588
  184SOPE   H2Y21048   2.010   0.445   6.875  1.5519  1.3983  2.1223
  184SOPE   C2321049   2.067  -0.203   6.809  0.2137  0.0035 -0.0747
  184SOPE   H3R21050   2.161  -0.226   6.754  0.7803  1.8214  0.1016
  184SOPE   H3S21051   2.007  -0.295   6.825  1.3818 -1.0424 -1.5587
  184SOPE   C2421052   2.092  -0.146   6.951  0.6579  0.7719 -0.1541
  184SOPE   H4R21053   2.141  -0.047   6.939 -0.2836  1.0850 -1.5118
  184SOPE   H4S21054   1.993  -0.137   7.001 -0.6919  1.5002 -2.9005
  184SOPE   C2521055   2.180  -0.233   7.034  0.7642  0.1514  0.2234
  184SOPE   H5R21056   2.129  -0.331   7.049 -0.5903  0.9310  0.6875
  184SOPE   H5S21057   2.271  -0.246   6.971  0.3827  0.6075 -0.4195
  184SOPE   C2621058   2.228  -0.169   7.163 -0.3732 -0.0030 -0.6133
  184SOPE   H6R21059   2.308  -0.234   7.205  1.1458  2.2471  0.0406
  184SOPE   H6S21060   2.287  -0.078   7.138  1.6423 -0.9056  0.6932
  184SOPE   C2721061   2.125  -0.126   7.267 -0.7374 -0.1790 -0.2927
  184SOPE   H7R21062   2.040  -0.084   7.210 -1.5171 -0.4421  0.6686
  184SOPE   H7S21063   2.099  -0.226   7.308  0.2199 -0.6842 -0.8945
  184SOPE   C2821064   2.167  -0.026   7.368 -0.6411  0.3915 -0.2814
  184SOPE   H8R21065   2.209   0.063   7.315 -1.4646  0.4034 -0.9192
  184SOPE   H8S21066   2.083   0.012   7.430 -1.4012 -0.9545 -0.4653
  184SOPE   C2921067   2.278  -0.074   7.451 -0.3824 -0.4422 -0.1559
  184SOPE   H9121068   2.377  -0.068   7.404 -0.8870 -0.4257 -1.2262
  184SOPE  C21021069   2.269  -0.114   7.579 -0.1228 -0.2600 -0.5789
  184SOPE  H10121070   2.357  -0.157   7.629  1.7402  1.1339 -2.5591
  184SOPE  C21121071   2.136  -0.121   7.650  0.5800 -0.3193  0.1010
  184SOPE  H11R21072   2.107  -0.226   7.673  0.0636 -0.5500 -1.5794
  184SOPE  H11S21073   2.049  -0.077   7.597 -1.0234 -3.8380 -0.2897
  184SOPE  C21221074   2.138  -0.064   7.794  0.5912 -0.0605 -0.0470
  184SOPE  H12R21075   2.030  -0.071   7.820  0.0826  5.0183 -0.2687
  184SOPE  H12S21076   2.154   0.046   7.796 -4.6643  0.8003 -0.0402
  184SOPE  C21321077   2.224  -0.132   7.891  0.0742 -0.0408 -0.5813
  184SOPE  H13R21078   2.327  -0.091   7.896 -0.2386  0.5141  1.7089
  184SOPE  H13S21079   2.238  -0.236   7.852 -1.0833 -0.7232  0.7592
  184SOPE  C21421080   2.163  -0.133   8.035  0.8866 -0.2371 -0.3709
  184SOPE  H14R21081   2.227  -0.195   8.102 -0.0508  0.8067  1.5199
  184SOPE  H14S21082   2.061  -0.175   8.042  1.2719 -1.5589 -2.3209
  184SOPE  C21521083   2.159   0.012   8.095  0.3308 -0.5851  0.3545
  184SOPE  H15R21084   2.075   0.071   8.051  0.5616  1.3500  2.3814
  184SOPE  H15S21085   2.254   0.056   8.059 -0.9242  1.1575 -0.9221
  184SOPE  C21621086   2.159   0.016   8.247  0.4592 -0.1204  0.2547
  184SOPE  H16R21087   2.246  -0.039   8.288  0.3180 -2.4628 -2.4562
  184SOPE  H16S21088   2.072  -0.046   8.277  0.6497  0.3940  1.9227
  184SOPE  C21721089   2.146   0.153   8.314 -0.1566 -0.4237  0.7230
  184SOPE  H17R21090   2.071   0.216   8.260  1.1414  1.6498  1.2678
  184SOPE  H17S21091   2.242   0.207   8.299  0.0273 -0.7354  0.7806
  184SOPE  C21821092   2.125   0.142   8.466 -0.6196 -0.3412 -0.4967
  184SOPE  H18R21093   2.046   0.071   8.497  0.4044  0.2846  3.9309
  184SOPE  H18S21094   2.089   0.242   8.500 -0.9366 -1.2501  1.9087
  184SOPE  H18T21095   2.222   0.130   8.520 -0.5019 -1.2434 -0.9002
  184SOPE   C3321096   1.874   0.614   6.903 -0.1482  0.5703 -1.1521
  184SOPE   H3X21097   1.781   0.556   6.921 -0.0418  1.0375  1.0224
  184SOPE   H3Y21098   1.842   0.705   6.848  0.4576  2.0944  0.9779
  184SOPE   C3421099   1.943   0.652   7.043 -0.0596 -0.2276  0.0431
  184SOPE   H4X21100   2.021   0.726   7.017 -0.0455  0.1030  0.9988
  184SOPE   H4Y21101   1.998   0.561   7.073  0.1338 -0.5898 -1.3902
  184SOPE   C3521102   1.840   0.677   7.153  0.0708  0.7860  0.3510
  184SOPE   H5X21103   1.765   0.596   7.143  1.9948 -1.2475  2.0353
  184SOPE   H5Y21104   1.777   0.767   7.137 -0.6223  1.1580  4.5691
  184SOPE   C3621105   1.889   0.700   7.296  0.2729 -0.8189  0.3845
  184SOPE   H6X21106   1.958   0.617   7.320  0.4198 -1.1558 -1.1570
  184SOPE   H6Y21107   1.802   0.685   7.364 -0.1871 -1.1000 -0.2602
  184SOPE   C3721108   1.966   0.828   7.324  0.3059  0.7335 -0.0836
  184SOPE   H7X21109   1.904   0.918   7.302  0.6253  0.7503 -0.9438
  184SOPE   H7Y21110   2.050   0.828   7.251 -1.5362  1.3181 -2.2704
  184SOPE   C3821111   2.023   0.839   7.467  0.0560  0.3227  0.3345
  184SOPE   H8X21112   2.081   0.931   7.492 -0.7779  0.7837  0.6008
  184SOPE   H8Y21113   2.104   0.763   7.462  0.3304  0.4399  2.3241
  184SOPE   C3921114   1.914   0.803   7.570 -0.4157  0.3078  0.5484
  184SOPE   H9X21115   1.882   0.696   7.567 -1.6904  0.7055 -0.5914
  184SOPE   H9Y21116   1.819   0.854   7.540 -0.4889  0.8806  1.7442
  184SOPE  C31021117   1.947   0.847   7.706  0.5154  0.0584  0.1258
  184SOPE  H10X21118   1.854   0.853   7.768 -0.6596 -3.3929 -1.1346
  184SOPE  H10Y21119   1.992   0.948   7.698 -0.0173  0.4354  1.6211
  184SOPE  C31121120   2.045   0.759   7.780  0.2542  0.1322  0.2685
  184SOPE  H11X21121   2.144   0.775   7.732 -0.5281  0.3761 -1.2996
  184SOPE  H11Y21122   2.024   0.650   7.773 -0.0737  0.2135 -0.0203
  184SOPE  C31221123   2.060   0.792   7.929  0.9842 -0.0035  0.4019
  184SOPE  H12X21124   2.041   0.899   7.948  0.0674  0.2088 -1.5578
  184SOPE  H12Y21125   2.163   0.767   7.965  0.6323  0.4416  1.7190
  184SOPE  C31321126   1.965   0.708   8.019 -0.1306 -0.3364  0.2645
  184SOPE  H13X21127   1.984   0.599   8.009  1.6498 -0.0523  0.3316
  184SOPE  H13Y21128   1.856   0.727   8.003 -0.1427 -1.9523 -1.7733
  184SOPE  C31421129   1.991   0.752   8.166  0.6920  0.2384 -0.0269
  184SOPE  H14X21130   1.980   0.861   8.152 -0.0833 -0.0319 -1.6364
  184SOPE  H14Y21131   2.097   0.745   8.198  1.1384  1.2282 -1.2643
  184SOPE  C31521132   1.896   0.691   8.266 -0.4926 -0.2514 -0.2625
  184SOPE  H15X21133   1.804   0.754   8.260 -1.8316 -2.2515 -1.3846
  184SOPE  H15Y21134   1.938   0.700   8.368 -0.1035 -1.7015 -0.2804
  184SOPE  C31621135   1.857   0.547   8.243  0.0044 -0.1662  0.5971
  184SOPE  H16X21136   1.950   0.486   8.250  0.6619  1.0406  2.8102
  184SOPE  H16Y21137   1.827   0.545   8.136  2.3285 -0.1021 -0.1015
  184SOPE  C31721138   1.745   0.506   8.339  0.0739 -0.3352 -0.3676
  184SOPE  H17X21139   1.657   0.574   8.337 -0.1908 -0.6988 -3.3483
  184SOPE  H17Y21140   1.787   0.497   8.442 -1.6063 -0.2308  0.3449
  184SOPE  C31821141   1.692   0.364   8.305 -0.3218  0.2945 -0.1349
  184SOPE  H18X21142   1.761   0.290   8.351 -0.1709  0.7381  0.3573
  184SOPE  H18Y21143   1.703   0.346   8.196  2.2955  1.6896 -0.1345
  184SOPE  H18Z21144   1.584   0.364   8.332 -0.9497 -1.2533 -2.4609
  185SAPI   C1221145   5.158   3.370  11.355  0.0457  0.2917  0.6056
  185SAPI    H221146   5.165   3.455  11.284 -1.7429  0.2434  0.3441
  185SAPI    O221147   5.287   3.313  11.387 -0.0783 -0.7012 -0.0506
  185SAPI   HO221148   5.366   3.363  11.368  0.1582 -0.8067  0.6220
  185SAPI   C1321149   5.085   3.413  11.482 -0.8182 -0.5157 -0.1547
  185SAPI    H321150   4.986   3.446  11.444 -0.4779  2.4203  1.3895
  185SAPI    O321151   5.156   3.516  11.544 -0.4822 -0.9658 -0.4458
  185SAPI   HO321152   5.244   3.484  11.566 -0.7988 -1.8499 -0.4304
  185SAPI   C1421153   5.069   3.297  11.578  0.2302  0.5985 -0.6157
  185SAPI    H421154   5.166   3.247  11.598 -0.5592 -0.0618  1.7518
  185SAPI    O421155   5.017   3.338  11.703 -0.9593 -0.1017 -0.0713
  185SAPI   HO421156   5.072   3.286  11.762  0.3073  0.9472 -0.2994
  185SAPI   C1521157   4.985   3.187  11.510 -0.6370 -0.6482 -0.2739
  185SAPI    H521158   4.885   3.227  11.483 -0.7085  1.0924  2.3586
  185SAPI    O521159   4.972   3.078  11.597 -0.2970  0.6055 -0.0221
  185SAPI   HO521160   4.906   3.022  11.556  0.2503  0.8771 -1.3126
  185SAPI   C1621161   5.049   3.141  11.379  0.3286 -1.1421  0.2582
  185SAPI    H621162   5.146   3.088  11.393  2.7895  2.2182 -3.0705
  185SAPI    O621163   4.963   3.047  11.309 -0.9511 -0.0405 -0.3069
  185SAPI   HO621164   5.025   2.980  11.279 -2.0654 -1.8032  1.2603
  185SAPI   C1121165   5.066   3.260  11.291 -0.5049 -0.3909  0.6512
  185SAPI    H121166   4.964   3.303  11.284 -0.4036 -0.3297 -0.5046
  185SAPI     P21167   5.062   3.265  11.020 -0.3997 -0.3395  0.1640
  185SAPI   O1321168   4.915   3.258  11.029 -0.3894 -0.4095  0.0085
  185SAPI   O1421169   5.128   3.191  10.909  0.2229  0.2103  0.5018
  185SAPI   O1221170   5.124   3.222  11.163  0.0068 -0.1742 -0.6409
  185SAPI   O1121171   5.093   3.418  11.011  0.2661  0.3398 -0.9114
  185SAPI    C121172   5.000   3.513  10.957 -0.5598 -0.0187  0.3237
  185SAPI    HA21173   4.904   3.515  11.014 -1.3106 -1.8274 -0.8426
  185SAPI    HB21174   5.042   3.616  10.955  0.7360 -0.5542 -1.1555
  185SAPI    C221175   4.965   3.487  10.802 -0.3012 -1.0591  0.5606
  185SAPI    HS21176   4.890   3.405  10.804 -0.4447 -0.9226  0.7995
  185SAPI   O2121177   5.093   3.460  10.732 -0.2790 -0.0728  0.6846
  185SAPI   C2121178   5.087   3.388  10.612 -0.3289  0.2328  0.2461
  185SAPI   O2221179   4.991   3.335  10.569  0.3729  0.7489 -0.1101
  185SAPI   C2221180   5.229   3.391  10.549  0.2034  0.4730  0.1259
  185SAPI   H2R21181   5.296   3.465  10.598  0.7281 -0.8117  1.3989
  185SAPI   H2S21182   5.278   3.294  10.574  2.6912  1.0155 -2.4481
  185SAPI    C321183   4.894   3.606  10.732  0.1869  0.3834  0.4281
  185SAPI    HX21184   4.963   3.692  10.747  2.7169 -1.2727 -1.3208
  185SAPI    HY21185   4.815   3.647  10.799 -0.7398  0.1855 -0.5211
  185SAPI   O3121186   4.869   3.598  10.593  0.0827 -0.5746  0.2944
  185SAPI   C3121187   4.750   3.542  10.571 -0.3791 -0.4556 -0.1194
  185SAPI   O3221188   4.665   3.512  10.651  0.4012  0.5770  0.3669
  185SAPI   C3221189   4.737   3.525  10.421  0.7268  0.0683  0.3635
  185SAPI   H2X21190   4.662   3.444  10.410  0.2829  0.5268  0.0056
  185SAPI   H2Y21191   4.834   3.486  10.383  0.3049 -3.3163  2.5487
  185SAPI   C2321192   5.230   3.399  10.390 -0.3088 -0.4357  0.1641
  185SAPI   H3R21193   5.170   3.314  10.351  0.8793 -0.7890 -0.9254
  185SAPI   H3S21194   5.331   3.382  10.346 -0.2551  1.6582 -0.5782
  185SAPI   C2421195   5.162   3.520  10.319 -0.2870 -0.4469  0.4378
  185SAPI   H4R21196   5.061   3.543  10.359 -0.2846  1.9246 -0.8056
  185SAPI   H4S21197   5.149   3.481  10.216  0.6763 -2.0272  0.9054
  185SAPI   C2521198   5.247   3.645  10.336 -0.0314  0.4204  0.0893
  185SAPI   H5R21199   5.350   3.612  10.360  0.1364 -0.4385 -1.7347
  185SAPI   C2621200   5.201   3.777  10.330 -0.4192 -0.1815  0.1673
  185SAPI   H6R21201   5.260   3.870  10.337 -0.7069  0.2278 -2.4176
  185SAPI   C2721202   5.056   3.808  10.310 -0.2514 -0.2980  0.9059
  185SAPI   H7R21203   4.992   3.730  10.357 -1.4063  0.1503  0.0976
  185SAPI   H7S21204   5.034   3.789  10.203 -0.6297 -1.8346  1.2500
  185SAPI   C2821205   4.997   3.942  10.366 -0.2697 -0.1897 -0.1165
  185SAPI   H8R21206   4.979   3.945  10.474 -1.1907  0.8065 -0.2869
  185SAPI   C2921207   4.962   4.045  10.288 -0.4658 -0.0650  0.7956
  185SAPI   H9R21208   4.931   4.144  10.325  0.1416  0.6225 -0.4810
  185SAPI  C21021209   4.963   4.040  10.136  0.5416 -0.0447  0.5299
  185SAPI  H10R21210   4.866   4.086  10.106  0.7098  0.5882  0.9446
  185SAPI  H10S21211   4.984   3.940  10.093 -0.9301 -0.6471  1.1708
  185SAPI  C21121212   5.075   4.126  10.082 -0.1061 -0.2493  0.0050
  185SAPI  H11R21213   5.157   4.150  10.151  1.4668  2.0492 -2.5678
  185SAPI  C21221214   5.082   4.173   9.957 -0.0699  0.2593  0.0663
  185SAPI  H12R21215   5.177   4.212   9.918  0.5656 -0.9492  0.3911
  185SAPI  C21321216   4.994   4.138   9.842  0.8983 -0.3628 -0.1789
  185SAPI  H13R21217   4.892   4.130   9.884  1.6217 -1.8722  1.3893
  185SAPI  H13S21218   5.015   4.030   9.825  0.9110 -0.4427  0.3372
  185SAPI  C21421219   5.019   4.236   9.720  0.1272 -0.3178 -0.4025
  185SAPI  H14R21220   5.002   4.344   9.731 -0.5058 -0.4826  0.2935
  185SAPI  C21521221   5.056   4.193   9.598 -0.3358 -0.2849  0.5344
  185SAPI  H15R21222   5.075   4.265   9.517 -1.3274 -0.0012  0.5470
  185SAPI  C21621223   5.078   4.055   9.547 -0.3855  0.4435 -0.8755
  185SAPI  H16R21224   5.027   4.053   9.449  0.1124 -1.5475 -1.1050
  185SAPI  H16S21225   5.036   3.966   9.597 -0.5409  0.2207 -1.4026
  185SAPI  C21721226   5.230   4.027   9.512  0.2713 -0.5504  0.0179
  185SAPI  H17R21227   5.234   3.916   9.510  0.9285 -0.5229 -0.2715
  185SAPI  H17S21228   5.306   4.061   9.586  0.9867 -1.2537 -0.3783
  185SAPI  C21821229   5.272   4.099   9.384  0.5449  0.0574 -0.4466
  185SAPI  H18R21230   5.263   4.209   9.387 -0.8533 -0.0737  0.2808
  185SAPI  H18S21231   5.193   4.078   9.308 -0.6224  0.4168  0.6584
  185SAPI  C21921232   5.405   4.044   9.332  0.0975  0.0975  0.5903
  185SAPI  H19R21233   5.390   3.934   9.321 -3.9435  0.3566  2.6331
  185SAPI  H19S21234   5.476   4.058   9.417  1.9081  0.5331 -0.9676
  185SAPI  C22021235   5.446   4.093   9.192 -0.6565 -0.4342 -0.3824
  185SAPI  H20R21236   5.363   4.075   9.121 -0.1095 -0.8630 -0.9240
  185SAPI  H20S21237   5.524   4.027   9.148 -1.7999 -1.2895 -1.1473
  185SAPI  H20T21238   5.460   4.203   9.189  2.4898 -0.7219  1.4552
  185SAPI   C3321239   4.689   3.649  10.353  0.4625 -1.0522  0.0795
  185SAPI   H3X21240   4.741   3.738  10.394 -1.0400 -0.3145  0.4255
  185SAPI   H3Y21241   4.584   3.671  10.382  0.5917  0.3496 -0.4704
  185SAPI   C3421242   4.684   3.629  10.202  0.0859  0.1413 -0.6519
  185SAPI   H4X21243   4.652   3.526  10.178  0.5135 -0.2141  0.2751
  185SAPI   H4Y21244   4.791   3.636  10.172  1.3503 -0.4264  3.5347
  185SAPI   C3521245   4.592   3.718  10.124 -0.2866 -0.5874  0.5119
  185SAPI   H5X21246   4.595   3.824  10.158  0.8809  0.2732 -2.1472
  185SAPI   H5Y21247   4.484   3.692  10.131 -1.0628  2.1798 -0.4844
  185SAPI   C3621248   4.620   3.710   9.972  0.0955  0.1388  0.1880
  185SAPI   H6X21249   4.536   3.739   9.905  0.5824 -1.8332 -1.3190
  185SAPI   H6Y21250   4.628   3.603   9.942 -0.4004  0.6208 -1.7286
  185SAPI   C3721251   4.740   3.788   9.941 -0.5707  0.1257  0.1413
  185SAPI   H7X21252   4.841   3.750   9.967  0.5736  2.1143 -1.3417
  185SAPI   H7Y21253   4.724   3.882   9.998 -3.2380 -1.5768  2.3644
  185SAPI   C3821254   4.745   3.836   9.797  0.0191 -0.5052  0.0152
  185SAPI   H8X21255   4.835   3.901   9.794 -0.4886  0.2089 -0.1010
  185SAPI   H8Y21256   4.648   3.887   9.778 -0.3598 -0.6412  1.5104
  185SAPI   C3921257   4.763   3.714   9.704  0.2130 -0.8947  0.5470
  185SAPI   H9X21258   4.683   3.640   9.726 -0.5144 -0.7066 -1.3667
  185SAPI   H9Y21259   4.863   3.672   9.729  0.2377 -1.2836 -0.1867
  185SAPI  C31021260   4.758   3.756   9.559  0.2215  0.2411 -0.3669
  185SAPI  H10X21261   4.831   3.840   9.559 -0.1430  0.5658  0.3667
  185SAPI  H10Y21262   4.659   3.795   9.528 -2.0481 -2.6854  2.8532
  185SAPI  C31121263   4.812   3.656   9.457 -0.1710 -0.1306 -0.1702
  185SAPI  H11X21264   4.909   3.618   9.493 -0.1674  0.3523  0.3393
  185SAPI  H11Y21265   4.842   3.712   9.366  1.1987 -0.0024  0.3471
  185SAPI  C31221266   4.729   3.529   9.438 -0.9604 -0.3488  0.7094
  185SAPI  H12X21267   4.649   3.570   9.373  1.1701  0.1658 -1.6769
  185SAPI  H12Y21268   4.699   3.489   9.537 -0.1874  0.0295  1.1030
  185SAPI  C31321269   4.805   3.421   9.356  0.1379  0.5814 -0.0994
  185SAPI  H13X21270   4.739   3.331   9.362  0.9451 -0.0461 -0.4787
  185SAPI  H13Y21271   4.906   3.403   9.398 -0.2804 -2.8534 -0.3556
  185SAPI  C31421272   4.819   3.464   9.212 -0.1302 -0.0994  0.5590
  185SAPI  H14X21273   4.895   3.544   9.197  1.7210 -1.9738 -0.3525
  185SAPI  H14Y21274   4.719   3.507   9.191 -0.7846 -0.7056  2.3260
  185SAPI  C31521275   4.846   3.352   9.114 -0.2076  0.0215 -0.8250
  185SAPI  H15X21276   4.954   3.325   9.118 -0.5557 -1.1694  0.9067
  185SAPI  H15Y21277   4.805   3.372   9.013 -2.7808 -0.5690  0.0616
  185SAPI  C31621278   4.793   3.215   9.147  0.0869 -0.2635  0.3336
  185SAPI  H16X21279   4.687   3.226   9.177 -0.4695  1.7507 -2.2145
  185SAPI  H16Y21280   4.852   3.172   9.231  0.7668  0.4418  0.2175
  185SAPI  C31721281   4.789   3.120   9.024 -0.4579  0.4737 -0.4418
  185SAPI  H17X21282   4.737   3.179   8.946 -0.1525 -0.3486 -1.2721
  185SAPI  H17Y21283   4.734   3.025   9.035 -1.4554  0.9999 -0.8960
  185SAPI  C31821284   4.933   3.090   8.981  0.1043 -0.1931  0.5891
  185SAPI  H18X21285   4.938   3.048   8.878 -0.0332 -2.4580  1.4686
  185SAPI  H18Y21286   4.985   3.020   9.050 -1.2043  0.3895  2.1951
  185SAPI  H18Z21287   4.987   3.186   8.971 -2.2749  1.2852  1.3520
  186SAPI   C1221288   4.849   1.584  10.876 -0.5010 -0.5597 -0.1353
  186SAPI    H221289   4.855   1.473  10.879 -1.2210 -0.6069 -0.2734
  186SAPI    O221290   4.765   1.617  10.776 -0.1818  0.2721  0.1558
  186SAPI   HO221291   4.768   1.548  10.709 -0.1256  0.1502  0.2840
  186SAPI   C1321292   4.806   1.639  11.011 -0.2144 -0.0041  0.1531
  186SAPI    H321293   4.866   1.594  11.093 -0.2533  0.0757  0.2246
  186SAPI    O321294   4.673   1.607  11.048  0.3880 -0.0900  0.6939
  186SAPI   HO321295   4.668   1.511  11.040  4.4590 -0.2438 -1.5414
  186SAPI   C1421296   4.814   1.791  11.012 -0.5220  1.1554 -0.0088
  186SAPI    H421297   4.748   1.826  10.930  0.4601  1.2993 -0.7564
  186SAPI    O421298   4.762   1.864  11.124  0.1623 -0.4669 -0.6244
  186SAPI   HO421299   4.820   1.838  11.197  1.1819  1.3974 -0.7112
  186SAPI   C1521300   4.955   1.839  10.974  0.3800  0.3259  0.7339
  186SAPI    H521301   5.024   1.804  11.053  1.9130 -0.0189 -0.7124
  186SAPI    O521302   4.976   1.980  10.984 -0.0301 -0.1987  0.1393
  186SAPI   HO521303   4.975   2.003  11.077 -1.1221  0.9906 -0.1436
  186SAPI   C1621304   4.999   1.783  10.839  0.1196 -0.1618 -0.1465
  186SAPI    H621305   4.918   1.816  10.770 -0.8297  0.7225  1.3677
  186SAPI    O621306   5.126   1.829  10.801  0.1478 -0.3645  0.0038
  186SAPI   HO621307   5.166   1.763  10.744  2.2287  0.9452 -0.0885
  186SAPI   C1121308   4.992   1.632  10.851 -0.1482  0.4325 -0.8585
  186SAPI    H121309   5.051   1.608  10.942 -1.6298  2.3898  0.6666
  186SAPI     P21310   5.179   1.488  10.737 -0.3196 -0.0550  0.1978
  186SAPI   O1321311   5.187   1.415  10.607  0.3094  0.5630  0.0874
  186SAPI   O1421312   5.201   1.412  10.858 -0.0267 -0.2911 -0.0447
  186SAPI   O1221313   5.030   1.563  10.738  0.3299  0.6974 -0.5360
  186SAPI   O1121314   5.274   1.615  10.746 -0.7823 -0.5709  0.4960
  186SAPI    C121315   5.402   1.603  10.673 -0.2356  0.4098 -0.0024
  186SAPI    HA21316   5.482   1.571  10.743 -1.5053 -0.0052  1.2836
  186SAPI    HB21317   5.409   1.528  10.591  0.1358  2.5108 -1.9550
  186SAPI    C221318   5.436   1.734  10.590  0.5423  0.4315 -0.2678
  186SAPI    HS21319   5.447   1.807  10.673 -0.2530  2.0098 -1.5339
  186SAPI   O2121320   5.324   1.775  10.514  0.5695  0.4576 -0.0809
  186SAPI   C2121321   5.316   1.902  10.491 -0.2085 -0.2302  0.1678
  186SAPI   O2221322   5.402   1.985  10.526 -0.2441 -0.3734  0.2071
  186SAPI   C2221323   5.193   1.928  10.410 -0.0910 -0.1211  0.8605
  186SAPI   H2R21324   5.184   1.854  10.328  0.9938  1.0696 -0.3697
  186SAPI   H2S21325   5.103   1.912  10.473 -0.7453  4.7703  1.4002
  186SAPI    C321326   5.576   1.711  10.514  0.1676  0.3983 -0.3800
  186SAPI    HX21327   5.645   1.665  10.588  0.1059  2.0408  0.7338
  186SAPI    HY21328   5.613   1.814  10.492  1.5560 -0.3702 -1.8057
  186SAPI   O3121329   5.575   1.639  10.386 -0.3134  0.3283  0.2447
  186SAPI   C3121330   5.683   1.649  10.316  0.3324 -0.4429 -0.3566
  186SAPI   O3221331   5.789   1.699  10.354  0.0690 -0.4006  0.3643
  186SAPI   C3221332   5.656   1.562  10.193 -0.2742 -0.1837  0.2694
  186SAPI   H2X21333   5.575   1.613  10.137  0.2887  0.1655 -0.2269
  186SAPI   H2Y21334   5.629   1.456  10.215  2.9889 -0.7592  1.7348
  186SAPI   C2321335   5.196   2.073  10.355  0.8773  0.5565 -0.1660
  186SAPI   H3R21336   5.286   2.095  10.294  0.3874 -1.2965 -1.6073
  186SAPI   H3S21337   5.159   2.149  10.428 -1.1396  0.0196 -0.5874
  186SAPI   C2421338   5.087   2.077  10.248 -0.1065 -0.3540 -0.0210
  186SAPI   H4R21339   4.997   2.061  10.311  0.3779 -0.1315  0.7329
  186SAPI   H4S21340   5.101   1.994  10.176  1.4832  0.1793 -0.3368
  186SAPI   C2521341   5.066   2.208  10.173  0.4439 -0.2816  0.8727
  186SAPI   H5R21342   5.067   2.300  10.233  0.8214 -0.6917  1.4925
  186SAPI   C2621343   5.062   2.218  10.040  0.5175  0.0941 -0.7438
  186SAPI   H6R21344   5.019   2.309   9.994  0.9554  0.1053 -1.1317
  186SAPI   C2721345   5.066   2.111   9.933  0.4981 -0.5082 -0.1319
  186SAPI   H7R21346   4.962   2.076   9.912 -0.1892  1.2938  0.1318
  186SAPI   H7S21347   5.113   2.018   9.971  1.5193  0.4091  0.8680
  186SAPI   C2821348   5.151   2.153   9.815  0.4233  0.9933  0.4567
  186SAPI   H8R21349   5.253   2.184   9.843  0.5140 -1.1113  2.5384
  186SAPI   C2921350   5.107   2.165   9.687 -0.3345  0.0004 -0.6299
  186SAPI   H9R21351   5.175   2.199   9.607  1.0280 -1.8302 -0.2756
  186SAPI  C21021352   4.970   2.119   9.635  0.0952  0.0149 -0.2571
  186SAPI  H10R21353   4.899   2.122   9.720 -0.2600 -0.3990 -0.5389
  186SAPI  H10S21354   4.981   2.015   9.597  0.6217  0.0437 -0.1976
  186SAPI  C21121355   4.920   2.194   9.514 -0.3705  0.8994  0.4213
  186SAPI  H11R21356   4.831   2.252   9.544 -1.0625  0.4466 -0.7075
  186SAPI  C21221357   4.957   2.198   9.384  0.8006 -0.5188 -0.1076
  186SAPI  H12R21358   4.897   2.251   9.309 -0.6353 -0.8478  0.7990
  186SAPI  C21321359   5.073   2.129   9.324 -0.4339  0.4815  0.3892
  186SAPI  H13R21360   5.039   2.066   9.239 -0.4556  1.6468 -0.4908
  186SAPI  H13S21361   5.121   2.068   9.403  1.3967  1.1241 -0.2070
  186SAPI  C21421362   5.170   2.236   9.284  0.3888  0.7189 -0.4443
  186SAPI  H14R21363   5.172   2.328   9.344 -2.1027  2.9322 -3.5160
  186SAPI  C21521364   5.252   2.231   9.174 -0.0216  0.1690 -0.5092
  186SAPI  H15R21365   5.333   2.305   9.163  0.4897 -0.3013  0.0963
  186SAPI  C21621366   5.264   2.114   9.074 -0.2753  0.1640  0.1373
  186SAPI  H16R21367   5.229   2.018   9.118 -0.1337  0.9852  2.0754
  186SAPI  H16S21368   5.372   2.097   9.054 -0.4820 -2.2022  0.8231
  186SAPI  C21721369   5.188   2.141   8.940  0.7797 -0.2121 -0.0733
  186SAPI  H17R21370   5.222   2.067   8.864 -0.3609 -3.2881  2.3020
  186SAPI  H17S21371   5.232   2.235   8.901  2.2748 -0.2338  1.5079
  186SAPI  C21821372   5.035   2.137   8.941 -0.2476  0.2749 -1.0252
  186SAPI  H18R21373   4.996   2.209   9.017  1.6863 -1.0021  1.2405
  186SAPI  H18S21374   5.007   2.034   8.970  1.3692 -0.2871 -1.3964
  186SAPI  C21921375   4.962   2.172   8.813 -0.6114 -0.1944 -0.2128
  186SAPI  H19R21376   4.853   2.163   8.828 -0.4586 -1.5669  0.1632
  186SAPI  H19S21377   4.988   2.112   8.723 -0.6121 -0.3560 -0.1071
  186SAPI  C22021378   4.983   2.325   8.772  0.0185  0.0635 -0.4742
  186SAPI  H20R21379   4.923   2.363   8.687  0.3129 -1.9374 -1.5982
  186SAPI  H20S21380   5.091   2.342   8.751 -0.2992  0.4238 -1.8755
  186SAPI  H20T21381   4.963   2.392   8.859 -2.0308 -1.7294  0.4896
  186SAPI   C3321382   5.782   1.546  10.105  0.4545  0.4575 -0.5065
  186SAPI   H3X21383   5.862   1.478  10.141  2.3387  1.6825 -2.2720
  186SAPI   H3Y21384   5.829   1.647  10.108  1.9375 -0.1817 -1.4264
  186SAPI   C3421385   5.750   1.509   9.964  0.3864  0.1320  0.6613
  186SAPI   H4X21386   5.652   1.546   9.927  2.2326  3.0367 -1.6095
  186SAPI   H4Y21387   5.736   1.400   9.973  1.0002  0.1586  2.0236
  186SAPI   C3521388   5.859   1.559   9.874  0.4197 -0.1671  0.0172
  186SAPI   H5X21389   5.958   1.538   9.921  0.9078  0.2559 -0.8199
  186SAPI   H5Y21390   5.861   1.670   9.878 -2.0729 -0.1297  1.2850
  186SAPI   C3621391   5.851   1.507   9.722 -0.4783  0.5978 -0.6837
  186SAPI   H6X21392   5.847   1.398   9.745 -0.3647  0.8576  0.5824
  186SAPI   H6Y21393   5.946   1.535   9.672  0.3092  1.4170  1.2340
  186SAPI   C3721394   5.725   1.548   9.644 -0.2904  0.3829 -0.2471
  186SAPI   H7X21395   5.719   1.658   9.656 -2.3141  0.2134  0.5027
  186SAPI   H7Y21396   5.633   1.503   9.687  0.4891 -0.3452  0.6813
  186SAPI   C3821397   5.727   1.510   9.500 -0.2908  0.1010  0.1920
  186SAPI   H8X21398   5.711   1.400   9.491 -0.5595  0.3035 -2.2608
  186SAPI   H8Y21399   5.831   1.525   9.466 -0.2924  1.5245  0.7804
  186SAPI   C3921400   5.630   1.580   9.405 -0.4370  0.4059 -0.6371
  186SAPI   H9X21401   5.624   1.689   9.425 -0.3655  0.3301 -0.2090
  186SAPI   H9Y21402   5.528   1.546   9.433 -0.4897  0.6868 -0.4954
  186SAPI  C31021403   5.668   1.550   9.253 -0.1455 -0.1284 -0.2190
  186SAPI  H10X21404   5.658   1.441   9.234  1.6467 -0.3372 -0.0220
  186SAPI  H10Y21405   5.776   1.573   9.242 -0.8132  2.4693 -1.7534
  186SAPI  C31121406   5.589   1.641   9.156  0.2576 -0.1025  0.1352
  186SAPI  H11X21407   5.626   1.746   9.168 -0.2144  0.0353  0.4050
  186SAPI  H11Y21408   5.481   1.637   9.181  0.3604  0.4032  0.6866
  186SAPI  C31221409   5.602   1.588   9.010 -0.0470  0.5138  0.1270
  186SAPI  H12X21410   5.550   1.491   8.998 -0.8100  0.8777  0.4468
  186SAPI  H12Y21411   5.711   1.582   8.991 -0.3159  0.7717 -1.5411
  186SAPI  C31321412   5.555   1.689   8.896  0.3728  0.4914  0.0881
  186SAPI  H13X21413   5.600   1.657   8.800  0.4325  0.2291  0.2035
  186SAPI  H13Y21414   5.604   1.787   8.917  1.2887  0.2569 -0.9226
  186SAPI  C31421415   5.404   1.689   8.875 -0.4743 -0.2632 -0.5765
  186SAPI  H14X21416   5.357   1.729   8.967  1.0744 -0.1241  0.1636
  186SAPI  H14Y21417   5.378   1.581   8.874 -0.4977 -0.2556 -1.3854
  186SAPI  C31521418   5.351   1.764   8.752 -0.3753 -0.1127  0.7514
  186SAPI  H15X21419   5.392   1.867   8.754 -0.6107  0.0283 -1.2876
  186SAPI  H15Y21420   5.240   1.770   8.757 -0.2333  3.2166  1.0026
  186SAPI  C31621421   5.391   1.697   8.620 -0.2551  0.1566  0.0752
  186SAPI  H16X21422   5.497   1.663   8.617 -0.0247  0.9184 -1.4402
  186SAPI  H16Y21423   5.391   1.770   8.535  1.2511 -1.3280 -1.2288
  186SAPI  C31721424   5.303   1.585   8.577  0.1602  0.1240 -0.1984
  186SAPI  H17X21425   5.276   1.519   8.662  0.0598 -0.5942 -0.7829
  186SAPI  H17Y21426   5.376   1.522   8.522  0.3759 -0.7232  1.0278
  186SAPI  C31821427   5.197   1.629   8.482 -0.1976 -0.4473  0.0509
  186SAPI  H18X21428   5.159   1.725   8.521  0.4333 -0.4264  0.6205
  186SAPI  H18Y21429   5.116   1.554   8.485  0.2621 -0.9221  0.7634
  186SAPI  H18Z21430   5.245   1.637   8.382 -0.6240 -0.3424 -0.1460
  187SAPI   C1221431   1.917   2.757   6.212 -0.5706  0.5592 -0.5624
  187SAPI    H221432   1.822   2.764   6.268 -1.0512 -0.1886 -1.2683
  187SAPI    O221433   1.918   2.653   6.112 -0.4671 -0.7873 -0.3691
  187SAPI   HO221434   1.941   2.566   6.146 -3.2061 -0.6217  2.0871
  187SAPI   C1321435   1.924   2.893   6.142 -0.2050 -0.4539  0.6678
  187SAPI    H321436   1.936   2.969   6.222 -1.0955 -1.4569  1.7584
  187SAPI    O321437   1.802   2.930   6.073 -0.2616  0.2479 -0.4073
  187SAPI   HO321438   1.809   2.880   5.991  0.5155  0.4064 -0.4494
  187SAPI   C1421439   2.044   2.917   6.052 -1.0106 -0.0792  0.4992
  187SAPI    H421440   2.045   2.845   5.967 -0.4337 -0.4680  0.8229
  187SAPI    O421441   2.031   3.043   5.992 -0.2756  0.0951  0.0244
  187SAPI   HO421442   2.091   3.050   5.917  0.4047  0.0051  0.5589
  187SAPI   C1521443   2.167   2.915   6.140 -0.2231  0.3013  0.3391
  187SAPI    H521444   2.154   3.006   6.202  0.3953  2.3249 -2.4185
  187SAPI    O521445   2.278   2.944   6.062  0.4611  0.7025 -0.3390
  187SAPI   HO521446   2.343   2.977   6.125  2.6260 -2.7362 -0.5811
  187SAPI   C1621447   2.168   2.786   6.222 -0.2579 -0.2077  0.1492
  187SAPI    H621448   2.183   2.692   6.164 -1.4335 -0.8163  0.8006
  187SAPI    O621449   2.279   2.802   6.308 -0.2110  0.7780 -0.6781
  187SAPI   HO621450   2.280   2.886   6.354  2.2323  1.1247 -1.2583
  187SAPI   C1121451   2.039   2.758   6.306 -0.0769 -0.0205  0.4248
  187SAPI    H121452   2.025   2.844   6.376 -0.0206  0.4533 -0.1449
  187SAPI     P21453   1.957   2.593   6.499 -0.2674  0.3089 -0.1685
  187SAPI   O1321454   2.001   2.469   6.567  0.0906 -0.9914  0.3285
  187SAPI   O1421455   1.824   2.576   6.435 -0.5149  0.5609  0.4401
  187SAPI   O1221456   2.064   2.633   6.371 -0.3018  0.3492  0.3075
  187SAPI   O1121457   1.960   2.715   6.593  0.3992  0.1983 -0.9365
  187SAPI    C121458   2.084   2.772   6.638 -0.7050  0.5389  0.0804
  187SAPI    HA21459   2.167   2.721   6.584 -0.6163  0.5852  0.1745
  187SAPI    HB21460   2.089   2.882   6.621 -0.2741  0.4455 -0.4429
  187SAPI    C221461   2.086   2.755   6.790  0.5921 -0.6265 -0.2509
  187SAPI    HS21462   2.074   2.647   6.810  3.5032 -1.1217 -1.0022
  187SAPI   O2121463   1.999   2.845   6.855  0.5925 -0.3170 -0.0352
  187SAPI   C2121464   1.914   2.784   6.933  0.1653  0.4731  0.1456
  187SAPI   O2221465   1.909   2.659   6.948 -0.3343  0.1849 -0.5008
  187SAPI   C2221466   1.815   2.882   6.994  0.0299 -0.4523  0.2203
  187SAPI   H2R21467   1.852   2.985   6.977  1.1630 -0.5089  2.2088
  187SAPI   H2S21468   1.714   2.860   6.953 -0.6398 -0.3581  1.7894
  187SAPI    C321469   2.227   2.781   6.853  0.7489  0.2049  0.0215
  187SAPI    HX21470   2.248   2.890   6.840 -0.5752  0.2747 -1.6506
  187SAPI    HY21471   2.295   2.712   6.799 -0.3665 -0.8745 -0.0308
  187SAPI   O3121472   2.220   2.752   6.997 -0.3713 -0.3514 -1.2119
  187SAPI   C3121473   2.335   2.748   7.062  0.3703 -0.9746 -0.7583
  187SAPI   O3221474   2.443   2.777   7.012 -0.8011 -0.0795  0.6719
  187SAPI   C3221475   2.315   2.685   7.204 -0.5125  0.3002  0.2052
  187SAPI   H2X21476   2.285   2.581   7.178  1.4982 -0.3995  0.6026
  187SAPI   H2Y21477   2.224   2.721   7.256 -0.8228 -0.0255 -0.1040
  187SAPI   C2321478   1.798   2.875   7.143  0.3066 -0.7072  0.0145
  187SAPI   H3R21479   1.902   2.869   7.181 -0.1963 -4.9118  0.9654
  187SAPI   H3S21480   1.749   2.780   7.172 -0.9833  0.0559  0.3638
  187SAPI   C2421481   1.744   3.006   7.203 -0.7146 -0.3945 -0.5456
  187SAPI   H4R21482   1.653   3.044   7.151  0.3591  0.6675 -1.6915
  187SAPI   H4S21483   1.822   3.084   7.195  0.0731 -1.1891 -0.7378
  187SAPI   C2521484   1.711   2.981   7.349  0.4687  0.6185 -0.3862
  187SAPI   H5R21485   1.750   2.888   7.393  0.3465  0.8033  0.1194
  187SAPI   C2621486   1.669   3.068   7.439 -0.5817 -0.8901  0.4417
  187SAPI   H6R21487   1.660   3.037   7.544 -0.1658  1.2739  1.1465
  187SAPI   C2721488   1.635   3.215   7.419 -0.4538  0.3565  0.4187
  187SAPI   H7R21489   1.707   3.271   7.355  1.7149 -3.3609 -0.5143
  187SAPI   H7S21490   1.642   3.265   7.518  1.0443  0.1561  0.4317
  187SAPI   C2821491   1.486   3.221   7.373 -0.8179 -0.0181  0.2378
  187SAPI   H8R21492   1.476   3.191   7.268 -0.3148 -1.5139  0.6094
  187SAPI   C2921493   1.378   3.227   7.452 -0.2331 -0.2771  0.0102
  187SAPI   H9R21494   1.283   3.246   7.400  0.5014  1.1806 -0.8242
  187SAPI  C21021495   1.383   3.233   7.597 -0.5492 -0.0893 -0.7588
  187SAPI  H10R21496   1.470   3.291   7.634  1.4223 -2.1762 -1.9710
  187SAPI  H10S21497   1.413   3.131   7.627  1.5574  0.9969  0.9569
  187SAPI  C21121498   1.248   3.264   7.655  0.0628  0.5388  0.8223
  187SAPI  H11R21499   1.188   3.340   7.603 -0.9799 -0.2614  0.8588
  187SAPI  C21221500   1.182   3.187   7.746 -0.0001  0.8064 -0.0128
  187SAPI  H12R21501   1.090   3.225   7.794 -0.0086 -0.3529  0.9259
  187SAPI  C21321502   1.233   3.051   7.800 -0.1974 -0.0906 -0.4153
  187SAPI  H13R21503   1.337   3.054   7.838 -1.0370 -0.6929  2.0193
  187SAPI  H13S21504   1.239   2.992   7.707  0.9702 -0.0795 -0.3553
  187SAPI  C21421505   1.144   2.970   7.890  0.0918  0.3178  0.1746
  187SAPI  H14R21506   1.137   2.864   7.862  0.1680  0.5287 -0.6668
  187SAPI  C21521507   1.077   3.014   8.000 -0.7991 -0.4255 -0.9601
  187SAPI  H15R21508   1.020   2.937   8.054 -0.7748  0.4498  0.3462
  187SAPI  C21621509   1.083   3.152   8.065 -0.0549  0.5696  0.2783
  187SAPI  H16R21510   0.991   3.213   8.049 -1.1592 -0.9984  0.5312
  187SAPI  H16S21511   1.170   3.209   8.025 -0.2744  0.0851 -0.9132
  187SAPI  C21721512   1.102   3.146   8.221  0.2861 -0.5929  0.8824
  187SAPI  H17R21513   1.005   3.124   8.269 -0.5377  0.5176 -0.2285
  187SAPI  H17S21514   1.126   3.252   8.245 -5.3579  1.1148 -0.3120
  187SAPI  C21821515   1.213   3.050   8.259  0.2948 -0.5337 -0.4269
  187SAPI  H18R21516   1.300   3.069   8.193  0.8874 -0.2590  0.4275
  187SAPI  H18S21517   1.170   2.949   8.244  0.1074  0.0973 -4.5595
  187SAPI  C21921518   1.258   3.078   8.402 -0.3295 -0.3668  0.5947
  187SAPI  H19R21519   1.276   3.188   8.400 -3.9148  0.3262  1.5873
  187SAPI  H19S21520   1.348   3.016   8.418 -1.2653 -1.5683  1.2639
  187SAPI  C22021521   1.152   3.051   8.518  0.3997  0.3755  0.2184
  187SAPI  H20R21522   1.193   3.091   8.612  2.0999 -1.8144  0.4464
  187SAPI  H20S21523   1.129   2.943   8.531 -0.2457  0.4042 -0.6244
  187SAPI  H20T21524   1.055   3.104   8.507 -0.6336 -1.1329  1.7850
  187SAPI   C3321525   2.429   2.692   7.311  0.2167 -0.5164 -0.4617
  187SAPI   H3X21526   2.465   2.795   7.328  1.4320 -0.8529 -0.9214
  187SAPI   H3Y21527   2.519   2.631   7.287  0.9045  0.6998 -1.0267
  187SAPI   C3421528   2.400   2.627   7.449  0.1542 -0.0194 -0.6063
  187SAPI   H4X21529   2.497   2.629   7.503  0.6822  1.0199 -1.5647
  187SAPI   H4Y21530   2.355   2.526   7.439  0.2095  0.0237 -1.3818
  187SAPI   C3521531   2.303   2.718   7.528 -0.0373  0.5297  0.6060
  187SAPI   H5X21532   2.224   2.713   7.450  0.2218 -4.1488  0.5106
  187SAPI   H5Y21533   2.339   2.820   7.552  1.9535 -0.3445  1.4628
  187SAPI   C3621534   2.255   2.643   7.650 -0.4433 -0.4512 -0.4635
  187SAPI   H6X21535   2.336   2.623   7.723  1.2563  1.0828 -1.8856
  187SAPI   H6Y21536   2.221   2.541   7.619 -2.0702 -0.0575 -0.0087
  187SAPI   C3721537   2.133   2.705   7.719 -0.3822  0.4371 -0.1568
  187SAPI   H7X21538   2.178   2.801   7.753  0.3124 -0.0840  0.4178
  187SAPI   H7Y21539   2.124   2.653   7.817 -0.2495 -1.2552 -1.0106
  187SAPI   C3821540   1.998   2.694   7.637  0.2848 -0.9797  0.0997
  187SAPI   H8X21541   1.990   2.778   7.564 -1.1691 -2.3396 -1.3368
  187SAPI   H8Y21542   1.921   2.726   7.711  1.5209 -0.2590  1.1197
  187SAPI   C3921543   1.972   2.566   7.560  0.1405 -0.7673  0.1869
  187SAPI   H9X21544   1.972   2.481   7.632  0.4131 -1.5543 -0.7374
  187SAPI   H9Y21545   2.044   2.546   7.479 -1.7689 -0.4291 -1.6454
  187SAPI  C31021546   1.830   2.564   7.495 -0.5502 -0.9910 -0.0241
  187SAPI  H10X21547   1.812   2.650   7.427 -1.4229 -1.5986 -0.5658
  187SAPI  H10Y21548   1.748   2.585   7.568  0.2102 -1.4998  0.9906
  187SAPI  C31121549   1.824   2.431   7.420 -0.1924  0.1903  0.0242
  187SAPI  H11X21550   1.917   2.375   7.443 -0.0819  1.1274  1.9479
  187SAPI  H11Y21551   1.825   2.464   7.314  1.5970  0.8877  0.2512
  187SAPI  C31221552   1.692   2.359   7.455 -0.8223  0.5355 -0.0457
  187SAPI  H12X21553   1.662   2.303   7.365  0.6896  0.9737 -0.8394
  187SAPI  H12Y21554   1.610   2.434   7.456 -0.0943  1.4032 -2.5848
  187SAPI  C31321555   1.694   2.258   7.575 -0.4782  0.8894 -0.0309
  187SAPI  H13X21556   1.792   2.208   7.558 -0.4686  0.9264 -0.0850
  187SAPI  H13Y21557   1.605   2.195   7.553  0.1033 -0.2110  0.7153
  187SAPI  C31421558   1.673   2.337   7.707 -0.6259 -0.1916 -0.0194
  187SAPI  H14X21559   1.595   2.411   7.682 -0.8548  0.2748  1.9912
  187SAPI  H14Y21560   1.763   2.395   7.739 -1.1278  0.2924  0.5234
  187SAPI  C31521561   1.621   2.256   7.826 -0.0566 -0.5494 -0.1957
  187SAPI  H15X21562   1.526   2.206   7.798 -0.4454  0.3288 -0.4820
  187SAPI  H15Y21563   1.604   2.318   7.917  0.2649 -1.7747  0.7093
  187SAPI  C31621564   1.717   2.142   7.862 -0.0825  0.5416 -0.3301
  187SAPI  H16X21565   1.738   2.077   7.774  0.0973  1.3497 -0.8947
  187SAPI  H16Y21566   1.675   2.074   7.938 -2.8586  2.8203  0.2563
  187SAPI  C31721567   1.852   2.189   7.920  0.5412 -0.1356 -0.8308
  187SAPI  H17X21568   1.917   2.235   7.843  1.5849  3.4637  2.0458
  187SAPI  H17Y21569   1.892   2.089   7.948 -2.0419 -1.0232 -0.1348
  187SAPI  C31821570   1.849   2.293   8.039 -0.3183  0.2638 -0.6905
  187SAPI  H18X21571   1.762   2.283   8.108 -1.5826  1.8461 -2.0418
  187SAPI  H18Y21572   1.850   2.392   7.990 -2.3912  0.1408 -1.0034
  187SAPI  H18Z21573   1.937   2.280   8.106 -2.2717  0.0004  1.9315
  188SAPI   C1221574   3.465   6.126   6.393 -0.3230 -0.2277  0.2774
  188SAPI    H221575   3.433   6.100   6.496 -0.3666  1.4632  0.7110
  188SAPI    O221576   3.351   6.124   6.309  0.3910 -0.3618 -0.1591
  188SAPI   HO221577   3.315   6.035   6.314  1.2903 -0.7528 -0.5243
  188SAPI   C1321578   3.541   6.258   6.402 -0.2650 -0.9991  0.1153
  188SAPI    H321579   3.620   6.254   6.479  0.6003  0.5418 -0.6643
  188SAPI    O321580   3.453   6.361   6.447  0.1387  0.0819  0.2812
  188SAPI   HO321581   3.394   6.390   6.377  0.6319 -2.0210 -1.0482
  188SAPI   C1421582   3.594   6.290   6.264  0.1793  0.2756  0.0877
  188SAPI    H421583   3.506   6.297   6.197 -1.1363 -1.3311  1.5858
  188SAPI    O421584   3.656   6.420   6.260  0.5376 -0.1516 -0.4882
  188SAPI   HO421585   3.585   6.481   6.239  1.1570  0.2107 -1.5771
  188SAPI   C1521586   3.681   6.181   6.204 -0.8097 -0.0605  0.0574
  188SAPI    H521587   3.778   6.187   6.257 -0.6254  2.3424 -0.5024
  188SAPI    O521588   3.721   6.210   6.067  0.0262 -0.2713  0.1788
  188SAPI   HO521589   3.761   6.297   6.067 -0.6247  0.1422 -4.0706
  188SAPI   C1621590   3.610   6.049   6.202  0.0562  0.4367 -0.2645
  188SAPI    H621591   3.524   6.043   6.132 -0.9373  3.3424  0.6497
  188SAPI    O621592   3.692   5.944   6.152  0.1431 -0.3809 -0.6386
  188SAPI   HO621593   3.745   5.908   6.223 -0.5495 -0.0764  0.0475
  188SAPI   C1121594   3.562   6.012   6.347 -0.6675 -0.5656  0.0795
  188SAPI    H121595   3.650   6.018   6.414 -2.4064  1.1867  2.3063
  188SAPI     P21596   3.568   5.764   6.459 -0.5982  0.0613 -0.4332
  188SAPI   O1321597   3.713   5.759   6.440  0.4967  0.0756  0.1636
  188SAPI   O1421598   3.512   5.633   6.432  0.2507 -0.1706  0.1277
  188SAPI   O1221599   3.500   5.884   6.366 -0.4981  0.1422  0.2352
  188SAPI   O1121600   3.534   5.805   6.608  0.2406 -0.2264  0.6350
  188SAPI    C121601   3.583   5.715   6.707 -0.0575 -0.4168  0.2787
  188SAPI    HA21602   3.571   5.606   6.688 -3.0792 -0.0819  0.0505
  188SAPI    HB21603   3.693   5.727   6.722  0.1767  0.2877 -1.8540
  188SAPI    C221604   3.510   5.734   6.846  0.2522  0.3844  0.2096
  188SAPI    HS21605   3.400   5.738   6.832  0.3174  1.0677 -0.1541
  188SAPI   O2121606   3.569   5.852   6.910 -0.2160  0.0097  0.9999
  188SAPI   C2121607   3.480   5.922   6.978  0.1301  0.1429  0.1376
  188SAPI   O2221608   3.357   5.925   6.972 -0.2160 -0.0261 -0.4045
  188SAPI   C2221609   3.559   6.033   7.058 -0.1907 -0.1956 -0.5810
  188SAPI   H2R21610   3.648   5.982   7.100 -0.3328  0.2614  0.2781
  188SAPI   H2S21611   3.592   6.116   6.991  0.6824  1.7770  2.1903
  188SAPI    C321612   3.541   5.617   6.945 -0.5138 -0.3217  0.0157
  188SAPI    HX21613   3.652   5.612   6.953 -0.4692  1.1351  0.3134
  188SAPI    HY21614   3.503   5.522   6.900 -1.3080  0.0829 -0.1669
  188SAPI   O3121615   3.487   5.622   7.083  0.1574  0.0180 -0.1564
  188SAPI   C3121616   3.354   5.585   7.097  0.3123  1.3097 -0.0461
  188SAPI   O3221617   3.287   5.554   7.002  0.2546 -0.1037  0.4341
  188SAPI   C3221618   3.307   5.593   7.242 -0.7601 -0.3122  0.0033
  188SAPI   H2X21619   3.213   5.536   7.252 -0.7628 -0.4763 -0.9231
  188SAPI   H2Y21620   3.289   5.701   7.257 -3.6385 -0.6102 -1.1108
  188SAPI   C2321621   3.479   6.091   7.178  0.0171 -0.1934  0.1230
  188SAPI   H3R21622   3.376   6.110   7.141  0.6687  0.9050 -1.1736
  188SAPI   H3S21623   3.528   6.182   7.218 -1.9840  0.3713  1.3271
  188SAPI   C2421624   3.467   5.998   7.295  0.6494  0.7864  0.1522
  188SAPI   H4R21625   3.438   5.895   7.267  1.4027  0.9684 -1.3704
  188SAPI   H4S21626   3.380   6.042   7.347  1.4452  2.3669  0.1809
  188SAPI   C2521627   3.585   6.005   7.389  0.6514  0.4950 -0.1295
  188SAPI   H5R21628   3.683   6.013   7.339 -0.4279  0.2822 -2.3542
  188SAPI   C2621629   3.573   5.997   7.523 -0.4395 -0.9020  0.1047
  188SAPI   H6R21630   3.661   6.014   7.586 -1.1488 -1.5785  1.2881
  188SAPI   C2721631   3.452   5.969   7.614 -0.5510  0.3045 -0.0056
  188SAPI   H7R21632   3.485   5.883   7.676  1.9244  1.8936  0.9794
  188SAPI   H7S21633   3.364   5.929   7.559 -0.8308 -0.2003  0.8023
  188SAPI   C2821634   3.392   6.073   7.696  0.5561  1.0673 -0.1513
  188SAPI   H8R21635   3.342   6.149   7.634 -0.0684  0.6882 -0.1139
  188SAPI   C2921636   3.396   6.062   7.833  0.4782  0.0461  0.1766
  188SAPI   H9R21637   3.344   6.148   7.879  1.4401  0.0510  1.2552
  188SAPI  C21021638   3.445   5.966   7.932  0.3641 -0.2485 -0.4285
  188SAPI  H10R21639   3.488   6.031   8.011 -2.2190 -0.1561  0.9777
  188SAPI  H10S21640   3.526   5.900   7.895 -1.2693 -1.3440 -2.1333
  188SAPI  C21121641   3.332   5.881   7.987 -0.1719 -0.0044  0.3934
  188SAPI  H11R21642   3.264   5.839   7.911 -0.4344  0.0693  0.5875
  188SAPI  C21221643   3.323   5.858   8.121  0.0936 -1.2425  0.4598
  188SAPI  H12R21644   3.229   5.815   8.156 -1.8870  0.4769 -2.5636
  188SAPI  C21321645   3.409   5.900   8.235  0.0705 -0.4036  0.5623
  188SAPI  H13R21646   3.511   5.926   8.199 -0.0296 -2.6338 -1.4367
  188SAPI  H13S21647   3.417   5.817   8.308  2.9400 -1.1944 -0.5828
  188SAPI  C21421648   3.344   6.019   8.302 -0.3660  0.0001 -0.5264
  188SAPI  H14R21649   3.341   6.110   8.241 -1.0216 -0.5650 -1.3651
  188SAPI  C21521650   3.282   6.024   8.424  0.3913 -0.3095  0.3220
  188SAPI  H15R21651   3.258   6.124   8.463  1.6107 -0.0908  0.5482
  188SAPI  C21621652   3.257   5.906   8.510 -0.3667  0.2433 -0.4310
  188SAPI  H16R21653   3.348   5.882   8.569 -0.3819 -2.4100 -1.4294
  188SAPI  H16S21654   3.230   5.818   8.448  2.5850  0.6457 -2.4299
  188SAPI  C21721655   3.139   5.930   8.611 -0.1312  0.6892  1.5513
  188SAPI  H17R21656   3.039   5.934   8.563  0.8621  1.0529 -0.5475
  188SAPI  H17S21657   3.147   6.029   8.660 -0.3934  0.7367  1.4984
  188SAPI  C21821658   3.153   5.822   8.715  0.1420  0.2608 -0.1049
  188SAPI  H18R21659   3.242   5.834   8.781  0.5177  0.1432 -0.5837
  188SAPI  H18S21660   3.163   5.721   8.669  1.0240  1.5232 -2.8099
  188SAPI  C21921661   3.039   5.804   8.818  1.0177 -0.3073  0.1746
  188SAPI  H19R21662   3.041   5.699   8.854 -2.3553 -0.4642  0.0857
  188SAPI  H19S21663   2.946   5.811   8.757  1.0936 -1.7243 -0.1162
  188SAPI  C22021664   3.037   5.904   8.932 -0.2979 -0.1514  0.4502
  188SAPI  H20R21665   3.139   5.902   8.976 -0.2817  0.6740  0.4612
  188SAPI  H20S21666   2.956   5.881   9.005 -2.5453 -0.2838 -1.9989
  188SAPI  H20T21667   3.016   6.004   8.888  1.6661 -0.7201 -1.8491
  188SAPI   C3321668   3.413   5.550   7.345  0.0965  0.0958 -0.1408
  188SAPI   H3X21669   3.514   5.585   7.314 -0.1916  1.2126  0.1586
  188SAPI   H3Y21670   3.402   5.440   7.355 -0.4439  0.1444 -0.2024
  188SAPI   C3421671   3.398   5.612   7.486  0.6220 -0.2501  0.1020
  188SAPI   H4X21672   3.290   5.622   7.511  1.5322  2.1864  3.4138
  188SAPI   H4Y21673   3.439   5.715   7.482 -0.4470  0.1246 -2.0772
  188SAPI   C3521674   3.479   5.527   7.581  0.4540 -0.3360 -0.8734
  188SAPI   H5X21675   3.586   5.518   7.553  1.1964 -1.3617  2.0463
  188SAPI   H5Y21676   3.435   5.425   7.587  0.8546 -0.4492  0.2748
  188SAPI   C3621677   3.486   5.592   7.715  0.1575  0.2478  0.0943
  188SAPI   H6X21678   3.387   5.620   7.757 -0.1129 -0.2118 -0.2246
  188SAPI   H6Y21679   3.540   5.688   7.722  2.0816 -0.5893 -2.3528
  188SAPI   C3721680   3.578   5.509   7.806  0.2995  0.3997 -0.0484
  188SAPI   H7X21681   3.680   5.499   7.761  0.0867  1.3802 -0.7580
  188SAPI   H7Y21682   3.536   5.407   7.820  0.4525  0.3511  0.0644
  188SAPI   C3821683   3.583   5.566   7.942  0.1811 -0.3933 -0.1345
  188SAPI   H8X21684   3.492   5.552   8.004  1.5761 -0.0895  2.0643
  188SAPI   H8Y21685   3.611   5.672   7.927 -2.0210  0.4689  1.5689
  188SAPI   C3921686   3.701   5.513   8.022 -0.6585 -0.6082  0.4344
  188SAPI   H9X21687   3.793   5.518   7.960 -0.7145  2.5222  0.5271
  188SAPI   H9Y21688   3.686   5.406   8.049 -0.6951 -0.4955  0.8575
  188SAPI  C31021689   3.714   5.584   8.159 -0.2293 -0.0451  0.3815
  188SAPI  H10X21690   3.722   5.692   8.138  0.6084 -0.0702  0.5441
  188SAPI  H10Y21691   3.803   5.534   8.204 -2.0855 -3.2578  0.6286
  188SAPI  C31121692   3.595   5.554   8.253 -0.3567 -0.4838  0.2994
  188SAPI  H11X21693   3.568   5.447   8.265 -2.9738  0.1584  0.5302
  188SAPI  H11Y21694   3.506   5.612   8.221  0.5245  1.2543  0.9073
  188SAPI  C31221695   3.634   5.621   8.390  1.0919 -0.3257  0.1085
  188SAPI  H12X21696   3.635   5.729   8.364 -1.1581 -0.4134 -0.4442
  188SAPI  H12Y21697   3.730   5.569   8.411  2.8466  1.7335 -2.5464
  188SAPI  C31321698   3.541   5.602   8.513 -0.2580 -0.0994  0.5097
  188SAPI  H13X21699   3.432   5.607   8.489  0.1095 -0.8964 -1.4618
  188SAPI  H13Y21700   3.565   5.695   8.568  0.4616  0.2224 -0.3284
  188SAPI  C31421701   3.586   5.490   8.609  0.1323 -0.0809  0.0206
  188SAPI  H14X21702   3.696   5.482   8.619  0.1102 -1.4828 -0.7881
  188SAPI  H14Y21703   3.553   5.396   8.561 -1.1034  1.0487 -1.4223
  188SAPI  C31521704   3.504   5.488   8.740  0.5488 -0.2632  0.1671
  188SAPI  H15X21705   3.540   5.393   8.784 -1.6097 -0.1122  2.4223
  188SAPI  H15Y21706   3.399   5.473   8.707  0.8939 -0.6310 -0.7953
  188SAPI  C31621707   3.524   5.593   8.850  0.9457 -0.2957  0.2215
  188SAPI  H16X21708   3.482   5.690   8.813  0.6263  0.0425  1.4417
  188SAPI  H16Y21709   3.631   5.606   8.878  1.0024  0.6413 -0.3917
  188SAPI  C31721710   3.438   5.553   8.972  0.2467  0.2646 -0.4027
  188SAPI  H17X21711   3.469   5.453   9.008  0.9588  1.6769  3.1926
  188SAPI  H17Y21712   3.331   5.552   8.943  0.2611  2.2357 -0.6019
  188SAPI  C31821713   3.457   5.637   9.090 -0.0727  0.7875 -0.3729
  188SAPI  H18X21714   3.545   5.621   9.157 -1.4582  4.8946  2.6843
  188SAPI  H18Y21715   3.370   5.629   9.159  0.5117 -3.0262 -0.0022
  188SAPI  H18Z21716   3.471   5.743   9.059 -1.6512  1.1100 -0.0188
  189POPC     N21717   3.263   0.363  11.358  0.6936  0.5225 -0.0068
  189POPC   C1221718   3.380   0.409  11.269  0.5690  0.0530  0.1189
  189POPC  H12A21719   3.459   0.337  11.281  0.6783  0.5581  2.6033
  189POPC  H12B21720   3.426   0.502  11.301 -0.2793  0.0556  1.3588
  189POPC   C1321721   3.305   0.355  11.499 -0.2623  0.9195 -0.8246
  189POPC  H13A21722   3.231   0.297  11.553  1.2975  1.3247  1.8171
  189POPC  H13B21723   3.401   0.308  11.508 -0.6422  0.5670  1.8239
  189POPC  H13C21724   3.306   0.454  11.543  0.2173  0.6642 -0.2578
  189POPC   C1421725   3.151   0.462  11.349 -1.3158  0.1323 -0.5848
  189POPC  H14A21726   3.171   0.557  11.395 -0.2363 -1.1913  1.7940
  189POPC  H14B21727   3.138   0.461  11.241 -2.3230 -0.8053 -0.4640
  189POPC  H14C21728   3.060   0.426  11.394 -1.5389  0.2474 -0.9352
  189POPC   C1521729   3.207   0.231  11.325  0.2352 -0.4157  0.4975
  189POPC  H15A21730   3.282   0.153  11.337  0.3679 -0.3626  0.0126
  189POPC  H15B21731   3.172   0.220  11.224  0.4467  0.7011  0.3076
  189POPC  H15C21732   3.124   0.200  11.388 -1.2410  2.5562  0.1092
  189POPC   C1121733   3.364   0.425  11.117  0.2059  0.1266 -0.3375
  189POPC  H11A21734   3.335   0.324  11.082 -3.1942  1.2528 -1.0454
  189POPC  H11B21735   3.460   0.457  11.072  0.6921  1.0599  1.3228
  189POPC     P21736   3.246   0.589  10.948 -0.2932  0.1954 -0.2712
  189POPC   O1321737   3.331   0.711  10.961  0.8178 -0.5060  0.1750
  189POPC   O1421738   3.105   0.606  10.910  0.0915 -0.3538  0.1920
  189POPC   O1221739   3.254   0.512  11.085  0.8128 -0.0659 -0.5930
  189POPC   O1121740   3.315   0.496  10.841  0.3686 -0.1257  0.3864
  189POPC    C121741   3.240   0.406  10.760 -0.5639 -0.3285 -0.0988
  189POPC    HA21742   3.153   0.364  10.815 -1.0870 -1.6317 -1.8813
  189POPC    HB21743   3.304   0.317  10.743 -3.0898 -2.7209  2.3262
  189POPC    C221744   3.202   0.465  10.621 -0.0478 -0.5120 -0.1836
  189POPC    HS21745   3.126   0.544  10.635 -0.0252 -0.1767 -1.8285
  189POPC   O2121746   3.151   0.348  10.531  0.4608 -0.2759 -0.3082
  189POPC   C2121747   3.096   0.382  10.417  0.5316 -0.4812  0.4497
  189POPC   O2221748   3.045   0.488  10.383  0.1625 -0.4502  0.3789
  189POPC   C2221749   3.080   0.250  10.336 -0.0669  0.1521  0.4216
  189POPC   H2R21750   2.983   0.199  10.356  0.0961 -0.1340  0.4830
  189POPC   H2S21751   3.156   0.180  10.376 -4.0743 -3.7194  1.7634
  189POPC    C321752   3.337   0.527  10.559 -0.3662 -0.2802 -0.0692
  189POPC    HX21753   3.419   0.463  10.597  0.7977  0.5629 -1.0739
  189POPC    HY21754   3.341   0.626  10.609 -0.2946 -0.4993  0.3599
  189POPC   O3121755   3.333   0.536  10.412  0.5006 -0.4699  0.0869
  189POPC   C3121756   3.400   0.642  10.362  0.5635  0.7345  1.3128
  189POPC   O3221757   3.452   0.734  10.420  0.0572 -0.2195  1.0009
  189POPC   C3221758   3.374   0.635  10.208 -0.7863 -0.3988 -0.2089
  189POPC   H2X21759   3.284   0.575  10.184 -2.0779  1.4035  0.0256
  189POPC   H2Y21760   3.467   0.590  10.168 -0.8786 -2.6911  2.0489
  189POPC   C2321761   3.111   0.262  10.188  0.2275  0.4596 -0.6024
  189POPC   H3R21762   3.149   0.165  10.150  1.8941  2.0298 -3.0902
  189POPC   H3S21763   3.189   0.340  10.172  0.2784  0.7815  1.1426
  189POPC   C2421764   2.995   0.303  10.103 -0.0288 -0.0885  0.8007
  189POPC   H4R21765   2.971   0.410  10.119 -0.3996  0.1723 -1.2747
  189POPC   H4S21766   2.905   0.241  10.123 -1.0351  1.3761  0.8205
  189POPC   C2521767   3.025   0.302   9.951 -0.3692 -0.2191 -0.3527
  189POPC   H5R21768   3.053   0.197   9.928  1.3778  0.3650 -1.0222
  189POPC   H5S21769   3.103   0.379   9.929 -0.7070 -0.5702 -2.9132
  189POPC   C2621770   2.896   0.339   9.872  0.1802  0.3618  0.2531
  189POPC   H6R21771   2.866   0.434   9.920 -2.4451 -0.3912  0.2190
  189POPC   H6S21772   2.822   0.256   9.881  0.4628  0.1423  0.5891
  189POPC   C2721773   2.923   0.336   9.721 -0.1312  0.3916 -0.2962
  189POPC   H7R21774   2.944   0.228   9.702  0.3690  0.2421  1.0583
  189POPC   H7S21775   3.018   0.391   9.705  2.0198 -2.7366  1.1453
  189POPC   C2821776   2.818   0.396   9.635 -0.1596 -0.1406  0.6625
  189POPC   H8R21777   2.795   0.491   9.687 -0.5891  0.5262 -0.7244
  189POPC   H8S21778   2.731   0.328   9.637 -0.4174  0.0979 -1.3701
  189POPC   C2921779   2.856   0.426   9.489  0.2175 -0.0252 -0.2655
  189POPC   H9121780   2.932   0.502   9.468 -0.0495  1.2699  3.0975
  189POPC  C21021781   2.812   0.354   9.384  1.0259  0.2807 -0.4431
  189POPC  H10121782   2.841   0.389   9.284  0.5503 -1.1672 -1.1036
  189POPC  C21121783   2.710   0.237   9.387 -0.5682 -0.0102  0.2811
  189POPC  H11R21784   2.635   0.282   9.319  0.0717 -2.2119 -1.9398
  189POPC  H11S21785   2.656   0.218   9.482  0.1402 -1.8195  0.3458
  189POPC  C21221786   2.746   0.105   9.317  0.3017 -0.2549  1.0040
  189POPC  H12R21787   2.773   0.133   9.213 -0.1121 -0.7166  0.7648
  189POPC  H12S21788   2.656   0.040   9.318 -0.4056  0.7309  2.4591
  189POPC  C21321789   2.868   0.043   9.381 -0.0156  0.2201  0.1572
  189POPC  H13R21790   2.836   0.010   9.482 -1.7004  0.2313 -0.3600
  189POPC  H13S21791   2.957   0.108   9.396 -0.1919  0.8835 -1.6366
  189POPC  C21421792   2.911  -0.079   9.292 -0.2566 -0.1547  0.0624
  189POPC  H14R21793   2.941  -0.049   9.190  0.1078 -1.5783 -0.2456
  189POPC  H14S21794   2.833  -0.157   9.301  0.2548 -0.5938  0.7283
  189POPC  C21521795   3.028  -0.157   9.355  0.6224  0.1939 -0.1668
  189POPC  H15R21796   3.112  -0.087   9.341 -0.6049  2.3117  2.6866
  189POPC  H15S21797   3.052  -0.250   9.298  0.0488  0.6109 -1.1023
  189POPC  C21621798   3.022  -0.195   9.505 -0.7982 -0.4651  0.1659
  189POPC  H16R21799   2.927  -0.248   9.527 -0.3377 -1.1547  0.4985
  189POPC  H16S21800   3.031  -0.094   9.552  0.3387  0.3191 -1.6555
  189POPC  C21721801   3.146  -0.274   9.558  0.6584 -0.4308 -0.3137
  189POPC  H17R21802   3.154  -0.371   9.505 -0.1345 -0.3772 -0.5387
  189POPC  H17S21803   3.131  -0.287   9.667 -0.2808  0.4423 -0.3390
  189POPC  C21821804   3.279  -0.197   9.539 -0.0904 -0.1497  0.7065
  189POPC  H18R21805   3.285  -0.109   9.607 -0.9984  0.1804  0.3690
  189POPC  H18S21806   3.291  -0.171   9.432  1.8972 -1.4156  0.6043
  189POPC  H18T21807   3.370  -0.255   9.565  0.7968 -0.2376 -2.4783
  189POPC   C3321808   3.346   0.770  10.128 -0.2657  0.1300  0.0558
  189POPC   H3X21809   3.439   0.829  10.137 -0.2144  0.0355  0.1539
  189POPC   H3Y21810   3.255   0.818  10.172 -0.6326 -0.1926 -0.3492
  189POPC   C3421811   3.324   0.745   9.981 -0.2157  0.0770  0.3956
  189POPC   H4X21812   3.419   0.706   9.939 -0.4853  1.5975 -1.6749
  189POPC   H4Y21813   3.310   0.845   9.936 -0.8057  0.0716  0.5625
  189POPC   C3521814   3.201   0.658   9.957  0.2802  0.0786 -0.6718
  189POPC   H5X21815   3.115   0.685  10.022 -0.1610  0.7163 -1.5070
  189POPC   H5Y21816   3.230   0.551   9.969  1.0739  0.4248  0.5490
  189POPC   C3621817   3.153   0.664   9.809  0.2702  0.2258 -0.9410
  189POPC   H6X21818   3.079   0.586   9.780 -1.3782  1.6959 -0.7888
  189POPC   H6Y21819   3.249   0.664   9.754  1.0041  1.2149  0.3168
  189POPC   C3721820   3.080   0.795   9.779  0.0958 -0.2341 -0.0019
  189POPC   H7X21821   3.108   0.871   9.855 -1.0978 -0.7979  1.0055
  189POPC   H7Y21822   2.971   0.780   9.788  0.0269  0.0432 -0.3464
  189POPC   C3821823   3.109   0.840   9.640  0.1090  0.0713 -0.0302
  189POPC   H8X21824   3.219   0.848   9.626  0.0757  1.3157  0.3869
  189POPC   H8Y21825   3.064   0.941   9.639  0.5762  0.2793 -0.3168
  189POPC   C3921826   3.058   0.741   9.540 -0.1703  0.1545  0.3639
  189POPC   H9X21827   2.948   0.739   9.545 -0.1530 -2.0216  0.2361
  189POPC   H9Y21828   3.090   0.642   9.578 -1.6764 -1.2468 -1.8980
  189POPC  C31021829   3.114   0.763   9.404  0.2902  0.4742  0.4692
  189POPC  H10X21830   3.223   0.739   9.401  0.0625 -0.4043 -3.4919
  189POPC  H10Y21831   3.108   0.873   9.391  0.4319  0.3996 -0.2714
  189POPC  C31121832   3.046   0.702   9.280  0.5756  0.1850  0.4064
  189POPC  H11X21833   2.947   0.751   9.270  1.2208  1.5023  0.3421
  189POPC  H11Y21834   3.026   0.593   9.270 -0.2429  0.3785 -0.0840
  189POPC  C31221835   3.142   0.745   9.170  0.8575  0.3093  0.3010
  189POPC  H12X21836   3.245   0.705   9.187  0.6022 -1.2292 -1.5336
  189POPC  H12Y21837   3.159   0.854   9.174 -0.0682  0.6168 -2.6662
  189POPC  C31321838   3.103   0.707   9.023 -0.1281 -0.1730  0.3713
  189POPC  H13X21839   3.063   0.603   9.025  1.7371 -0.9041  1.0624
  189POPC  H13Y21840   3.199   0.714   8.969 -0.0923  2.3578  0.7376
  189POPC  C31421841   3.025   0.810   8.941 -0.6924 -0.3848 -0.3554
  189POPC  H14X21842   3.073   0.904   8.976 -0.8073  0.1679 -1.6493
  189POPC  H14Y21843   2.917   0.814   8.966 -0.5626  0.1174  0.1272
  189POPC  C31521844   3.049   0.801   8.789  0.6193  0.3202  0.5292
  189POPC  H15X21845   3.156   0.778   8.770  0.1103 -2.0123  0.3442
  189POPC  H15Y21846   3.028   0.896   8.736  1.5823  0.9829  1.3336
  189POPC  C31621847   2.968   0.689   8.717 -0.0200  1.5565 -0.3539
  189POPC  H16X21848   2.962   0.616   8.800 -2.8601  1.6896 -0.3891
  189POPC  H16Y21849   3.025   0.654   8.628 -1.4585  1.9431 -1.4421
  189POPC  H16Z21850   2.866   0.724   8.691  0.3297  0.2914 -3.7161
  190POPC     N21851   5.925   4.380  11.062  0.2957 -0.2048  0.5723
  190POPC   C1221852   5.917   4.230  11.073 -0.0016  0.8462 -0.4066
  190POPC  H12A21853   5.889   4.214  11.176 -1.2989 -3.1664 -1.3028
  190POPC  H12B21854   6.019   4.198  11.053  1.2041  3.2504  1.6366
  190POPC   C1321855   5.997   4.441  11.181 -0.0703 -0.1922  0.2140
  190POPC  H13A21856   6.101   4.412  11.180  0.3143  1.1279  0.5672
  190POPC  H13B21857   5.990   4.549  11.178  0.6871 -0.1800 -1.3552
  190POPC  H13C21858   5.950   4.421  11.277  2.0567  2.6615  1.9330
  190POPC   C1421859   6.009   4.415  10.942  0.3913 -0.1059  0.0859
  190POPC  H14A21860   6.107   4.370  10.947  0.3857 -0.2668 -1.1028
  190POPC  H14B21861   5.972   4.385  10.845 -1.2603  2.2607 -0.0494
  190POPC  H14C21862   6.025   4.521  10.936  2.0326 -0.3656 -0.3621
  190POPC   C1521863   5.798   4.457  11.052  0.9549  0.0417  0.2369
  190POPC  H15A21864   5.807   4.562  11.030  0.0828 -0.0238 -0.4727
  190POPC  H15B21865   5.744   4.438  11.144 -1.6043 -3.2052 -1.8299
  190POPC  H15C21866   5.737   4.425  10.969  0.1029 -1.2063  1.3156
  190POPC   C1121867   5.820   4.155  10.973 -1.1046  0.1362  0.1973
  190POPC  H11A21868   5.843   4.047  10.967 -0.0999  0.4113 -1.0417
  190POPC  H11B21869   5.859   4.185  10.874  0.5345  0.0790  0.8050
  190POPC     P21870   5.602   4.142  11.119  0.2474 -0.2202 -0.0662
  190POPC   O1321871   5.523   4.263  11.155  0.2182  0.5749  0.0447
  190POPC   O1421872   5.688   4.092  11.228 -0.6735 -0.6040 -0.8762
  190POPC   O1221873   5.685   4.184  10.989  0.3824  0.1381  0.3636
  190POPC   O1121874   5.507   4.025  11.074  0.2313  0.5162  0.4516
  190POPC    C121875   5.549   3.897  11.027  0.5085 -0.0186  0.2844
  190POPC    HA21876   5.472   3.818  11.044  0.0882  0.1458 -0.7645
  190POPC    HB21877   5.640   3.866  11.083 -0.7945 -0.1689  2.3638
  190POPC    C221878   5.583   3.890  10.874 -0.4180 -0.4183 -0.1654
  190POPC    HS21879   5.672   3.954  10.855 -1.0731  1.0582  1.5742
  190POPC   O2121880   5.471   3.935  10.795 -0.4488  0.4361 -0.0100
  190POPC   C2121881   5.480   4.033  10.709 -0.6111 -0.5002  0.1661
  190POPC   O2221882   5.579   4.098  10.687 -0.0155 -0.2162 -0.2546
  190POPC   C2221883   5.340   4.043  10.649 -0.6317 -0.1260  0.4595
  190POPC   H2R21884   5.264   4.052  10.730 -0.5164  1.6616  0.3878
  190POPC   H2S21885   5.325   3.955  10.583  4.3090 -1.5687  1.1281
  190POPC    C321886   5.601   3.746  10.824  0.3137 -0.1592  0.5503
  190POPC    HX21887   5.513   3.685  10.850 -0.3108  0.6647  0.4064
  190POPC    HY21888   5.690   3.703  10.875 -0.9280  1.5072  4.3161
  190POPC   O3121889   5.614   3.729  10.680  0.2814  0.5382  0.2184
  190POPC   C3121890   5.735   3.769  10.636 -0.0748  0.0920  0.0578
  190POPC   O3221891   5.823   3.812  10.709  0.8857 -0.5199  0.3551
  190POPC   C3221892   5.749   3.744  10.488  0.0258 -0.1798 -0.0538
  190POPC   H2X21893   5.854   3.757  10.454 -0.0863  0.1689 -0.2717
  190POPC   H2Y21894   5.687   3.823  10.441  0.8890  0.9127  0.6062
  190POPC   C2321895   5.333   4.178  10.573  0.0395  0.1367 -0.5084
  190POPC   H3R21896   5.415   4.185  10.499  1.2303 -0.5488  0.7240
  190POPC   H3S21897   5.341   4.251  10.656 -3.0655  0.4817 -0.4492
  190POPC   C2421898   5.211   4.202  10.494 -0.8188  0.3903  0.1167
  190POPC   H4R21899   5.119   4.180  10.552 -0.8908  1.0019  0.2374
  190POPC   H4S21900   5.204   4.145  10.399 -0.9559  1.6574 -0.6414
  190POPC   C2521901   5.191   4.355  10.466  0.1517 -1.1245  0.1407
  190POPC   H5R21902   5.202   4.411  10.561 -2.2407 -1.7014  0.7988
  190POPC   H5S21903   5.083   4.362  10.441  0.6798  1.0718 -1.7470
  190POPC   C2621904   5.273   4.403  10.352 -0.3470  0.3872  0.3616
  190POPC   H6R21905   5.242   4.344  10.263 -0.8529 -1.8368  1.9601
  190POPC   H6S21906   5.382   4.405  10.372 -0.1729  1.5912 -0.6911
  190POPC   C2721907   5.239   4.550  10.312 -0.3548 -0.6111  0.3463
  190POPC   H7R21908   5.260   4.606  10.406  1.2203 -2.2940  1.0233
  190POPC   H7S21909   5.132   4.559  10.282 -1.1279 -2.5756  2.3914
  190POPC   C2821910   5.329   4.592  10.198  0.3912  0.5397  0.6754
  190POPC   H8R21911   5.436   4.597  10.229  0.7391 -3.4627  0.3617
  190POPC   H8S21912   5.296   4.696  10.179  0.9911  0.4756 -0.7787
  190POPC   C2921913   5.319   4.507  10.078  0.0030 -0.1030 -0.8004
  190POPC   H9121914   5.379   4.415  10.087  0.3266  0.1664 -0.1435
  190POPC  C21021915   5.246   4.535   9.968 -0.2300  0.6776 -0.1486
  190POPC  H10121916   5.252   4.470   9.879 -0.3259 -0.3004  0.5553
  190POPC  C21121917   5.161   4.656   9.949  0.5508 -0.0848 -0.3101
  190POPC  H11R21918   5.229   4.733   9.907 -1.5891  1.3021 -1.3111
  190POPC  H11S21919   5.118   4.707  10.037  0.7250  1.9411 -1.3605
  190POPC  C21221920   5.046   4.636   9.842  0.7130  0.4878  0.3034
  190POPC  H12R21921   4.974   4.554   9.864  0.1565  0.4674 -1.5042
  190POPC  H12S21922   5.105   4.614   9.750  1.2680 -2.6165  1.3313
  190POPC  C21321923   4.966   4.761   9.818 -0.0340 -0.1231  0.1328
  190POPC  H13R21924   5.032   4.848   9.799 -0.2432 -0.1322 -0.6366
  190POPC  H13S21925   4.911   4.795   9.909 -0.0049 -0.5148  0.2984
  190POPC  C21421926   4.864   4.736   9.707  0.6787 -0.0070 -0.0640
  190POPC  H14R21927   4.799   4.826   9.699 -0.5792 -1.0292 -1.6162
  190POPC  H14S21928   4.802   4.657   9.754 -0.5810  0.7417 -0.4501
  190POPC  C21521929   4.907   4.680   9.579 -0.0191 -0.6347 -1.1495
  190POPC  H15R21930   4.825   4.677   9.505 -0.4251  1.9284 -0.8280
  190POPC  H15S21931   4.954   4.580   9.594  0.6543 -0.2529 -0.6369
  190POPC  C21621932   5.010   4.765   9.498  0.0647 -0.2604 -0.1154
  190POPC  H16R21933   5.090   4.796   9.569  0.4793 -0.5901 -0.4346
  190POPC  H16S21934   4.971   4.861   9.460  1.2067 -0.2199 -1.2110
  190POPC  C21721935   5.069   4.684   9.383  0.2925  0.2313  0.4569
  190POPC  H17R21936   4.991   4.673   9.304  2.2611 -0.0235 -1.4835
  190POPC  H17S21937   5.100   4.586   9.424  1.6775  0.8208  0.8221
  190POPC  C21821938   5.185   4.750   9.315 -0.2329 -0.0443  0.2489
  190POPC  H18R21939   5.216   4.692   9.225  0.3223  0.5593  0.0461
  190POPC  H18S21940   5.272   4.758   9.385 -0.6007 -0.2155  0.7326
  190POPC  H18T21941   5.153   4.850   9.280 -1.7625  0.4012  2.7376
  190POPC   C3321942   5.689   3.614  10.436 -0.1822  0.1120 -0.5682
  190POPC   H3X21943   5.588   3.594  10.478  0.1903  0.1759  0.3631
  190POPC   H3Y21944   5.755   3.527  10.455 -1.1909 -0.6483 -0.5265
  190POPC   C3421945   5.661   3.623  10.291  0.0418  1.1900  0.3152
  190POPC   H4X21946   5.740   3.673  10.231 -0.0157  0.0878 -0.6994
  190POPC   H4Y21947   5.577   3.693  10.269  0.5926  1.9311  0.5214
  190POPC   C3521948   5.634   3.487  10.235  0.2616 -0.4696 -0.0135
  190POPC   H5X21949   5.575   3.424  10.305 -1.3228 -1.6133 -2.3113
  190POPC   H5Y21950   5.728   3.427  10.239  0.2243 -0.4996  0.4551
  190POPC   C3621951   5.583   3.483  10.094  0.2197 -0.6270 -0.5075
  190POPC   H6X21952   5.498   3.555  10.088  0.5418 -0.2057 -0.0796
  190POPC   H6Y21953   5.547   3.381  10.069  0.5410 -1.2357  1.4111
  190POPC   C3721954   5.685   3.521   9.991 -0.5296 -0.1067 -0.0609
  190POPC   H7X21955   5.778   3.459   9.995 -0.2075  0.4354  1.2982
  190POPC   H7Y21956   5.713   3.625  10.018  1.8240 -0.1899 -1.9667
  190POPC   C3821957   5.631   3.524   9.850 -0.3824  0.6413  0.1599
  190POPC   H8X21958   5.533   3.577   9.858 -0.8610 -0.3139  0.7037
  190POPC   H8Y21959   5.624   3.415   9.828  1.6021  0.4818  0.2342
  190POPC   C3921960   5.725   3.593   9.744  0.0361 -0.0737  0.1629
  190POPC   H9X21961   5.827   3.552   9.762 -0.2438 -0.1779  1.5648
  190POPC   H9Y21962   5.734   3.700   9.771 -0.1791 -0.4027  1.5680
  190POPC  C31021963   5.673   3.575   9.600 -0.1797 -0.2621 -0.3862
  190POPC  H10X21964   5.694   3.471   9.568  0.1293 -0.7580  1.3876
  190POPC  H10Y21965   5.725   3.643   9.529  1.4976 -0.4377  0.6455
  190POPC  C31121966   5.517   3.592   9.593  0.2831 -0.2074 -0.0357
  190POPC  H11X21967   5.498   3.682   9.654  1.5726 -0.5349  0.8629
  190POPC  H11Y21968   5.472   3.506   9.647  1.0583 -0.9088 -0.5058
  190POPC  C31221969   5.457   3.605   9.449 -1.1704 -0.3042  0.6390
  190POPC  H12X21970   5.503   3.692   9.398 -0.0427 -0.8163  0.7536
  190POPC  H12Y21971   5.347   3.614   9.453 -1.0432  0.9910  1.4067
  190POPC  C31321972   5.488   3.484   9.354  0.0625  0.8031  0.1538
  190POPC  H13X21973   5.444   3.392   9.399  0.4759 -1.6126 -4.0883
  190POPC  H13Y21974   5.599   3.473   9.349  0.3199  2.8745  0.8703
  190POPC  C31421975   5.447   3.498   9.212  0.0235  0.0437  0.0784
  190POPC  H14X21976   5.337   3.514   9.201  0.1157  1.7036  1.4177
  190POPC  H14Y21977   5.471   3.407   9.152 -0.4219  0.1717 -0.3048
  190POPC  C31521978   5.525   3.610   9.133 -0.0831 -0.1032  0.2219
  190POPC  H15X21979   5.484   3.711   9.153  1.0432  0.1774  1.1904
  190POPC  H15Y21980   5.514   3.578   9.027  0.4060 -2.0246  0.7184
  190POPC  C31621981   5.679   3.625   9.155 -0.4980  0.0269 -0.6837
  190POPC  H16X21982   5.706   3.680   9.248 -1.4145  0.8912 -0.9098
  190POPC  H16Y21983   5.732   3.661   9.065  0.3923  0.7759  0.1284
  190POPC  H16Z21984   5.728   3.527   9.172 -0.5695  0.3603  1.7148
  191POPC     N21985   5.915   4.681   6.043 -0.3653  0.4789 -0.2125
  191POPC   C1221986   5.894   4.780   6.150  0.2967 -0.5512 -0.2878
  191POPC  H12A21987   5.838   4.865   6.114  1.9027  0.9863  0.7986
  191POPC  H12B21988   5.985   4.819   6.194 -1.1854  2.2991  0.3323
  191POPC   C1321989   5.778   4.663   5.984 -0.0034 -0.8049 -0.0899
  191POPC  H13A21990   5.776   4.585   5.910 -0.5374  0.7308 -1.7173
  191POPC  H13B21991   5.704   4.639   6.059 -0.5440 -1.5024 -0.8459
  191POPC  H13C21992   5.746   4.753   5.935 -0.2017 -0.2535  1.0267
  191POPC   C1421993   5.998   4.739   5.927 -0.3150 -0.1374 -0.1376
  191POPC  H14A21994   6.096   4.761   5.967 -0.2424  1.4824 -1.1732
  191POPC  H14B21995   6.016   4.667   5.848 -0.5520  0.3786 -0.6610
  191POPC  H14C21996   5.958   4.823   5.873  1.3786  1.7121  1.3908
  191POPC   C1521997   5.971   4.550   6.085  0.2673  0.2732 -0.6794
  191POPC  H15A21998   6.071   4.556   6.127 -0.2433 -0.1242  0.6273
  191POPC  H15B21999   5.987   4.484   6.002  2.5469 -0.0939  0.0160
  191POPC  H15C22000   5.907   4.506   6.160 -2.4318  0.9312 -2.5465
  191POPC   C1122001   5.815   4.729   6.277  0.2351 -0.1973 -0.2069
  191POPC  H11A22002   5.832   4.813   6.348  2.9362  0.1268 -1.1789
  191POPC  H11B22003   5.878   4.641   6.304 -1.3238 -0.7280  1.7692
  191POPC     P22004   5.548   4.756   6.311  0.4052 -0.4109 -0.1924
  191POPC   O1322005   5.423   4.674   6.286 -0.1390  0.0016  0.1914
  191POPC   O1422006   5.547   4.898   6.264  0.1384  0.2525 -0.3624
  191POPC   O1222007   5.674   4.690   6.246  0.7633  0.1109  0.4702
  191POPC   O1122008   5.578   4.748   6.466 -0.3475  0.2347  0.0604
  191POPC    C122009   5.625   4.622   6.513  0.0642  0.1466  0.6077
  191POPC    HA22010   5.736   4.626   6.506 -0.0077  1.3146  0.0126
  191POPC    HB22011   5.599   4.532   6.452 -0.2263  1.4531 -1.2491
  191POPC    C222012   5.577   4.602   6.663 -0.1332 -0.2772 -0.7822
  191POPC    HS22013   5.468   4.600   6.645 -0.7643  2.6732  2.2765
  191POPC   O2122014   5.623   4.717   6.737  0.5777 -0.7672  0.3876
  191POPC   C2122015   5.539   4.778   6.817  0.4096  0.0295  0.9504
  191POPC   O2222016   5.419   4.759   6.814 -0.4713 -0.2284  0.1901
  191POPC   C2222017   5.609   4.878   6.905  0.4017  0.5769  0.5845
  191POPC   H2R22018   5.530   4.932   6.963 -1.5109 -1.5193  0.0129
  191POPC   H2S22019   5.668   4.951   6.846  1.6387  0.6624  1.9067
  191POPC    C322020   5.631   4.460   6.713 -0.6238 -0.0100  0.3852
  191POPC    HX22021   5.740   4.465   6.731 -0.7697  1.5572  0.9421
  191POPC    HY22022   5.621   4.387   6.629  2.8403  0.6400 -0.6585
  191POPC   O3122023   5.571   4.418   6.835 -0.0665  0.1801 -0.0791
  191POPC   C3122024   5.449   4.359   6.811 -0.0031 -0.0580 -0.8219
  191POPC   O3222025   5.387   4.358   6.704  0.1395 -0.8141  0.0455
  191POPC   C3222026   5.384   4.336   6.945 -0.9753 -0.4243  0.4508
  191POPC   H2X22027   5.273   4.330   6.948 -1.0157 -0.4607 -0.8690
  191POPC   H2Y22028   5.411   4.431   6.997  3.3787 -0.8210 -0.8665
  191POPC   C2322029   5.716   4.803   6.996  0.1819 -0.2786  0.5031
  191POPC   H3R22030   5.802   4.874   6.994 -1.1530  1.3714  0.9996
  191POPC   H3S22031   5.745   4.709   6.943 -0.6566 -0.4307  0.3153
  191POPC   C2422032   5.675   4.766   7.138  0.1012  0.1519 -0.5388
  191POPC   H4R22033   5.655   4.859   7.197  0.2244 -1.5518  2.2729
  191POPC   H4S22034   5.757   4.708   7.185  0.4769  1.3709  0.3462
  191POPC   C2522035   5.542   4.689   7.156  0.2914 -0.1875  0.4292
  191POPC   H5R22036   5.553   4.590   7.106  0.2381  0.1371 -0.2354
  191POPC   H5S22037   5.461   4.743   7.102  0.0012 -1.7096 -0.7053
  191POPC   C2622038   5.485   4.667   7.302  0.4166 -0.6037 -0.0998
  191POPC   H6R22039   5.393   4.605   7.305  0.2753 -0.3147  1.9180
  191POPC   H6S22040   5.461   4.766   7.346  1.8293 -0.3932  0.2249
  191POPC   C2722041   5.582   4.603   7.398 -0.4623 -0.7049  0.0696
  191POPC   H7R22042   5.669   4.670   7.416  0.3730 -2.2375  1.8169
  191POPC   H7S22043   5.613   4.512   7.342 -1.0271  0.2282 -1.8007
  191POPC   C2822044   5.524   4.567   7.532 -0.3100  0.4716 -0.1827
  191POPC   H8R22045   5.606   4.531   7.598 -2.1072 -1.9837  0.7737
  191POPC   H8S22046   5.445   4.489   7.523  0.2105 -0.3962  2.5573
  191POPC   C2922047   5.455   4.680   7.606  0.7540 -0.5281  0.3502
  191POPC   H9122048   5.372   4.727   7.550  2.0598  1.0503 -0.2936
  191POPC  C21022049   5.490   4.740   7.720  0.2827  0.4272  0.2748
  191POPC  H10122050   5.434   4.823   7.766 -0.0496 -0.1268  0.8730
  191POPC  C21122051   5.619   4.709   7.804  0.7302  0.1605 -0.2730
  191POPC  H11R22052   5.683   4.795   7.832  0.5018  0.4543 -0.6586
  191POPC  H11S22053   5.692   4.632   7.769 -0.2980 -2.9407  3.9777
  191POPC  C21222054   5.571   4.658   7.936 -0.6746  0.1350 -0.6841
  191POPC  H12R22055   5.665   4.610   7.971 -1.2029 -1.1388 -0.9908
  191POPC  H12S22056   5.504   4.570   7.925 -2.0185  1.0303  0.1738
  191POPC  C21322057   5.500   4.756   8.031 -0.2824  0.4461 -0.0554
  191POPC  H13R22058   5.403   4.772   7.980 -0.0132  0.4992 -0.5505
  191POPC  H13S22059   5.552   4.854   8.030 -1.8242  1.2639 -1.0978
  191POPC  C21422060   5.507   4.694   8.172  0.0126  0.6415  0.5852
  191POPC  H14R22061   5.599   4.632   8.178 -0.1115  0.4008  0.0736
  191POPC  H14S22062   5.419   4.627   8.165  0.7999 -0.5520  1.8336
  191POPC  C21522063   5.495   4.795   8.279  0.3658  0.2734 -0.2522
  191POPC  H15R22064   5.395   4.840   8.265  0.2492  0.8669  2.2362
  191POPC  H15S22065   5.572   4.874   8.266  0.7622 -0.2742 -1.2410
  191POPC  C21622066   5.494   4.727   8.416 -0.2569  0.5288 -0.1268
  191POPC  H16R22067   5.413   4.652   8.404  2.2934 -2.2764 -0.3422
  191POPC  H16S22068   5.460   4.800   8.493  1.9770  2.1338 -0.6191
  191POPC  C21722069   5.633   4.656   8.455 -0.6476 -0.3676  0.3193
  191POPC  H17R22070   5.717   4.727   8.464  1.0345 -2.1716 -0.7763
  191POPC  H17S22071   5.644   4.580   8.375 -0.2274 -0.5520  0.5575
  191POPC  C21822072   5.618   4.592   8.591 -0.0364  0.4186 -0.2226
  191POPC  H18R22073   5.524   4.532   8.597  0.1391  0.0629 -0.9602
  191POPC  H18S22074   5.613   4.672   8.667 -1.6861 -1.7284  2.0173
  191POPC  H18T22075   5.699   4.520   8.615 -0.6414 -0.3549 -0.4853
  191POPC   C3322076   5.447   4.220   7.028 -0.4149 -0.0932 -0.0034
  191POPC   H3X22077   5.556   4.221   7.006 -0.5144  0.1166 -0.5071
  191POPC   H3Y22078   5.420   4.117   6.996 -0.9461 -0.2682  0.9942
  191POPC   C3422079   5.419   4.226   7.174 -0.1013  0.7885  0.9312
  191POPC   H4X22080   5.311   4.244   7.195 -1.7023 -2.9509 -3.4040
  191POPC   H4Y22081   5.474   4.313   7.216 -0.3149  0.4234  1.9754
  191POPC   C3522082   5.451   4.092   7.246 -0.3789  1.1650  0.4753
  191POPC   H5X22083   5.557   4.064   7.224 -1.2724 -2.8537  0.9761
  191POPC   H5Y22084   5.374   4.023   7.205 -0.7538  0.4886  2.2753
  191POPC   C3622085   5.433   4.097   7.400 -0.0513 -0.1955 -0.3514
  191POPC   H6X22086   5.329   4.134   7.409  0.4973  0.5582  3.9585
  191POPC   H6Y22087   5.507   4.171   7.436 -0.9698 -0.1239  1.4268
  191POPC   C3722088   5.459   3.968   7.476 -0.1817 -0.0220  0.8280
  191POPC   H7X22089   5.565   3.937   7.471 -0.0702  0.2011  1.7878
  191POPC   H7Y22090   5.392   3.894   7.428  0.0889  0.6432 -0.6176
  191POPC   C3822091   5.423   3.988   7.627  0.1189  0.2751 -0.0666
  191POPC   H8X22092   5.312   3.981   7.640  0.1761 -1.2508 -0.2661
  191POPC   H8Y22093   5.448   4.093   7.654 -1.9337  0.7113  0.2725
  191POPC   C3922094   5.506   3.886   7.708  0.7303 -0.4851  0.6597
  191POPC   H9X22095   5.610   3.921   7.694  1.5179 -1.6689  3.1991
  191POPC   H9Y22096   5.497   3.781   7.672 -1.3052 -0.2566  0.4434
  191POPC  C31022097   5.476   3.886   7.860 -0.1395 -0.1164  0.5926
  191POPC  H10X22098   5.374   3.848   7.881 -0.1863  0.5316  1.6163
  191POPC  H10Y22099   5.482   3.994   7.887 -1.4256  0.3708 -0.9279
  191POPC  C31122100   5.575   3.799   7.932 -0.4680  0.5248  0.2413
  191POPC  H11X22101   5.680   3.834   7.929  0.6386 -2.5996  0.8547
  191POPC  H11Y22102   5.562   3.694   7.898 -2.0351  1.2368 -1.4898
  191POPC  C31222103   5.534   3.783   8.082  0.0104  0.3256  0.6215
  191POPC  H12X22104   5.436   3.734   8.099 -0.2738  0.4163 -0.7032
  191POPC  H12Y22105   5.513   3.884   8.124 -1.6487  0.7086 -1.0609
  191POPC  C31322106   5.630   3.690   8.168  0.3677 -0.1736 -0.2490
  191POPC  H13X22107   5.730   3.736   8.174  0.6464 -0.7652 -0.2938
  191POPC  H13Y22108   5.652   3.592   8.119 -0.4406 -0.6247  0.2759
  191POPC  C31422109   5.580   3.658   8.310  0.0161 -0.2458  0.7120
  191POPC  H14X22110   5.645   3.572   8.338 -0.2378 -1.0980 -1.2670
  191POPC  H14Y22111   5.476   3.625   8.292 -0.9398  0.7057  4.0395
  191POPC  C31522112   5.586   3.765   8.417  0.0676  0.0063 -0.1196
  191POPC  H15X22113   5.512   3.846   8.399 -1.7871 -1.8912 -1.1149
  191POPC  H15Y22114   5.689   3.807   8.425 -0.6905  1.7847  0.6867
  191POPC  C31622115   5.572   3.699   8.557 -0.8100 -0.5270  0.7346
  191POPC  H16X22116   5.490   3.624   8.567  0.2787 -2.0290 -1.2615
  191POPC  H16Y22117   5.555   3.789   8.620 -2.1599  1.0102 -1.7112
  191POPC  H16Z22118   5.673   3.658   8.578 -0.5542  0.1837  0.9169
  192POPC     N22119   4.552   0.355   6.107 -0.3797 -0.4964  0.1201
  192POPC   C1222120   4.580   0.276   6.234 -0.0500  0.2664  0.0375
  192POPC  H12A22121   4.535   0.330   6.317 -1.4416  1.0991 -1.2387
  192POPC  H12B22122   4.685   0.283   6.258  0.0169  0.3685 -0.2922
  192POPC   C1322123   4.616   0.489   6.132  0.2440 -0.2223  0.0044
  192POPC  H13A22124   4.638   0.548   6.045  0.5980 -0.0946  0.1765
  192POPC  H13B22125   4.567   0.554   6.203  0.1827 -1.2002  0.8887
  192POPC  H13C22126   4.716   0.493   6.174  0.6545  2.1039 -1.1584
  192POPC   C1422127   4.621   0.295   5.985  1.6551  0.5233  0.3626
  192POPC  H14A22128   4.575   0.200   5.959  0.5600  0.3221  2.9302
  192POPC  H14B22129   4.607   0.367   5.906  0.5639 -0.8664 -0.7490
  192POPC  H14C22130   4.724   0.265   5.997  1.0410 -2.6998 -1.5450
  192POPC   C1522131   4.406   0.378   6.079  0.3229  0.1806 -0.0458
  192POPC  H15A22132   4.368   0.291   6.027  2.1559 -0.3352 -0.5280
  192POPC  H15B22133   4.396   0.467   6.018  0.6947  1.5493  1.8475
  192POPC  H15C22134   4.354   0.385   6.173 -0.1749 -0.8793 -0.2334
  192POPC   C1122135   4.549   0.128   6.231  0.0147  0.3235  0.6672
  192POPC  H11A22136   4.441   0.127   6.205  0.5866 -1.1187 -1.7206
  192POPC  H11B22137   4.563   0.091   6.335  0.9494 -0.8599  0.1332
  192POPC     P22138   4.769   0.003   6.175 -0.0434 -0.0193 -0.0553
  192POPC   O1322139   4.838  -0.041   6.056  0.1124  0.4635  0.4993
  192POPC   O1422140   4.771  -0.091   6.288  0.6445  0.3823  0.4742
  192POPC   O1222141   4.625   0.050   6.141 -0.3872 -0.1236  0.3026
  192POPC   O1122142   4.836   0.137   6.224 -0.2832  0.3876  0.7958
  192POPC    C122143   4.913   0.154   6.337  0.5255  0.5742  0.1398
  192POPC    HA22144   4.973   0.063   6.362  0.6773  0.2389 -1.3588
  192POPC    HB22145   4.845   0.165   6.424  0.5417 -1.9593  0.5208
  192POPC    C222146   5.007   0.281   6.314  0.7882 -0.2671 -0.8795
  192POPC    HS22147   5.074   0.253   6.231  0.0016 -1.4749 -1.1064
  192POPC   O2122148   5.072   0.323   6.435 -0.5769  0.1829  0.1611
  192POPC   C2122149   5.201   0.351   6.414 -0.5798 -0.0075  0.3424
  192POPC   O2222150   5.264   0.354   6.307  0.0676 -0.3570 -0.2348
  192POPC   C2222151   5.273   0.366   6.552 -0.3153  0.1394 -0.0197
  192POPC   H2R22152   5.345   0.449   6.538 -0.5894  0.1558 -1.3620
  192POPC   H2S22153   5.331   0.272   6.565 -0.0994  0.0498 -1.6213
  192POPC    C322154   4.929   0.406   6.261 -0.9757  0.1396  0.0120
  192POPC    HX22155   4.885   0.372   6.165 -1.0552 -0.3447  0.2199
  192POPC    HY22156   5.008   0.477   6.228  0.2915 -0.9232  0.6603
  192POPC   O3122157   4.829   0.456   6.355 -1.1071 -0.0713  0.3547
  192POPC   C3122158   4.872   0.547   6.438 -0.1726  0.4626  0.2044
  192POPC   O3222159   4.981   0.594   6.428  0.0313 -0.1125  0.0583
  192POPC   C3222160   4.769   0.572   6.540  0.0720 -0.5482  0.3499
  192POPC   H2X22161   4.780   0.482   6.604 -1.1851 -0.9583 -0.0019
  192POPC   H2Y22162   4.669   0.567   6.492 -0.4702  2.3612  1.0917
  192POPC   C2322163   5.200   0.406   6.684 -0.0063  0.3406 -0.1305
  192POPC   H3R22164   5.130   0.323   6.710 -0.5183  0.6555 -0.4742
  192POPC   H3S22165   5.147   0.502   6.664 -1.1186 -0.3351 -0.5034
  192POPC   C2422166   5.292   0.420   6.808  0.3574  0.4161 -0.1895
  192POPC   H4R22167   5.315   0.529   6.800 -0.2201  0.3749 -2.6217
  192POPC   H4S22168   5.385   0.367   6.781 -0.6478 -0.9866 -0.9328
  192POPC   C2522169   5.227   0.375   6.939 -0.2452  0.8040  0.4769
  192POPC   H5R22170   5.215   0.267   6.918 -0.3761  1.0670 -0.8534
  192POPC   H5S22171   5.125   0.420   6.945 -0.8764 -0.3081 -1.4320
  192POPC   C2622172   5.304   0.387   7.065 -0.5017 -0.9842  0.6943
  192POPC   H6R22173   5.330   0.495   7.063  0.8937 -1.3192 -0.1377
  192POPC   H6S22174   5.394   0.323   7.052  0.0862 -0.1936  0.8269
  192POPC   C2722175   5.226   0.359   7.198  0.5749 -0.6822 -0.3862
  192POPC   H7R22176   5.205   0.250   7.193  0.5427 -0.7741  1.3089
  192POPC   H7S22177   5.133   0.419   7.185  0.1626 -1.0068  0.9197
  192POPC   C2822178   5.306   0.385   7.327 -0.1401 -0.2965 -0.3356
  192POPC   H8R22179   5.349   0.487   7.338 -0.9990  0.1477 -1.0214
  192POPC   H8S22180   5.388   0.313   7.306  0.3466 -0.1313  0.9144
  192POPC   C2922181   5.225   0.345   7.447  0.3174 -0.2923 -0.0390
  192POPC   H9122182   5.156   0.264   7.419 -1.0009  1.1651 -1.1415
  192POPC  C21022183   5.195   0.402   7.566 -0.4680 -0.0474 -0.1964
  192POPC  H10122184   5.120   0.358   7.633  1.7544 -0.4217  2.1343
  192POPC  C21122185   5.261   0.521   7.630  0.5657  0.0167 -0.3794
  192POPC  H11R22186   5.204   0.616   7.620  1.5670  0.6993  0.3644
  192POPC  H11S22187   5.362   0.543   7.589  1.8080 -1.7858  1.6460
  192POPC  C21222188   5.292   0.492   7.778  0.3733  0.2030  0.4355
  192POPC  H12R22189   5.350   0.398   7.788  1.1613  0.6915  0.4270
  192POPC  H12S22190   5.201   0.477   7.841  0.5560  1.6336  1.0663
  192POPC  C21322191   5.366   0.615   7.841  1.0267  0.9660  0.0347
  192POPC  H13R22192   5.348   0.708   7.782 -2.8623  1.6467  2.0897
  192POPC  H13S22193   5.474   0.595   7.826  1.0691  1.0456  0.2371
  192POPC  C21422194   5.343   0.637   7.991  0.0222  0.5158 -0.3520
  192POPC  H14R22195   5.235   0.611   7.996  0.8074 -3.0825 -0.5853
  192POPC  H14S22196   5.355   0.746   8.009 -1.7626  0.5092  1.0831
  192POPC  C21522197   5.410   0.542   8.097  0.8633  0.3124 -0.0237
  192POPC  H15R22198   5.520   0.562   8.093  0.6181  2.1720  1.6781
  192POPC  H15S22199   5.381   0.435   8.090  0.1551  0.3386  2.2064
  192POPC  C21622200   5.366   0.589   8.230  0.5834 -0.2690  0.5435
  192POPC  H16R22201   5.256   0.576   8.234  0.3333  1.7197  0.8756
  192POPC  H16S22202   5.392   0.695   8.253  0.5340 -0.3831  1.1044
  192POPC  C21722203   5.425   0.507   8.352 -0.4920 -0.4346  0.0819
  192POPC  H17R22204   5.536   0.509   8.350 -0.4514  0.9608  2.0643
  192POPC  H17S22205   5.389   0.403   8.343  0.0572 -0.9446  3.1801
  192POPC  C21822206   5.385   0.574   8.488  0.1360  0.1216  0.6094
  192POPC  H18R22207   5.426   0.676   8.505  0.9045  0.1248 -1.1428
  192POPC  H18S22208   5.409   0.515   8.579  0.2983  1.6733  1.5931
  192POPC  H18T22209   5.276   0.595   8.489  0.4731  2.1032 -1.1834
  192POPC   C3322210   4.793   0.701   6.627  0.5148 -0.7321 -0.1583
  192POPC   H3X22211   4.757   0.796   6.581  0.2619 -0.5181  0.4749
  192POPC   H3Y22212   4.899   0.710   6.660  0.5378  0.1434 -0.4503
  192POPC   C3422213   4.718   0.696   6.759 -0.2203 -0.7620  0.4717
  192POPC   H4X22214   4.621   0.646   6.739  0.2870 -1.2037 -0.9606
  192POPC   H4Y22215   4.695   0.802   6.785 -0.6695 -0.3289 -1.5835
  192POPC   C3522216   4.788   0.634   6.879  0.0637  0.5135 -0.0340
  192POPC   H5X22217   4.886   0.683   6.897  0.4729  0.1178 -1.1331
  192POPC   H5Y22218   4.812   0.528   6.854 -0.9579 -0.1771  1.8028
  192POPC   C3622219   4.696   0.630   6.999  0.4968 -0.2928 -0.0705
  192POPC   H6X22220   4.606   0.572   6.973  1.0440 -1.8432  1.3797
  192POPC   H6Y22221   4.663   0.736   7.009  0.5751 -0.3756  1.0731
  192POPC   C3722222   4.754   0.584   7.127  0.4151  0.0406 -0.8612
  192POPC   H7X22223   4.859   0.617   7.146  0.8428 -1.1994 -0.9884
  192POPC   H7Y22224   4.760   0.473   7.117 -2.1779 -0.0836 -1.1895
  192POPC   C3822225   4.682   0.620   7.258  0.7388  0.1199  0.0873
  192POPC   H8X22226   4.576   0.586   7.260  0.0376  2.2651  0.6103
  192POPC   H8Y22227   4.676   0.727   7.288 -1.9125 -0.3718  1.5217
  192POPC   C3922228   4.750   0.551   7.376 -0.0369 -0.0866  0.8202
  192POPC   H9X22229   4.860   0.567   7.366 -0.0522  0.5859  1.6056
  192POPC   H9Y22230   4.738   0.441   7.370  0.8001 -0.0786 -1.5314
  192POPC  C31022231   4.715   0.585   7.523  0.4268  0.1263  0.8366
  192POPC  H10X22232   4.606   0.570   7.539  0.2131  1.4327  0.6973
  192POPC  H10Y22233   4.743   0.692   7.538  1.1384  0.1004 -0.2295
  192POPC  C31122234   4.784   0.493   7.628  0.8308  0.2832 -0.4427
  192POPC  H11X22235   4.895   0.487   7.624  1.0625  3.9605 -1.1522
  192POPC  H11Y22236   4.743   0.393   7.603 -1.0005  0.7013  0.8093
  192POPC  C31222237   4.731   0.510   7.774 -0.0406 -0.6197  0.4029
  192POPC  H12X22238   4.631   0.464   7.785 -0.0912 -0.5621  0.1740
  192POPC  H12Y22239   4.733   0.620   7.791 -0.1848 -0.6261  0.4626
  192POPC  C31322240   4.823   0.459   7.878  0.5292 -0.0048  0.1788
  192POPC  H13X22241   4.923   0.504   7.861  0.0456  1.1279  0.2360
  192POPC  H13Y22242   4.838   0.351   7.859 -1.1229 -0.1890 -0.2016
  192POPC  C31422243   4.788   0.491   8.024  0.0827  0.5661  0.9469
  192POPC  H14X22244   4.689   0.446   8.044 -1.1171  0.4437 -4.5189
  192POPC  H14Y22245   4.781   0.602   8.035 -1.1938  0.6362 -0.4039
  192POPC  C31522246   4.881   0.426   8.130  0.7988  0.5950 -0.3469
  192POPC  H15X22247   4.858   0.317   8.130  0.1640  0.7070  1.4016
  192POPC  H15Y22248   4.865   0.462   8.234 -1.6769  1.3805 -0.9701
  192POPC  C31622249   5.036   0.439   8.121  0.6442 -0.0125  1.6362
  192POPC  H16X22250   5.071   0.399   8.218  2.3024 -0.6255  0.7893
  192POPC  H16Y22251   5.064   0.546   8.107 -0.2396  0.2484  1.7910
  192POPC  H16Z22252   5.087   0.370   8.050  0.5902  1.5021  0.0763
  193SOD    SOD22253   5.534   5.857   1.997  0.2384  0.2084 -0.0532
  194SOD    SOD22254   4.963   0.460   3.601 -0.4654 -0.3944 -0.2062
  195SOD    SOD22255   1.339   1.475   1.844 -0.1279  0.0680 -0.1884
  196SOD    SOD22256   2.566   4.497  11.028  0.2504 -0.2357  0.1893
  197SOD    SOD22257   3.619   4.390   5.683 -0.1801 -0.4045 -0.4089
  198SOD    SOD22258   2.167   0.601  10.619  0.7452 -0.0240 -0.0719
  199SOD    SOD22259   4.818   6.482   3.469  0.1195  0.0692  0.0676
  200SOD    SOD22260   5.628   6.278   3.194  0.2977 -0.7069 -0.1535
  201SOD    SOD22261   1.260   6.548   2.196  0.0122  0.4145 -0.1401
  202SOD    SOD22262   5.216   1.240  15.345  0.7293  0.2598 -0.0503
  203SOD    SOD22263   4.573   2.102  13.061  0.0205 -0.0550 -0.7886
  204SOD    SOD22264   3.119   1.752  14.082  0.0361 -0.3465  0.2965
  205SOD    SOD22265   0.685   4.853  15.804  0.0746  0.0211 -0.1584
  206SOD    SOD22266   6.714   0.981  11.107 -0.2754  0.3326  0.3163
  207SOD    SOD22267   2.576   5.123   3.696  0.4376 -0.2202 -0.4181
  208SOD    SOD22268   4.964   5.804  11.446 -0.0390  0.2781  0.3208
  209SOD    SOD22269   2.464   2.406   5.049  0.4262  0.0510 -0.1678
  210SOD    SOD22270   6.202   4.291  14.138 -0.2711  0.4115  0.5648
  211SOD    SOD22271   6.020   0.586   1.076 -0.5091 -0.1197  0.2857
  212SOD    SOD22272   0.014   3.770  13.522 -0.0420 -0.5797 -0.3274
  213SOD    SOD22273   6.299   5.491   5.192  0.1916  0.3593  0.6127
  214SOD    SOD22274   6.236   0.346  14.403 -0.4603  0.1738 -0.1871
  215SOD    SOD22275   0.666   6.206  16.432 -0.5007 -0.3247  0.3829
  216SOD    SOD22276   4.441   1.908   1.589  0.2198  0.1383  0.1517
  217SOD    SOD22277   4.495   3.322  11.057 -0.8898  0.1615 -0.0741
  218SOD    SOD22278   5.475   1.043   5.104 -0.4579  0.2536 -0.3275
  219SOD    SOD22279   2.285   0.666   0.676 -0.3417 -0.2062  0.0063
  220SOD    SOD22280   0.056   4.941   0.902  0.2306 -0.0622  0.5419
  221SOD    SOD22281   2.899   1.143   2.680  0.4231  0.2876 -0.2459
  222SOD    SOD22282   2.990   2.832   0.605 -0.3936  0.1858  0.1044
  223SOD    SOD22283   0.340   1.928  14.025  0.5506 -0.4090 -0.0305
  224SOD    SOD22284   4.295   1.187   5.868  0.5231 -0.3754 -0.0063
  225SOD    SOD22285   5.695   3.858  11.586  0.2599 -0.3827  0.1048
  226SOD    SOD22286   1.389   6.555   3.566 -0.3161 -0.2651  0.1285
  227SOD    SOD22287   4.232   1.635  10.987 -0.6803 -0.1174  0.1215
  228SOD    SOD22288   1.523   2.837   5.655 -0.2788  0.3199 -0.2443
  229SOD    SOD22289   2.855   0.321   5.906 -0.7269 -0.7845  0.1602
  230SOD    SOD22290   6.059   5.009   5.512  0.0233 -0.3427  0.3920
  231SOD    SOD22291   1.281   1.404  11.624  0.5047  0.1243  0.1012
  232SOD    SOD22292   2.965   1.986   5.252  0.3008 -0.2048  0.5385
  233SOD    SOD22293   5.360   4.066  14.040  0.3329  0.5764 -0.0612
  234SOD    SOD22294   4.366   5.857   5.532  0.2974 -0.0419 -0.0822
  235SOD    SOD22295   5.069   0.185  12.344  0.0863 -0.2970 -0.1384
  236SOD    SOD22296   3.966   3.794  12.084 -0.5301 -0.3776 -0.1206
  237SOD    SOD22297   6.431   0.368  15.534  0.4856 -0.1162 -0.4418
  238SOD    SOD22298   0.903   4.251   0.267 -0.0289  0.3880  0.0649
  239SOD    SOD22299   5.644   3.175   5.674 -0.6697  0.4113 -0.0392
  240SOD    SOD22300   1.153   5.010   6.382 -0.5634  0.2721  0.0004
  241SOD    SOD22301   0.817   4.422  16.246  0.0066  0.0883 -0.1588
  242SOD    SOD22302   4.333   3.225   6.540 -0.3866 -0.1550  0.5424
  243SOD    SOD22303   3.294   0.947  13.400 -0.0518  0.3613 -0.1132
  244SOD    SOD22304   4.288   5.933   5.849 -0.1665 -0.6423 -0.4915
  245SOD    SOD22305   0.454   6.304  14.786  0.1712 -0.0464  0.5390
  246SOD    SOD22306   3.728   1.950   6.179  0.1810  0.0799  0.3157
  247SOD    SOD22307   2.242   4.434   3.949 -0.2831 -0.0371 -0.3031
  248SOD    SOD22308   3.494   6.157  15.190  0.0177  0.2294 -0.3640
  249SOD    SOD22309   6.380   1.980  10.950  0.0293 -0.3423  0.3277
  250SOD    SOD22310   5.969   0.753   5.530 -0.2672 -0.0564 -0.0642
  251SOD    SOD22311   0.902   5.591   5.577 -0.6755 -0.8892  0.8606
  252SOD    SOD22312   3.040   4.513  12.421  0.0994 -0.2792 -0.0128
  253SOD    SOD22313   3.886   2.749   3.728  0.2588  0.6780 -0.4024
  254SOD    SOD22314   0.328   6.594   5.815  0.0462 -0.6380  0.0531
  255SOD    SOD22315   6.376   2.314   2.429 -0.1967  0.3861  0.4192
  256SOD    SOD22316   3.750   3.096  15.089  0.3374 -0.8664  0.5368
  257SOD    SOD22317   4.016   0.733   3.766 -0.3165  0.3570  0.0324
  258SOD    SOD22318   0.718   1.464  12.613 -0.0338  0.3732  0.4153
  259SOD    SOD22319   4.227   5.088   1.489  0.1411  0.3084 -0.3147
  260SOD    SOD22320   3.375   4.900  10.705 -0.2521  0.1691 -0.2064
  261SOD    SOD22321   2.688   0.578  11.507  0.4748  0.2956  0.0640
  262SOD    SOD22322   1.348   4.903  13.088  0.1835  0.7741 -0.0621
  263SOD    SOD22323   5.122   6.389   0.547  0.5931  0.3765  0.2483
  264SOD    SOD22324   3.663   0.108   1.931 -0.5185 -0.0468  0.2638
  265SOD    SOD22325   4.809   3.858   6.631  0.2241  0.1606 -0.4672
  266SOD    SOD22326   1.369   6.080  11.561 -0.0534  0.1250 -0.2963
  267SOD    SOD22327   1.942   4.896   3.708 -0.6842 -0.0971 -0.4674
  268SOD    SOD22328   1.602   4.351  10.934  0.0107 -0.1131  0.7713
  269SOD    SOD22329   0.749   4.761   1.836 -0.5518 -0.0174  0.5268
  270CLA    CLA22330   1.383   5.960  13.949  0.0118 -0.1808 -0.3801
  271CLA    CLA22331   2.924   6.700  14.248  0.0101  0.1053  0.2095
  272CLA    CLA22332   0.613   5.613  15.409  0.1891 -0.0955  0.0939
  273CLA    CLA22333   0.910   3.344   4.215 -0.2795  0.3697 -0.2994
  274CLA    CLA22334   3.643   1.171   3.966  0.2833 -0.0759 -0.2936
  275CLA    CLA22335   5.851   0.601   2.887  0.4019 -0.2973  0.0435
  276CLA    CLA22336   1.003   5.029   4.574  0.1415 -0.0010 -0.2129
  277CLA    CLA22337   6.582   0.429  15.780  0.2828  0.3067 -0.2270
  278CLA    CLA22338   6.068   2.647  13.658 -0.1550  0.1042 -0.4271
  279CLA    CLA22339   4.373   5.741  15.777 -0.3629 -0.2400 -0.2356
  280CLA    CLA22340   4.808   1.103   5.704 -0.1346 -0.1321 -0.0546
  281CLA    CLA22341   4.603   6.220   3.028 -0.2718  0.6792 -0.0225
  282CLA    CLA22342   6.286   5.567   0.171 -0.0306  0.1488 -0.4567
  283CLA    CLA22343   2.670   5.452   4.122 -0.2047  0.2424 -0.2273
  284CLA    CLA22344   3.239   5.970   2.413 -0.2058  0.0865 -0.2197
  285CLA    CLA22345   4.865   4.034  12.754  0.3790 -0.1138  0.2311
  286CLA    CLA22346   3.638   5.563   2.460 -0.1004  0.1318 -0.2751
  287CLA    CLA22347   1.672   2.752   1.831  0.3880 -0.2520  0.0616
  288CLA    CLA22348   5.765   5.461  12.442  0.0058  0.2944  0.2802
  289CLA    CLA22349   1.199   1.499   5.671 -0.0860 -0.0013  0.1038
  290CLA    CLA22350   1.859   5.717  15.631 -0.3388  0.4034 -0.1431
  291CLA    CLA22351   3.493   4.755   5.603  0.0100 -0.1427  0.0983
  292CLA    CLA22352   0.711   5.985   3.894 -0.4410  0.0185  0.1322
  293CLA    CLA22353   2.260   5.445  17.229 -0.2631 -0.0787 -0.1361
  294CLA    CLA22354   5.387   0.628  15.242  0.6294  0.3766  0.2827
  295CLA    CLA22355   1.321   0.264   1.313  0.2859 -0.2631  0.2350
  296CLA    CLA22356   6.296   3.785   1.696  0.0318  0.1298  0.0239
  297CLA    CLA22357   1.721   4.897  12.214  0.3176  0.1289 -0.2706
  298CLA    CLA22358   1.237   6.439   2.482  0.2825 -0.0899 -0.4718
  299CLA    CLA22359   1.914   1.186  13.456  0.1828 -0.4504 -0.2395
  300CLA    CLA22360   4.404   5.295   5.052  0.3895  0.2222  0.3453
  301CLA    CLA22361   2.297   0.709   3.848  0.4981 -0.2795  0.3358
  302CLA    CLA22362   5.136   1.032   1.917  0.3195 -0.1291  0.2050
  303CLA    CLA22363   2.705   2.075  14.873 -0.3095 -0.2142  0.6391
  304CLA    CLA22364   4.359   3.921  15.087  0.0081  0.2483  0.3346
  305CLA    CLA22365   1.094   3.650   0.636 -0.2379  0.5180  0.0338
  306CLA    CLA22366   3.005   1.340  13.671  0.0272  0.3263  0.1960
  307CLA    CLA22367   0.500   3.384   3.188  0.0275 -0.1794  0.1598
  308CLA    CLA22368   0.569   3.947   1.132  0.6445  0.1311 -0.4171
  309CLA    CLA22369   2.814   3.194   4.390 -0.5328 -0.0027 -0.1736
  310CLA    CLA22370   2.436   4.033  11.529  0.0691 -0.2441  0.4541
  311CLA    CLA22371   5.283   6.655   5.424  0.0787  0.3806  0.4579
  312CLA    CLA22372   1.370   2.088   3.524  0.2811  0.0670  0.2524
  313CLA    CLA22373   3.329   3.807   3.189 -0.3311  0.2320 -0.0696
  314CLA    CLA22374   5.075   4.565   1.455 -0.0123 -0.2703  0.4366
  315CLA    CLA22375   2.681   1.326   0.735 -0.0175 -0.6164 -0.0821
  316CLA    CLA22376   5.000   4.154  13.796  0.2175 -0.2995 -0.0806
  317CLA    CLA22377   0.441   1.768  14.562  0.0459  0.2743  0.0023
  318CLA    CLA22378   3.236   1.948   0.676  0.0534 -0.3076 -0.2042
  319CLA    CLA22379   5.275   3.691   1.176  0.0228  0.2335  0.1838
  320CLA    CLA22380   2.676   5.122  12.960 -0.0155  0.3482 -0.2050
  321CLA    CLA22381   6.749   2.645  15.772 -0.2641  0.0777 -0.0983
  322CLA    CLA22382   4.887   6.775   0.685  0.2809  0.0532 -0.0923
  323TIP3   OH222383   5.950   4.607  16.011 -0.3104 -0.4527  0.1856
  323TIP3    H122384   5.948   4.665  16.087  1.0787 -0.7953  0.4991
  323TIP3    H222385   6.026   4.637  15.961 -0.5613 -0.9517 -0.4877
  324TIP3   OH222386   5.660   3.869   2.769  0.2548  0.1857 -0.1823
  324TIP3    H122387   5.676   3.958   2.800  0.8598  0.1650 -0.4172
  324TIP3    H222388   5.705   3.865   2.685 -0.5430 -0.0614 -0.6049
  325TIP3   OH222389   4.076   0.425  15.025 -0.5546 -0.2383  0.1322
  325TIP3    H122390   3.992   0.465  15.006 -0.0712 -0.1584 -2.0277
  325TIP3    H222391   4.064   0.332  15.003  0.6436  0.2474 -2.7936
  326TIP3   OH222392   0.305   2.382   2.318 -0.3442  0.6347 -0.6506
  326TIP3    H122393   0.213   2.367   2.338 -0.1398 -1.3748 -1.0251
  326TIP3    H222394   0.328   2.460   2.367 -1.5847 -0.3458  1.5877
  327TIP3   OH222395   1.778   2.217   5.238  0.0215  0.0543 -0.4334
  327TIP3    H122396   1.823   2.299   5.258  0.9866  0.1645 -2.8372
  327TIP3    H222397   1.690   2.244   5.211  0.9046  0.4891 -2.9813
  328TIP3   OH222398   3.848   3.608   0.286  0.1230  0.2174 -0.5289
  328TIP3    H122399   3.909   3.661   0.338  0.1411 -1.1893  0.9160
  328TIP3    H222400   3.769   3.604   0.339  0.2530 -1.5120 -0.4438
  329TIP3   OH222401   5.500   4.189  12.957 -0.5241 -0.4751 -0.0519
  329TIP3    H122402   5.513   4.239  12.877  1.1663 -0.3777  0.2570
  329TIP3    H222403   5.406   4.196  12.976 -0.2579  3.0933  0.3101
  330TIP3   OH222404   3.004   1.779  15.735  0.5715 -0.2605 -0.5217
  330TIP3    H122405   3.049   1.862  15.722  3.3352 -1.7088 -0.4799
  330TIP3    H222406   2.997   1.769  15.830 -0.1645  0.1076 -0.5311
  331TIP3   OH222407   0.576   1.364  15.855 -0.0184 -0.1426  0.5790
  331TIP3    H122408   0.666   1.357  15.888 -0.1183 -0.2440  0.8302
  331TIP3    H222409   0.523   1.377  15.933 -0.1072  1.0633  0.3199
  332TIP3   OH222410   1.771   4.551   0.201  0.2003  0.0290  0.4240
  332TIP3    H122411   1.770   4.642   0.231 -0.4587  0.3712 -0.6157
  332TIP3    H222412   1.863   4.528   0.195  0.3688  0.6442  0.6240
  333TIP3   OH222413   1.371   5.234   3.029 -0.1466 -0.3370 -0.1176
  333TIP3    H122414   1.394   5.206   3.118 -0.9360 -0.8437 -0.0719
  333TIP3    H222415   1.442   5.199   2.974 -0.7344 -1.8088  0.0393
  334TIP3   OH222416   1.174   2.175   2.511 -1.0346 -0.2311  0.2752
  334TIP3    H122417   1.230   2.118   2.563  0.3237  0.7521 -0.0818
  334TIP3    H222418   1.131   2.116   2.449 -0.9672 -1.0934  1.0349
  335TIP3   OH222419   1.402   4.848   4.992 -0.0173  0.3962 -0.5066
  335TIP3    H122420   1.374   4.879   5.077 -0.5259  0.0523 -0.5473
  335TIP3    H222421   1.329   4.867   4.934  0.8339  1.8234 -1.1439
  336TIP3   OH222422   2.034   6.471  16.714  0.0501 -0.8927 -0.6249
  336TIP3    H122423   2.050   6.386  16.755 -1.6001  0.0149  1.9965
  336TIP3    H222424   1.957   6.457  16.660 -1.2706 -0.6667  1.1608
  337TIP3   OH222425   5.040   4.946  16.651 -0.4728 -0.0419  0.2215
  337TIP3    H122426   5.116   4.906  16.609 -0.5865 -0.8110  0.7470
  337TIP3    H222427   4.979   4.874  16.666 -0.3070  0.1518  2.0006
  338TIP3   OH222428   5.450   1.494  16.939 -0.6327 -0.1867  0.9038
  338TIP3    H122429   5.543   1.493  16.918 -0.5447 -1.6234  1.3112
  338TIP3    H222430   5.415   1.568  16.889  0.5714 -0.1477  0.0976
  339TIP3   OH222431   1.268   6.399  11.222 -0.2340 -0.8639  0.5687
  339TIP3    H122432   1.286   6.340  11.149 -0.3065 -1.0286  0.6828
  339TIP3    H222433   1.212   6.348  11.280 -0.2646 -0.6952  0.6872
  340TIP3   OH222434   2.720   1.616  12.137 -0.3083  0.1557  0.4025
  340TIP3    H122435   2.636   1.611  12.182 -0.7432 -1.0847 -0.5147
  340TIP3    H222436   2.707   1.678  12.066 -0.6926 -0.6117 -0.2106
  341TIP3   OH222437   3.338   3.728  16.740 -0.0701 -0.5166 -0.1478
  341TIP3    H122438   3.358   3.753  16.831 -0.6545  0.4600 -0.2823
  341TIP3    H222439   3.419   3.744  16.692  0.0719 -0.4941  0.1008
  342TIP3   OH222440   4.561   0.334  13.073  0.3948  0.6516  0.3949
  342TIP3    H122441   4.533   0.352  12.983  0.6196 -1.6880 -0.1799
  342TIP3    H222442   4.633   0.272  13.063  0.5210  0.4939  2.1998
  343TIP3   OH222443   0.045   3.297   5.371 -0.3796 -0.3477 -0.1513
  343TIP3    H122444   0.032   3.389   5.396 -1.9924 -0.3187 -1.0310
  343TIP3    H222445  -0.003   3.288   5.288  0.5107 -1.7612 -0.5259
  344TIP3   OH222446   2.075   6.714  10.687  0.3552  0.3473  0.2773
  344TIP3    H122447   2.013   6.643  10.668  0.3927  0.0733  1.1543
  344TIP3    H222448   2.134   6.678  10.753  1.5012  0.5879 -0.5894
  345TIP3   OH222449   2.680   5.916  12.066 -0.1284  0.7002 -0.4559
  345TIP3    H122450   2.775   5.907  12.071 -0.1674 -0.6027 -1.6611
  345TIP3    H222451   2.649   5.828  12.042 -1.4524  1.6016 -2.1610
  346TIP3   OH222452   2.066   1.508  14.013 -0.1062  0.6634 -0.7456
  346TIP3    H122453   2.062   1.580  13.949 -0.8459 -0.1042 -1.5723
  346TIP3    H222454   2.059   1.429  13.960 -1.3338  0.0278  0.3340
  347TIP3   OH222455   2.077   3.933  15.277 -0.3817  0.2957 -0.2934
  347TIP3    H122456   2.104   3.922  15.186 -0.3752  0.7654 -0.3529
  347TIP3    H222457   2.087   4.027  15.294  1.1850 -0.0446  0.6932
  348TIP3   OH222458   0.652   2.027   3.587  0.5413  0.3359  0.1548
  348TIP3    H122459   0.652   1.956   3.651  2.0017  1.5031  1.4960
  348TIP3    H222460   0.738   2.022   3.545  0.5590  1.1317  0.0725
  349TIP3   OH222461   4.045   1.630  10.823  0.0922  0.1090 -0.6509
  349TIP3    H122462   4.088   1.586  10.750  0.6940 -0.0827 -0.1863
  349TIP3    H222463   4.004   1.707  10.784 -0.2254 -0.3913 -1.3155
  350TIP3   OH222464   3.190   2.352  17.108  0.1744  0.0211  0.1485
  350TIP3    H122465   3.110   2.307  17.138  0.1412  0.4448  0.7153
  350TIP3    H222466   3.224   2.393  17.187  1.1353 -0.4212 -0.0299
  351TIP3   OH222467   1.447   0.812  11.166 -0.1564 -0.0015 -0.2616
  351TIP3    H122468   1.408   0.862  11.094 -0.6980  3.0349  2.0034
  351TIP3    H222469   1.372   0.769  11.208 -0.1069 -0.1469 -0.3233
  352TIP3   OH222470   1.815   5.614   6.183 -0.0326 -0.0661 -0.1650
  352TIP3    H122471   1.834   5.598   6.276 -0.9895 -0.0041  0.0427
  352TIP3    H222472   1.780   5.531   6.151 -0.1665  0.0635 -0.3540
  353TIP3   OH222473   6.646   2.964   3.546  0.2484  0.7121 -0.2842
  353TIP3    H122474   6.718   2.904   3.566 -0.2180  0.6417  1.2478
  353TIP3    H222475   6.656   2.982   3.453  1.1710 -0.7228 -0.4935
  354TIP3   OH222476   0.412   2.521  11.501 -0.1856  0.1222 -0.1364
  354TIP3    H122477   0.503   2.508  11.530 -0.5240  0.2681  1.0042
  354TIP3    H222478   0.414   2.498  11.408  0.9797 -0.0826 -0.0776
  355TIP3   OH222479   3.048   2.424  14.264  0.5988 -0.1072  0.0060
  355TIP3    H122480   3.028   2.371  14.341 -0.0170  0.3934  0.1968
  355TIP3    H222481   3.044   2.363  14.191  2.3228 -0.8301  0.4817
  356TIP3   OH222482   3.889   6.341  16.360 -0.0260 -0.5925  0.0318
  356TIP3    H122483   3.967   6.288  16.375  0.6050  0.4575  0.5012
  356TIP3    H222484   3.861   6.370  16.447 -0.6534 -0.5615 -0.1743
  357TIP3   OH222485   3.492   5.566   4.618 -0.6858  0.1509 -0.2436
  357TIP3    H122486   3.405   5.537   4.591  0.9712 -1.3857 -4.3680
  357TIP3    H222487   3.503   5.531   4.706 -3.5438 -1.1891 -0.3609
  358TIP3   OH222488   6.392   0.579   2.685  0.4173 -0.2909  0.6686
  358TIP3    H122489   6.372   0.590   2.592  0.9586 -0.9284  0.4744
  358TIP3    H222490   6.366   0.662   2.725  1.2293  0.4071 -0.2325
  359TIP3   OH222491   3.625   4.329   2.251  0.1643 -0.0481 -0.9078
  359TIP3    H122492   3.537   4.354   2.280 -0.2287  0.3848 -2.4488
  359TIP3    H222493   3.630   4.235   2.269  0.6395  0.5079  2.3262
  360TIP3   OH222494   1.683   2.371  13.407  0.7965 -0.2621 -0.1260
  360TIP3    H122495   1.757   2.315  13.384  3.2096  2.3512  1.0170
  360TIP3    H222496   1.693   2.449  13.353 -1.3443  0.0075 -0.1904
  361TIP3   OH222497   2.435   3.513  12.191  0.2879  0.3285  0.0240
  361TIP3    H122498   2.477   3.586  12.145 -0.2728  0.8379  0.3091
  361TIP3    H222499   2.362   3.554  12.239  0.0373 -0.4031  0.2708
  362TIP3   OH222500   1.846   1.634  16.788 -0.1847 -0.4444  0.0361
  362TIP3    H122501   1.814   1.619  16.699  0.8476 -1.0859 -0.2310
  362TIP3    H222502   1.941   1.634  16.780 -0.0713 -1.3395  1.2688
  363TIP3   OH222503   2.254   0.311  11.941 -0.3569  0.2253  0.0452
  363TIP3    H122504   2.247   0.403  11.916 -0.1380  0.4448  0.7701
  363TIP3    H222505   2.213   0.307  12.028  0.8151 -0.1146  0.5856
  364TIP3   OH222506   3.632   3.023  14.877  0.1593 -0.5797 -0.2001
  364TIP3    H122507   3.632   3.077  14.798 -0.6388  0.7726  0.6970
  364TIP3    H222508   3.542   2.992  14.884 -0.1801  0.6682  1.0775
  365TIP3   OH222509   1.723   2.579  15.127 -0.1713  0.2343 -0.3123
  365TIP3    H122510   1.730   2.484  15.137 -0.4756  0.1963 -0.4689
  365TIP3    H222511   1.809   2.605  15.095 -0.4670 -0.1373 -1.4230
  366TIP3   OH222512   3.861   0.215  13.871  0.2298  0.2403 -0.3491
  366TIP3    H122513   3.798   0.185  13.936 -0.0288  1.9437  0.2199
  366TIP3    H222514   3.942   0.230  13.920  0.9306 -1.4145 -0.9794
  367TIP3   OH222515   5.644   3.795  13.795  0.0443 -0.3645  0.2827
  367TIP3    H122516   5.580   3.726  13.777 -0.9640  0.2512  1.3982
  367TIP3    H222517   5.658   3.837  13.710 -0.6117 -0.8702 -0.0823
  368TIP3   OH222518   4.475   2.748  11.765 -0.4879 -0.4252  0.3045
  368TIP3    H122519   4.558   2.797  11.767 -0.5104 -0.3735  0.0412
  368TIP3    H222520   4.490   2.679  11.700  0.4840 -2.4890  2.6335
  369TIP3   OH222521   4.074   2.774  13.132  0.1320  0.5052  0.0799
  369TIP3    H122522   4.108   2.857  13.098  1.0629  1.0601  2.3004
  369TIP3    H222523   3.997   2.756  13.077  1.9176  1.0164 -2.7028
  370TIP3   OH222524   6.623   4.767   5.021 -0.6579 -0.1872  0.3359
  370TIP3    H122525   6.557   4.787   4.954 -0.1059  0.8561  0.0848
  370TIP3    H222526   6.673   4.694   4.984 -1.9560 -1.2836  0.7326
  371TIP3   OH222527   3.845   0.931   3.833 -0.1503 -0.0639 -0.2694
  371TIP3    H122528   3.861   0.911   3.925 -1.9260 -2.4458 -0.4233
  371TIP3    H222529   3.785   1.005   3.834  0.8314  0.7339  0.4467
  372TIP3   OH222530   3.857   4.044   1.329 -0.1953  0.0876 -0.3073
  372TIP3    H122531   3.797   4.007   1.393  0.0371 -1.5863 -1.0300
  372TIP3    H222532   3.929   4.080   1.381 -0.2842 -0.7634  0.3994
  373TIP3   OH222533   2.137   6.299   2.152 -0.0875  0.2379 -0.0816
  373TIP3    H122534   2.177   6.246   2.221  1.3774  0.8803 -0.4196
  373TIP3    H222535   2.210   6.325   2.096 -1.2224 -0.1071 -1.7712
  374TIP3   OH222536   5.776   0.846  16.979 -0.6722  0.4242  0.3062
  374TIP3    H122537   5.811   0.932  17.003 -0.2862  0.2006  0.5494
  374TIP3    H222538   5.787   0.793  17.058 -0.0165 -0.1187 -0.1485
  375TIP3   OH222539   2.735   0.599  15.702  0.2843 -0.2761  0.3068
  375TIP3    H122540   2.814   0.605  15.648 -0.2780  2.3349 -0.2911
  375TIP3    H222541   2.674   0.661  15.662 -2.1327 -2.3277  0.6881
  376TIP3   OH222542   4.384   4.400  12.958  0.2046 -0.2427 -0.9922
  376TIP3    H122543   4.479   4.389  12.957  0.1923 -0.2027 -2.3969
  376TIP3    H222544   4.350   4.320  12.919 -0.3287 -0.0817 -0.8587
  377TIP3   OH222545   5.933   0.892   6.550  0.0187 -0.1117  0.2277
  377TIP3    H122546   5.994   0.964   6.565 -0.8669  0.9917 -1.3790
  377TIP3    H222547   5.970   0.844   6.476 -1.1759  0.7293 -0.9440
  378TIP3   OH222548   0.400   2.008  15.873  0.0510  0.5544 -0.1292
  378TIP3    H122549   0.472   2.055  15.832  1.1032  1.3432  2.4812
  378TIP3    H222550   0.387   2.054  15.957 -1.8708 -1.0684  0.4949
  379TIP3   OH222551   2.612   2.951   4.920  0.0476 -0.4083 -0.3221
  379TIP3    H122552   2.674   3.004   4.970 -0.3700  0.7645 -1.0393
  379TIP3    H222553   2.660   2.870   4.901  1.4814  0.5974 -1.0981
  380TIP3   OH222554   4.204   3.425   3.438  0.0789  0.0429  0.1079
  380TIP3    H122555   4.171   3.479   3.510 -0.4052  2.1346 -1.6289
  380TIP3    H222556   4.286   3.466   3.413  0.4779 -0.9522 -0.2400
  381TIP3   OH222557   3.707   3.645  12.726  0.2040  0.4251  0.2583
  381TIP3    H122558   3.794   3.671  12.696  0.2628  0.6610  0.6264
  381TIP3    H222559   3.719   3.557  12.762  0.3137  0.4982  0.4022
  382TIP3   OH222560   6.432   3.192  10.994 -0.1690  0.6222 -0.0889
  382TIP3    H122561   6.406   3.100  10.993  0.5184  0.4317 -0.6269
  382TIP3    H222562   6.349   3.241  10.986 -0.4784  0.0416 -0.4503
  383TIP3   OH222563   6.146   3.893  12.334 -0.0413 -0.3075 -0.2013
  383TIP3    H122564   6.159   3.804  12.303  0.3871 -0.8370  1.4213
  383TIP3    H222565   6.181   3.892  12.424 -1.4062  1.0854  0.3672
  384TIP3   OH222566   0.171   5.227  12.299  0.1422  0.2399  0.0029
  384TIP3    H122567   0.127   5.305  12.265 -0.2506  0.4076  0.8855
  384TIP3    H222568   0.170   5.238  12.394  1.6319 -0.0068  0.0605
  385TIP3   OH222569   3.975   1.443  14.655  0.0082 -0.1899 -0.4963
  385TIP3    H122570   4.004   1.404  14.738  0.9014 -0.0686 -0.7388
  385TIP3    H222571   3.961   1.368  14.597 -0.9513 -0.2941 -0.1376
  386TIP3   OH222572   5.495   1.122   1.848  0.2834  0.2671  0.0105
  386TIP3    H122573   5.480   1.203   1.801 -0.5124 -0.1330 -0.4336
  386TIP3    H222574   5.450   1.055   1.797  2.6356 -0.7961 -0.7364
  387TIP3   OH222575   0.083   2.329   5.603 -0.1711  0.5037 -0.0091
  387TIP3    H122576   0.030   2.405   5.576 -0.7491 -0.1978 -0.8886
  387TIP3    H222577   0.028   2.253   5.583  1.0757 -0.2365 -0.7454
  388TIP3   OH222578   1.944   6.736   3.535  0.1080 -0.3700 -0.2255
  388TIP3    H122579   1.869   6.764   3.482 -0.0410  0.3339  0.3475
  388TIP3    H222580   1.909   6.668   3.593 -0.3791  0.7786  0.8559
  389TIP3   OH222581   0.002   6.218  16.502 -0.3461  0.1261 -0.0570
  389TIP3    H122582  -0.004   6.128  16.533 -0.0176  0.0526 -0.2045
  389TIP3    H222583  -0.069   6.264  16.547 -0.1957 -0.0948  0.4092
  390TIP3   OH222584   5.443   1.141  11.474  0.3194  0.1424  0.3340
  390TIP3    H122585   5.399   1.075  11.528 -0.6026 -0.6136 -1.2989
  390TIP3    H222586   5.372   1.186  11.428  1.1530 -0.2446 -1.3834
  391TIP3   OH222587   5.149   1.855  12.255  0.4622 -0.2442 -0.4731
  391TIP3    H122588   5.192   1.798  12.191 -1.7543 -0.2793 -2.0245
  391TIP3    H222589   5.197   1.937  12.251  1.0344 -0.6127 -1.3676
  392TIP3   OH222590   1.503   4.827  12.921 -0.1195 -0.6257 -0.0129
  392TIP3    H122591   1.538   4.904  12.876 -1.7177  0.0432 -0.1303
  392TIP3    H222592   1.477   4.768  12.851 -0.6446 -0.4690  0.0451
  393TIP3   OH222593   5.909   2.782   0.669  0.4051  0.6277  0.3141
  393TIP3    H122594   5.861   2.846   0.721 -0.7734 -0.4678  0.6073
  393TIP3    H222595   5.909   2.703   0.723 -1.5536 -0.7869 -1.6754
  394TIP3   OH222596   3.415   4.366  16.062  0.9290 -0.3340 -0.1757
  394TIP3    H122597   3.476   4.304  16.021 -1.1114 -1.5304 -1.5093
  394TIP3    H222598   3.334   4.316  16.075 -0.6424  1.9000 -0.8915
  395TIP3   OH222599   4.219   6.104  12.799  0.7278 -0.4430 -0.2135
  395TIP3    H122600   4.258   6.191  12.788 -0.4948  0.3126  1.2244
  395TIP3    H222601   4.293   6.044  12.805  1.5734  0.4134 -1.7942
  396TIP3   OH222602   4.691   3.838   3.473 -0.7955 -0.2497  0.7120
  396TIP3    H122603   4.780   3.804   3.483 -0.3345  0.1255 -1.6676
  396TIP3    H222604   4.703   3.932   3.461 -0.9620 -0.7668 -4.8280
  397TIP3   OH222605   6.473   5.771   4.809 -0.0853  0.1759 -0.1117
  397TIP3    H122606   6.412   5.792   4.739  1.2068  0.9212 -1.0260
  397TIP3    H222607   6.441   5.819   4.885 -1.0399 -0.0216 -0.3877
  398TIP3   OH222608   5.274   2.657   2.095  0.1224  0.1947 -0.3475
  398TIP3    H122609   5.264   2.580   2.151 -2.0991 -0.2801 -1.3313
  398TIP3    H222610   5.308   2.725   2.153 -1.5061 -0.4710  1.4310
  399TIP3   OH222611   3.916   5.686  12.093  0.6394  0.4925 -0.3432
  399TIP3    H122612   3.971   5.652  12.023  1.8757 -0.6782  1.1849
  399TIP3    H222613   3.924   5.781  12.086 -0.9565  0.4859 -3.1251
  400TIP3   OH222614   2.747   2.392   3.421  0.2901 -0.3583  0.5460
  400TIP3    H122615   2.794   2.382   3.503 -0.6747 -0.6389  1.0710
  400TIP3    H222616   2.814   2.420   3.358  0.9290  0.3512  1.5330
  401TIP3   OH222617   0.767   5.610   5.755  0.4595 -0.2837 -0.5472
  401TIP3    H122618   0.796   5.591   5.844  1.8438 -1.2206 -1.1702
  401TIP3    H222619   0.687   5.558   5.745 -0.5109  0.9594  0.6189
  402TIP3   OH222620   1.229   3.121  14.067 -0.1883  0.1899  0.1278
  402TIP3    H122621   1.246   3.190  14.131 -0.5808 -0.2500  0.7138
  402TIP3    H222622   1.312   3.108  14.023  0.1837  0.2388  0.8082
  403TIP3   OH222623   6.715   5.068   1.750 -0.4586 -0.3586 -0.2036
  403TIP3    H122624   6.785   5.036   1.806 -0.4931 -0.1467 -0.0349
  403TIP3    H222625   6.706   5.002   1.682  0.2895 -0.1063 -0.5499
  404TIP3   OH222626   5.350   2.360   2.527 -0.4273  0.0075 -0.1846
  404TIP3    H122627   5.430   2.308   2.530 -0.4388 -0.0234 -0.4027
  404TIP3    H222628   5.372   2.433   2.469 -0.4081  0.2490  0.1289
  405TIP3   OH222629   6.327   1.191  11.259  0.0415  0.6544 -0.3703
  405TIP3    H122630   6.241   1.222  11.287  0.7270  1.7492  0.5973
  405TIP3    H222631   6.310   1.137  11.182 -1.4820  1.0813 -0.3419
  406TIP3   OH222632   0.539   4.035   0.456  0.5178 -0.2488 -0.1551
  406TIP3    H122633   0.550   3.940   0.464  1.3452 -0.3262 -2.0200
  406TIP3    H222634   0.445   4.046   0.441  0.6464 -0.9148 -1.5692
  407TIP3   OH222635   5.247   3.245   1.628 -0.0034  0.5952  0.1517
  407TIP3    H122636   5.243   3.198   1.711  0.6399 -1.6609 -1.0740
  407TIP3    H222637   5.160   3.234   1.590  0.2263  0.2043 -0.2536
  408TIP3   OH222638   3.509   5.077   1.032  0.1653 -0.4237  0.1696
  408TIP3    H122639   3.476   5.163   1.060 -1.1633 -0.9542  0.2721
  408TIP3    H222640   3.580   5.098   0.971  0.5594  0.7454  1.0044
  409TIP3   OH222641   6.263   4.545  16.217 -0.7775  0.7743  0.5018
  409TIP3    H122642   6.201   4.597  16.267 -1.9328  1.6649 -1.7677
  409TIP3    H222643   6.212   4.471  16.184 -0.2406  0.6057  0.0294
  410TIP3   OH222644   4.092   4.334   2.660 -0.3207 -0.2237  0.0728
  410TIP3    H122645   4.009   4.291   2.638  0.0482 -1.2504  0.6625
  410TIP3    H222646   4.079   4.368   2.748 -1.3363  2.7419 -1.1427
  411TIP3   OH222647   2.020   2.897   1.691  0.4703  0.0036  0.0946
  411TIP3    H122648   1.992   2.900   1.782  0.7726  0.6994  0.1685
  411TIP3    H222649   2.116   2.891   1.696  0.4637 -0.3323 -0.1739
  412TIP3   OH222650   5.354   1.869   1.605 -0.3934  0.1245 -0.4486
  412TIP3    H122651   5.315   1.797   1.654  0.6202  0.0000  0.1936
  412TIP3    H222652   5.438   1.884   1.648  0.0816  0.6556 -1.5519
  413TIP3   OH222653   3.703   4.406  13.956  0.5506 -0.1922 -0.0841
  413TIP3    H122654   3.685   4.496  13.984 -2.4088 -1.4603  2.3791
  413TIP3    H222655   3.791   4.388  13.990  0.8491  1.4920  0.0939
  414TIP3   OH222656   2.904   3.279   0.399 -0.9227 -0.4960 -0.5487
  414TIP3    H122657   2.947   3.229   0.331 -1.6458 -1.0560 -0.5965
  414TIP3    H222658   2.845   3.217   0.442 -0.6207 -0.1081  0.4635
  415TIP3   OH222659   5.286   2.796   4.649 -0.0133  0.0376  0.0790
  415TIP3    H122660   5.192   2.815   4.652 -0.4749 -1.8119 -1.3700
  415TIP3    H222661   5.319   2.820   4.735 -1.8343  0.6258  0.6285
  416TIP3   OH222662   3.067   3.909  11.521  0.0604  0.1839  0.2757
  416TIP3    H122663   3.033   3.959  11.447 -2.1691 -0.3411  0.8916
  416TIP3    H222664   3.131   3.966  11.562 -1.1043  1.8155 -0.1277
  417TIP3   OH222665   3.163   1.177   0.264  0.1069 -0.4170 -0.6330
  417TIP3    H122666   3.201   1.111   0.321 -2.2374 -1.9524 -0.8044
  417TIP3    H222667   3.107   1.229   0.322 -2.7758 -2.3740 -1.5795
  418TIP3   OH222668   3.203   3.293  13.273 -0.3929 -0.2627  0.4394
  418TIP3    H122669   3.290   3.266  13.302 -0.6271  1.1110  2.5175
  418TIP3    H222670   3.146   3.221  13.297 -0.2667  0.0412  1.7060
  419TIP3   OH222671   2.494   6.298   0.139  1.0911 -0.2430 -0.1452
  419TIP3    H122672   2.553   6.246   0.085  0.9646 -1.3820  0.8063
  419TIP3    H222673   2.534   6.298   0.226  0.7052  0.6282  0.0370
  420TIP3   OH222674   6.620   2.529  12.332 -0.1465 -0.1925 -0.4212
  420TIP3    H122675   6.530   2.556  12.348 -0.0923 -0.4905  0.4323
  420TIP3    H222676   6.666   2.610  12.309 -0.6260 -0.0402 -0.8464
  421TIP3   OH222677   3.279   1.026  12.326  0.3542  0.3746 -0.2111
  421TIP3    H122678   3.244   1.085  12.392  1.4160 -0.4022  1.0719
  421TIP3    H222679   3.371   1.051  12.317  0.5241 -0.3219 -0.5015
  422TIP3   OH222680   4.472   6.437   4.146  0.0440  0.3358  0.5605
  422TIP3    H122681   4.393   6.442   4.199  0.7843  0.5171  1.6634
  422TIP3    H222682   4.539   6.478   4.200  1.0560 -0.5079 -0.0380
  423TIP3   OH222683   2.570   4.555   0.181  0.4740  0.2006  0.1181
  423TIP3    H122684   2.646   4.530   0.128  0.3507 -1.9777  0.9041
  423TIP3    H222685   2.520   4.473   0.191  0.2653  0.6429  3.1818
  424TIP3   OH222686   0.011   0.936   2.761  0.2288 -0.4596  0.4967
  424TIP3    H122687   0.005   0.908   2.853 -0.0106 -0.3707  0.5103
  424TIP3    H222688  -0.059   0.888   2.717  1.1383 -1.4546  0.1119
  425TIP3   OH222689   3.697   1.183  16.261  0.6768  0.2067 -0.2302
  425TIP3    H122690   3.659   1.096  16.274 -1.7941  0.9976 -1.8056
  425TIP3    H222691   3.775   1.168  16.208  0.4160 -1.0667 -0.2579
  426TIP3   OH222692   5.065   4.879   0.278  0.7646 -0.0619 -0.2323
  426TIP3    H122693   4.984   4.901   0.232 -0.2137 -0.1306  1.4192
  426TIP3    H222694   5.124   4.849   0.209 -1.1618 -1.5871 -1.2771
  427TIP3   OH222695   5.383   3.835  15.845 -0.2299 -0.7970 -0.3303
  427TIP3    H122696   5.450   3.790  15.794 -0.4204  0.6406 -1.8937
  427TIP3    H222697   5.419   3.922  15.861 -1.9691  0.2399 -1.8175
  428TIP3   OH222698   0.466   4.117  11.485  0.2026 -0.4797 -0.7644
  428TIP3    H122699   0.374   4.121  11.511  0.9798  1.2077  1.8481
  428TIP3    H222700   0.491   4.027  11.501 -1.1377 -1.1386 -2.1517
  429TIP3   OH222701   2.356   3.996   3.714  0.7682 -0.2022 -0.2967
  429TIP3    H122702   2.388   3.927   3.656  0.0462 -2.0866  1.4945
  429TIP3    H222703   2.260   3.987   3.711  0.6848  0.4204  0.3249
  430TIP3   OH222704   0.557   0.360   3.775  0.0500  0.4216 -0.3270
  430TIP3    H122705   0.564   0.422   3.702  1.3844  2.3877  1.4315
  430TIP3    H222706   0.585   0.409   3.852 -1.1123 -1.6930  1.5093
  431TIP3   OH222707   0.818   0.640  16.935 -0.5371  0.4327 -0.5460
  431TIP3    H122708   0.873   0.596  17.000  0.4615  1.5518 -0.6154
  431TIP3    H222709   0.787   0.569  16.878  0.2149 -0.3020 -0.0573
  432TIP3   OH222710   0.372   2.732   6.064 -0.2494 -0.6716 -0.1724
  432TIP3    H122711   0.301   2.686   6.108 -1.8472  1.0531 -0.8503
  432TIP3    H222712   0.381   2.687   5.980 -0.6393 -0.8222 -0.1370
  433TIP3   OH222713   4.079   4.767  15.820  0.3905 -0.1018  0.1589
  433TIP3    H122714   4.113   4.713  15.748 -1.3635  0.8163 -1.4092
  433TIP3    H222715   4.125   4.850  15.811  0.0673  0.0609  0.0199
  434TIP3   OH222716   0.890   3.534   3.511  0.1100  0.6412 -0.2910
  434TIP3    H122717   0.864   3.484   3.433 -1.2929  0.9076 -0.0062
  434TIP3    H222718   0.810   3.579   3.538  0.6438  0.7227  1.1830
  435TIP3   OH222719   3.615   3.491   6.229 -0.4220 -0.3734 -0.7907
  435TIP3    H122720   3.584   3.482   6.319  0.1155  3.4914 -0.1690
  435TIP3    H222721   3.535   3.485   6.176 -0.7377 -2.6857 -0.1095
  436TIP3   OH222722   0.026   1.684  15.058 -0.6130 -0.2164 -0.7704
  436TIP3    H122723  -0.012   1.651  14.977  1.2452 -1.4785 -1.1842
  436TIP3    H222724   0.077   1.610  15.092  0.8539  1.1524  0.1127
  437TIP3   OH222725   3.031   1.885   4.349  0.2950  0.2552  0.1770
  437TIP3    H122726   3.092   1.821   4.385  1.2581  0.5873 -0.8414
  437TIP3    H222727   2.945   1.843   4.358  0.8240 -0.8502  0.2312
  438TIP3   OH222728   1.973   3.968   4.641 -0.7341  0.4601 -0.0927
  438TIP3    H122729   1.994   3.880   4.608 -1.2860 -0.3527  1.6953
  438TIP3    H222730   1.912   4.004   4.576 -1.1304 -0.7783 -0.4203
  439TIP3   OH222731   4.440   6.445   2.089 -0.2131 -0.0672 -0.8132
  439TIP3    H122732   4.410   6.528   2.052 -0.7627 -0.0315 -0.2892
  439TIP3    H222733   4.360   6.395   2.104 -0.0384  0.0843  0.7087
  440TIP3   OH222734   0.211   5.478  17.040 -0.5927 -0.1563  0.0583
  440TIP3    H122735   0.146   5.412  17.016  0.4730 -1.7386  1.3901
  440TIP3    H222736   0.194   5.552  16.982 -1.9557 -1.5266 -1.3032
  441TIP3   OH222737   5.550   4.669   5.444 -0.2210 -0.2071 -0.6073
  441TIP3    H122738   5.507   4.709   5.520  0.1409 -1.4556  0.2811
  441TIP3    H222739   5.643   4.669   5.466 -0.2409 -1.8192 -0.4135
  442TIP3   OH222740   3.161   6.242  17.137 -0.4065  0.2103 -0.1570
  442TIP3    H122741   3.090   6.303  17.119 -0.0367  0.2545 -1.4713
  442TIP3    H222742   3.215   6.286  17.203 -1.2516  0.4329  0.3952
  443TIP3   OH222743   5.059   5.969   5.676 -0.1653  0.4083  0.0256
  443TIP3    H122744   5.149   5.979   5.645 -0.6477 -2.0266 -2.4142
  443TIP3    H222745   5.021   6.057   5.669  2.1945  1.6374  1.8503
  444TIP3   OH222746   4.428   3.692  12.159  0.1053 -0.1793  0.1424
  444TIP3    H122747   4.475   3.610  12.145  0.2140  0.1650 -1.6735
  444TIP3    H222748   4.494   3.753  12.191  0.2338 -0.5225  0.5352
  445TIP3   OH222749   3.433   1.022  16.634 -0.1657 -0.3424 -0.4594
  445TIP3    H122750   3.415   1.116  16.638 -0.1812 -0.3924  1.1647
  445TIP3    H222751   3.353   0.981  16.669  0.7281 -0.8338  1.0808
  446TIP3   OH222752   3.585   1.865  16.326 -0.2019 -0.0157  0.1605
  446TIP3    H122753   3.629   1.899  16.404 -1.8887  1.5087  0.4962
  446TIP3    H222754   3.518   1.806  16.361 -0.5653  0.2056 -0.1649
  447TIP3   OH222755   3.970   0.161  15.597 -0.6501  0.3347  0.1422
  447TIP3    H122756   3.982   0.231  15.661  2.9147 -1.0009  1.0388
  447TIP3    H222757   3.884   0.124  15.617 -0.9301  1.9799  2.0842
  448TIP3   OH222758   0.087   2.975   1.523 -0.6834  0.2421  0.6186
  448TIP3    H122759   0.036   3.021   1.589 -0.3591 -2.3633  2.7620
  448TIP3    H222760   0.039   2.893   1.508  1.9276 -1.4974  1.4475
  449TIP3   OH222761   1.515   4.883   2.912 -0.0397 -0.5011  0.0234
  449TIP3    H122762   1.544   4.966   2.873  0.3846 -0.4733  0.3944
  449TIP3    H222763   1.420   4.891   2.916  0.1174  0.9149  2.1305
  450TIP3   OH222764   5.134   2.278   4.480  0.0420  0.2271 -0.4548
  450TIP3    H122765   5.069   2.233   4.426  0.5262  0.1635 -0.9903
  450TIP3    H222766   5.094   2.363   4.499 -0.8279 -0.3807  0.4669
  451TIP3   OH222767   0.507   0.740  13.769  0.6172 -0.0491 -0.1210
  451TIP3    H122768   0.549   0.683  13.833 -0.2745 -0.0315  0.4792
  451TIP3    H222769   0.488   0.821  13.817  0.1888  0.0659 -0.4788
  452TIP3   OH222770   1.133   3.809  16.140 -0.1327  0.8215 -0.5680
  452TIP3    H122771   1.180   3.749  16.198 -1.4658  0.1932 -0.1282
  452TIP3    H222772   1.182   3.806  16.058 -0.0929 -0.7534 -0.4947
  453TIP3   OH222773   0.459   0.092   1.243 -0.3128  0.1434 -0.5108
  453TIP3    H122774   0.370   0.085   1.275 -0.4710  0.5918 -0.8515
  453TIP3    H222775   0.454   0.154   1.171  0.6523  1.8711  0.8811
  454TIP3   OH222776   5.545   4.615   4.077  0.3008  0.4318 -0.7886
  454TIP3    H122777   5.591   4.690   4.040 -1.0237  0.6733 -1.9914
  454TIP3    H222778   5.458   4.618   4.036  0.2211 -1.7342 -0.8278
  455TIP3   OH222779   1.840   4.831   3.324 -0.0902 -0.0120 -0.2868
  455TIP3    H122780   1.769   4.849   3.262 -1.7503  1.4035  1.9568
  455TIP3    H222781   1.818   4.746   3.363  1.0335 -0.9751 -1.6882
  456TIP3   OH222782   2.619   0.765  14.247 -0.1695  0.5212  0.1183
  456TIP3    H122783   2.545   0.824  14.256 -1.0710 -0.3288 -1.4963
  456TIP3    H222784   2.580   0.678  14.239  0.9717  0.0949 -1.0772
  457TIP3   OH222785   1.219   1.075   2.943  0.4168 -0.0783 -0.0347
  457TIP3    H122786   1.145   1.016   2.926  0.2050  0.3986 -0.7949
  457TIP3    H222787   1.295   1.017   2.949  0.3467 -0.3503 -1.6783
  458TIP3   OH222788   2.183   0.598   6.484 -0.1133  0.4348  0.0065
  458TIP3    H122789   2.272   0.624   6.459 -0.2584  0.9102 -0.0252
  458TIP3    H222790   2.193   0.563   6.572  0.6173 -2.4715 -1.1785
  459TIP3   OH222791   1.029   5.582  15.573  0.3667 -0.1318  0.7484
  459TIP3    H122792   0.957   5.645  15.564  2.4078  1.7912 -4.6626
  459TIP3    H222793   1.105   5.637  15.590  1.4241 -1.5840  0.7058
  460TIP3   OH222794   0.491   2.056  13.282  0.1569  0.4398 -0.0508
  460TIP3    H122795   0.514   2.042  13.190  1.5602 -2.1369  0.6581
  460TIP3    H222796   0.438   1.979  13.305  0.3006  0.7820  1.4670
  461TIP3   OH222797   2.165   6.557  16.951  0.2818  0.1431  0.0555
  461TIP3    H122798   2.174   6.581  17.043  0.8087 -1.4620  0.4271
  461TIP3    H222799   2.253   6.563  16.915  0.3689 -0.9111  0.0771
  462TIP3   OH222800   6.579   1.748  10.956  0.1088  0.2823  0.5044
  462TIP3    H122801   6.631   1.801  10.896  1.5257  0.4021  1.8154
  462TIP3    H222802   6.604   1.778  11.043 -2.8588  1.0160  1.1829
  463TIP3   OH222803   5.140   0.920   1.474 -0.3138  0.3462 -0.3895
  463TIP3    H122804   5.115   0.832   1.445 -0.5675  0.5574 -0.8190
  463TIP3    H222805   5.092   0.978   1.416  0.1086  0.7673 -0.3171
  464TIP3   OH222806   3.991   2.462   1.936 -0.0158  0.0268  1.0112
  464TIP3    H122807   3.970   2.556   1.943 -2.9402 -0.6727  2.5875
  464TIP3    H222808   3.942   2.432   1.859  1.0383 -0.1969  0.4174
  465TIP3   OH222809   2.298   3.051   5.142  0.0599  0.1673  0.1763
  465TIP3    H122810   2.378   3.019   5.185  0.7276  2.7462  0.9559
  465TIP3    H222811   2.328   3.085   5.058 -0.5633 -0.7670 -0.4302
  466TIP3   OH222812   2.032   0.075   2.380  0.4081 -0.0934  0.0454
  466TIP3    H122813   1.950   0.108   2.341  0.0346  0.4525  1.2871
  466TIP3    H222814   2.018  -0.019   2.387 -0.3627  0.0744  0.8312
  467TIP3   OH222815   6.067   1.151   3.030  0.2183 -0.1010 -0.1433
  467TIP3    H122816   6.040   1.093   2.959 -1.5597 -0.5635  0.8647
  467TIP3    H222817   6.030   1.236   3.006 -0.4152 -0.2657  0.2098
  468TIP3   OH222818   3.262   6.365  16.781  0.5188 -0.0585 -0.0483
  468TIP3    H122819   3.260   6.412  16.697 -1.7068  0.2849  0.1868
  468TIP3    H222820   3.210   6.286  16.765  3.3078 -1.9638 -0.1059
  469TIP3   OH222821   2.669   4.828   0.129  0.2497  0.4696 -0.0669
  469TIP3    H122822   2.671   4.860   0.219 -1.2161  0.7979 -0.1500
  469TIP3    H222823   2.633   4.739   0.135 -0.3002  0.6688 -0.3779
  470TIP3   OH222824   3.704   6.093   3.571 -0.0261  0.1360  0.2984
  470TIP3    H122825   3.710   6.173   3.518  2.3445  0.5868  1.2024
  470TIP3    H222826   3.788   6.087   3.616 -1.1268 -1.4904  2.2463
  471TIP3   OH222827   2.443   3.034  10.703  0.0916  0.1735 -0.0642
  471TIP3    H122828   2.493   2.998  10.776 -0.1011  0.7119  0.3412
  471TIP3    H222829   2.377   2.968  10.683 -0.0604  0.1617  0.4634
  472TIP3   OH222830   0.678   4.808   5.846 -0.6906  0.4007  0.4071
  472TIP3    H122831   0.669   4.859   5.926 -0.7099 -0.8776  1.2444
  472TIP3    H222832   0.603   4.749   5.847  0.4604 -1.1257  0.5919
  473TIP3   OH222833   4.934   5.239   4.646  0.3622 -0.7588 -0.0296
  473TIP3    H122834   4.838   5.234   4.640  0.2953 -0.6097  0.8145
  473TIP3    H222835   4.956   5.186   4.723  0.6400  1.9404  1.8246
  474TIP3   OH222836   6.227   3.623  11.762 -0.2569 -0.1716 -0.3653
  474TIP3    H122837   6.205   3.669  11.843  0.3200 -0.4867 -0.0289
  474TIP3    H222838   6.171   3.546  11.762 -0.3753 -0.0859 -0.3450
  475TIP3   OH222839   1.707   4.223  12.517 -0.1430  0.0793 -0.0489
  475TIP3    H122840   1.735   4.191  12.431  1.8352 -0.3188  0.7253
  475TIP3    H222841   1.715   4.147  12.575  1.4628  1.1104  1.1238
  476TIP3   OH222842   3.427   3.354   0.726 -0.5095  0.0668 -0.1870
  476TIP3    H122843   3.500   3.315   0.678 -0.5553 -0.3286  0.0642
  476TIP3    H222844   3.349   3.324   0.679 -0.4886  0.9468 -0.7900
  477TIP3   OH222845   6.250   3.747  16.232 -0.0343 -0.5199 -0.4057
  477TIP3    H122846   6.222   3.733  16.142  1.5229 -0.7395 -0.8684
  477TIP3    H222847   6.260   3.842  16.239 -0.2380 -0.4959 -0.4409
  478TIP3   OH222848   3.547   5.076  11.543  0.5496  0.0095  0.0517
  478TIP3    H122849   3.458   5.088  11.578  0.0259  0.1817 -1.3272
  478TIP3    H222850   3.571   4.987  11.570  1.2505  1.0811  3.2179
  479TIP3   OH222851   4.992   2.762  13.001  0.2908  0.3607  0.2449
  479TIP3    H122852   4.904   2.734  13.024 -0.1649  0.5947 -1.1927
  479TIP3    H222853   4.997   2.853  13.032  0.1814  0.2132  0.7045
  480TIP3   OH222854   3.022   1.557   5.134 -0.3527  0.0035  0.4919
  480TIP3    H122855   2.996   1.493   5.200 -0.4568 -0.3952  0.0714
  480TIP3    H222856   2.965   1.632   5.150  0.0837  0.1624  1.2771
  481TIP3   OH222857   6.278   1.801   2.605 -0.0386  0.2544  0.2854
  481TIP3    H122858   6.350   1.791   2.544 -0.8519  2.1605 -1.0240
  481TIP3    H222859   6.311   1.763   2.687  1.3513 -1.5646 -1.0728
  482TIP3   OH222860   6.583   2.942   0.923  0.0734 -0.3266 -0.3614
  482TIP3    H122861   6.584   2.978   0.834 -1.3310 -1.6530 -0.9308
  482TIP3    H222862   6.527   3.001   0.973 -1.6359 -1.2736 -1.1164
  483TIP3   OH222863   0.765   4.580   3.170  0.0745 -0.1490 -0.1624
  483TIP3    H122864   0.679   4.544   3.189  0.1097  0.1203  0.5303
  483TIP3    H222865   0.790   4.541   3.086 -0.8119 -0.0553 -0.4745
  484TIP3   OH222866   5.577   3.440   4.109  0.0829 -0.2226  0.9675
  484TIP3    H122867   5.551   3.447   4.017  0.1066 -1.6928  0.8307
  484TIP3    H222868   5.642   3.509   4.121 -2.4135  2.2599  0.8029
  485TIP3   OH222869   1.938   3.841   4.158  0.4957  0.0270  0.4180
  485TIP3    H122870   1.909   3.835   4.248 -0.0973 -1.6968  0.1411
  485TIP3    H222871   1.866   3.883   4.111  0.2845 -0.2240  0.5189
  486TIP3   OH222872   1.393   6.003   1.454 -0.2162  0.0157 -0.2198
  486TIP3    H122873   1.410   5.914   1.424  0.5234 -0.9649  2.8246
  486TIP3    H222874   1.310   5.998   1.501 -1.0447  1.3223 -1.5203
  487TIP3   OH222875   2.899   5.110   4.486  0.0852 -0.0968  0.1985
  487TIP3    H122876   2.806   5.120   4.465  0.0757  1.9672  1.0516
  487TIP3    H222877   2.944   5.160   4.418  0.4886  0.1424  0.6444
  488TIP3   OH222878   3.469   0.743  14.839 -0.0862 -0.0818  0.3244
  488TIP3    H122879   3.485   0.837  14.848  0.5126 -0.3960  2.8431
  488TIP3    H222880   3.555   0.704  14.827 -0.4248 -0.2321 -1.8271
  489TIP3   OH222881   3.042   3.590  10.884  0.8179 -0.5655  0.4490
  489TIP3    H122882   3.101   3.661  10.907  0.5710 -0.6452  1.3415
  489TIP3    H222883   3.012   3.555  10.968  0.2900 -1.1808  0.0125
  490TIP3   OH222884   2.162   3.678  12.199  0.1751  0.5107 -0.9198
  490TIP3    H122885   2.176   3.749  12.137  1.6312 -1.4214 -2.8467
  490TIP3    H222886   2.086   3.631  12.165 -0.1151  0.4792 -0.2458
  491TIP3   OH222887   5.032   1.893  13.432 -0.3891  0.2062  0.0488
  491TIP3    H122888   4.956   1.836  13.418  0.4956 -0.7097 -1.0801
  491TIP3    H222889   5.108   1.835  13.423  0.5308  1.5892 -1.3064
  492TIP3   OH222890   2.629   0.401  16.258  0.1835  0.7673  0.2756
  492TIP3    H122891   2.699   0.348  16.218  0.3657 -0.0521  1.6352
  492TIP3    H222892   2.568   0.418  16.187  0.8055 -0.1557 -0.4930
  493TIP3   OH222893   0.498   1.735   0.171  0.0180 -0.1448  0.4753
  493TIP3    H122894   0.453   1.664   0.217  0.6023 -1.6239 -1.1847
  493TIP3    H222895   0.427   1.789   0.134 -0.4293  0.2766  1.9274
  494TIP3   OH222896   5.159   3.496  15.456 -0.1675  0.7738  0.1188
  494TIP3    H122897   5.113   3.522  15.376  1.4726  0.4110 -0.9724
  494TIP3    H222898   5.136   3.563  15.520 -0.1369  2.0198 -1.1570
  495TIP3   OH222899   5.721   0.380   5.231 -0.1765  0.1617 -0.2571
  495TIP3    H122900   5.698   0.293   5.198  2.1943 -0.3455 -0.6783
  495TIP3    H222901   5.747   0.429   5.153 -0.4990  0.9143  0.1087
  496TIP3   OH222902   4.772   3.686  14.887 -0.2418  0.0925  0.3609
  496TIP3    H122903   4.692   3.638  14.866 -1.9940  2.2338  1.7955
  496TIP3    H222904   4.831   3.621  14.924 -1.6098 -1.3987 -0.0446
  497TIP3   OH222905   3.126   3.266   4.605 -0.7320  0.2423  0.0824
  497TIP3    H122906   3.051   3.310   4.566 -0.7531  0.8283  0.7665
  497TIP3    H222907   3.127   3.179   4.566 -2.1847 -0.0146  0.5895
  498TIP3   OH222908   5.728   1.038   2.663  0.3710  0.2218 -0.4527
  498TIP3    H122909   5.742   1.081   2.579  1.5735  0.6932 -0.0164
  498TIP3    H222910   5.768   0.952   2.654 -1.7307 -0.7011 -1.2071
  499TIP3   OH222911   1.045   3.463  16.987  0.3626  0.1810  0.2163
  499TIP3    H122912   1.123   3.424  16.948  0.3269  0.7047 -0.4000
  499TIP3    H222913   0.995   3.496  16.912  0.5303  1.6444  0.7302
  500TIP3   OH222914   6.781   5.854   3.199 -0.0483  0.5741 -0.1415
  500TIP3    H122915   6.840   5.928   3.183  0.2061  0.2135 -0.9356
  500TIP3    H222916   6.831   5.778   3.170 -0.0575  0.0206  1.2895
  501TIP3   OH222917   4.212   0.288  16.330  0.1061 -0.6357  0.1286
  501TIP3    H122918   4.156   0.261  16.258 -0.6389  0.3627  0.3202
  501TIP3    H222919   4.294   0.315  16.288  0.6906 -2.7098 -0.0930
  502TIP3   OH222920   4.876   6.376  12.214 -0.1372  0.0658 -0.0779
  502TIP3    H122921   4.969   6.386  12.237  0.2666 -0.8538 -1.2360
  502TIP3    H222922   4.877   6.358  12.120 -1.3951 -1.4150  0.1757
  503TIP3   OH222923   6.777   2.161  11.960  0.2351  0.5603 -0.3221
  503TIP3    H122924   6.796   2.146  11.867  4.2676  0.0105  0.5239
  503TIP3    H222925   6.738   2.248  11.963 -2.3623 -0.4439 -2.7699
  504TIP3   OH222926   0.307   1.900  16.163 -0.0353 -0.0028  0.2318
  504TIP3    H122927   0.372   1.837  16.132  0.7830  1.4322 -1.0326
  504TIP3    H222928   0.233   1.846  16.192  1.3623 -1.6090  0.8740
  505TIP3   OH222929   6.430   0.249   1.402  0.0235  0.0638  0.0915
  505TIP3    H122930   6.432   0.168   1.454  0.7151  0.6565  0.9939
  505TIP3    H222931   6.359   0.235   1.340  0.7276 -1.6137 -0.3551
  506TIP3   OH222932   2.153   3.925  14.470 -0.3514  0.0655  0.1504
  506TIP3    H122933   2.245   3.909  14.491 -0.3069 -0.5220 -0.4837
  506TIP3    H222934   2.126   3.993  14.532 -0.3734 -2.0152  2.5078
  507TIP3   OH222935   6.114   3.526  13.125 -0.1966 -0.0400 -0.4941
  507TIP3    H122936   6.177   3.493  13.190 -0.9346  0.3730  0.4464
  507TIP3    H222937   6.039   3.556  13.178 -0.5664  0.8289 -1.5029
  508TIP3   OH222938   5.098   5.183   0.608 -0.3454 -0.0789  0.4008
  508TIP3    H122939   5.035   5.226   0.667  0.0541 -1.0528  1.5438
  508TIP3    H222940   5.176   5.170   0.661  0.6053  0.5268 -0.8344
  509TIP3   OH222941   6.135   4.736  16.884  0.1222 -0.9998 -0.0124
  509TIP3    H122942   6.117   4.819  16.929 -1.6754 -1.0182 -0.6529
  509TIP3    H222943   6.124   4.669  16.952 -0.5127 -0.8704  0.0133
  510TIP3   OH222944   5.773   2.905   3.455 -0.0384 -0.0514 -0.3204
  510TIP3    H122945   5.703   2.871   3.510 -1.1116  1.8108 -0.4868
  510TIP3    H222946   5.812   2.828   3.414 -0.2422 -1.3226  1.8245
  511TIP3   OH222947   2.643   5.149   4.394  0.2393 -0.0122 -0.6024
  511TIP3    H122948   2.612   5.229   4.435 -2.5090 -1.0664 -0.5544
  511TIP3    H222949   2.587   5.080   4.429  1.3370 -1.7094 -2.0616
  512TIP3   OH222950   5.625   2.720  14.160 -0.0015  0.0531  0.0981
  512TIP3    H122951   5.619   2.716  14.064 -1.3378 -0.4511  0.1846
  512TIP3    H222952   5.707   2.765  14.177 -1.0772  2.6839 -1.3417
  513TIP3   OH222953   2.435   1.863  14.622 -0.5761  0.2790 -0.1915
  513TIP3    H122954   2.467   1.826  14.704 -0.2369  2.1106  0.5313
  513TIP3    H222955   2.484   1.817  14.554  0.8834  0.4376  0.7407
  514TIP3   OH222956   3.434   4.184  12.339  0.1951 -0.1984 -0.7321
  514TIP3    H122957   3.450   4.277  12.322 -0.4342 -0.1118 -0.8560
  514TIP3    H222958   3.461   4.171  12.429  0.7921 -0.0126 -0.8825
  515TIP3   OH222959   6.090   3.697   1.417 -0.0164 -0.5488 -0.2055
  515TIP3    H122960   6.015   3.647   1.448 -0.4368 -0.9360 -1.7953
  515TIP3    H222961   6.129   3.734   1.496 -2.1397  0.0237  0.5965
  516TIP3   OH222962   4.079   5.195  12.393  0.0005  0.1354 -0.4482
  516TIP3    H122963   4.119   5.108  12.403  2.4248  1.0698 -1.6807
  516TIP3    H222964   4.146   5.256  12.423 -3.0018  1.5161  3.9913
  517TIP3   OH222965   2.543   5.984   5.000  0.0057  1.0842  0.0267
  517TIP3    H122966   2.476   6.044   5.034  0.9773  1.1693  1.8556
  517TIP3    H222967   2.588   5.952   5.078 -0.9829 -2.6662 -0.8362
  518TIP3   OH222968   2.265   4.279  16.988  0.6493 -0.2721  0.0898
  518TIP3    H122969   2.282   4.244  17.076 -0.4246 -0.8824  0.0621
  518TIP3    H222970   2.182   4.325  16.996  1.2845  0.9517 -0.2556
  519TIP3   OH222971   2.517   6.731   3.203  0.5813  0.2689  0.1143
  519TIP3    H122972   2.579   6.694   3.140  2.1507 -0.5102  2.0828
  519TIP3    H222973   2.545   6.823   3.212  1.9480 -0.2740  1.5648
  520TIP3   OH222974   4.139   3.359   4.689 -0.2999 -0.2345 -0.0033
  520TIP3    H122975   4.073   3.349   4.620  0.0530 -1.0415 -0.2267
  520TIP3    H222976   4.207   3.414   4.649 -0.2762 -0.3824 -0.1661
  521TIP3   OH222977   1.976   6.181   4.637  0.0516 -0.0279 -0.0779
  521TIP3    H122978   1.941   6.143   4.556  1.6331 -1.5591 -0.0805
  521TIP3    H222979   1.991   6.273   4.616  0.4292 -0.4097 -1.5346
  522TIP3   OH222980   5.686   2.340  11.899  0.1414 -0.1981 -0.5035
  522TIP3    H122981   5.634   2.291  11.962 -1.1908 -0.6915 -1.9593
  522TIP3    H222982   5.774   2.303  11.907 -0.1578 -0.6861  0.6118
  523TIP3   OH222983   3.692   1.789  10.524  0.7736  0.1628  0.5475
  523TIP3    H122984   3.714   1.871  10.479  2.3939  0.3012  1.5556
  523TIP3    H222985   3.720   1.803  10.614  0.1629 -1.1495  0.9474
  524TIP3   OH222986   2.974   1.743   4.603 -0.3982  0.0398  0.2160
  524TIP3    H122987   3.044   1.701   4.653 -0.5657 -0.1164  0.3222
  524TIP3    H222988   2.987   1.836   4.618  0.4804  0.0695 -0.7024
  525TIP3   OH222989   1.990   2.641   5.143 -0.1541  0.3803 -0.1675
  525TIP3    H122990   2.051   2.579   5.185 -2.0276 -1.6542 -0.3303
  525TIP3    H222991   2.000   2.624   5.049 -0.4379  0.5553 -0.2299
  526TIP3   OH222992   1.469   3.052   3.993 -0.7017  0.9117  0.0146
  526TIP3    H122993   1.382   3.016   3.974 -0.0116 -0.3259 -0.8173
  526TIP3    H222994   1.460   3.146   3.978 -2.3207  1.0190  1.4588
  527TIP3   OH222995   1.423   3.639   0.930 -0.4417  0.1785 -0.4908
  527TIP3    H122996   1.494   3.665   0.989 -0.3777  2.5686 -1.5539
  527TIP3    H222997   1.414   3.545   0.944  1.0299  0.3132  1.7227
  528TIP3   OH222998   3.205   5.823   3.610 -0.0562  0.1215 -0.6532
  528TIP3    H122999   3.299   5.810   3.600  0.3683  2.0105  0.4496
  528TIP3    H223000   3.182   5.888   3.544  0.1368  2.3075  1.3400
  529TIP3   OH223001   2.965   2.117  15.525 -0.0856  0.0959 -0.2380
  529TIP3    H123002   2.992   2.057  15.456 -0.1080 -2.2774  1.7410
  529TIP3    H223003   2.872   2.098  15.539 -0.8289  2.5774 -1.4678
  530TIP3   OH223004   0.638   5.314   3.705  0.0925 -0.6966 -0.5654
  530TIP3    H123005   0.632   5.221   3.687  0.8764 -0.6420 -1.1343
  530TIP3    H223006   0.595   5.325   3.790 -0.2984 -1.5174 -0.6545
  531TIP3   OH223007   5.032   1.281   3.473  0.2340  0.9184 -0.2605
  531TIP3    H123008   5.121   1.289   3.439  0.4370  1.5325  0.4040
  531TIP3    H223009   4.976   1.289   3.396  0.7487  0.7368 -0.6538
  532TIP3   OH223010   5.394   1.222   4.063  0.2859 -0.2172  0.9342
  532TIP3    H123011   5.403   1.132   4.094  1.1972 -0.2543  0.5628
  532TIP3    H223012   5.304   1.228   4.032 -0.0806 -0.7137  1.8796
  533TIP3   OH223013   2.874   5.433  11.635  0.3450 -0.1427 -0.4226
  533TIP3    H123014   2.890   5.348  11.592 -0.0538 -0.5035  0.1429
  533TIP3    H223015   2.830   5.485  11.568 -0.3958 -0.7534 -0.4207
  534TIP3   OH223016   6.508   4.102   0.216 -0.0924  0.5674 -0.1930
  534TIP3    H123017   6.419   4.099   0.252  0.4310  0.2455  1.1017
  534TIP3    H223018   6.564   4.117   0.292  0.9989  0.3573 -0.9505
  535TIP3   OH223019   5.854   3.685   0.973  0.1136 -0.1912 -0.4385
  535TIP3    H123020   5.780   3.624   0.970 -0.1028  0.0372  0.0889
  535TIP3    H223021   5.813   3.770   0.990  0.1850  0.5281 -3.5285
  536TIP3   OH223022   5.693   3.387  15.554  0.2276 -0.0581 -0.5869
  536TIP3    H123023   5.640   3.416  15.481 -0.2709 -0.0838 -0.2392
  536TIP3    H223024   5.777   3.433  15.543  0.4760 -0.7522 -1.6662
  537TIP3   OH223025   5.440   0.912   4.916 -0.0910  0.0804  0.2602
  537TIP3    H123026   5.347   0.890   4.907 -0.2387  0.4340  0.8992
  537TIP3    H223027   5.467   0.938   4.828 -1.5393  3.6802  0.8086
  538TIP3   OH223028   6.214   5.678  12.319 -0.2490 -0.6028  0.3627
  538TIP3    H123029   6.231   5.761  12.274  0.2029  0.4764  2.4903
  538TIP3    H223030   6.214   5.613  12.248 -1.7665  1.3309 -1.4918
  539TIP3   OH223031   6.519   5.355  14.337 -0.2849 -0.1875  0.5490
  539TIP3    H123032   6.611   5.365  14.315 -0.2266  0.4466  1.0424
  539TIP3    H223033   6.472   5.379  14.258 -0.0366 -0.0731  0.4359
  540TIP3   OH223034   5.414   0.533  12.601 -0.0148 -0.2090  0.3174
  540TIP3    H123035   5.442   0.591  12.531 -0.8132  0.4532  0.5289
  540TIP3    H223036   5.486   0.471  12.613  0.6627  0.4849 -0.1946
  541TIP3   OH223037   1.334   5.295  15.797 -0.3039 -0.6875 -0.0460
  541TIP3    H123038   1.370   5.285  15.885  0.8983 -0.9461 -0.5518
  541TIP3    H223039   1.268   5.364  15.806  0.5389  0.0242  0.8506
  542TIP3   OH223040   1.738   0.632   5.567 -0.1570  0.3933 -0.3674
  542TIP3    H123041   1.664   0.664   5.619 -0.7494 -0.3413 -0.7506
  542TIP3    H223042   1.698   0.581   5.497  0.7167  0.0377 -0.6167
  543TIP3   OH223043   6.378   0.230   3.553 -0.3667  0.3484 -0.0640
  543TIP3    H123044   6.339   0.218   3.467  0.1505  3.4836 -0.8179
  543TIP3    H223045   6.304   0.234   3.613 -0.9155  1.2110 -0.7938
  544TIP3   OH223046   6.153   6.542  16.116 -0.4173  0.7808  0.3219
  544TIP3    H123047   6.204   6.466  16.087 -1.0993  0.5560 -0.3087
  544TIP3    H223048   6.152   6.600  16.040 -2.8383 -0.1365 -0.3835
  545TIP3   OH223049   0.648   6.355   3.127  0.2369 -0.0854 -0.3246
  545TIP3    H123050   0.724   6.398   3.165  0.3653 -0.6911  0.1091
  545TIP3    H223051   0.636   6.276   3.180 -0.7340  0.0395 -0.3414
  546TIP3   OH223052   1.925   5.413   1.120  0.4715  0.4839  0.0103
  546TIP3    H123053   1.845   5.366   1.097  1.0463  0.5214 -2.2217
  546TIP3    H223054   1.910   5.445   1.209 -1.8206  0.1477 -0.2276
  547TIP3   OH223055   1.438   4.797   1.485  0.4915  0.1004  0.7807
  547TIP3    H123056   1.436   4.703   1.470 -0.8748  0.2570 -0.1559
  547TIP3    H223057   1.490   4.832   1.414 -2.1250  0.3901 -1.0660
  548TIP3   OH223058   5.036   0.879  12.481 -0.4053 -0.9897 -0.0724
  548TIP3    H123059   5.059   0.907  12.392  0.4768 -0.3974  0.3283
  548TIP3    H223060   4.979   0.948  12.514  0.3175 -0.5470  0.2745
  549TIP3   OH223061   4.654   3.465  13.292  0.0632 -0.1317 -0.1701
  549TIP3    H123062   4.732   3.508  13.328  0.2752 -1.1885  0.6890
  549TIP3    H223063   4.607   3.432  13.369 -1.2436  0.5113 -0.6810
  550TIP3   OH223064   2.980   6.663  17.126 -0.0740 -0.4697  0.3095
  550TIP3    H123065   2.891   6.698  17.121 -0.2941 -0.9196  1.0285
  550TIP3    H223066   3.031   6.720  17.068 -0.1711  1.7874  2.3447
  551TIP3   OH223067   5.419   4.745   2.517 -0.2412  0.0226 -0.3522
  551TIP3    H123068   5.360   4.804   2.471 -0.8945 -0.0540  0.3877
  551TIP3    H223069   5.431   4.785   2.603  0.6202 -0.0705 -0.4166
  552TIP3   OH223070   3.355   5.781  11.720 -0.6881  0.4811  0.1657
  552TIP3    H123071   3.406   5.751  11.795 -0.0595  0.9043 -0.0845
  552TIP3    H223072   3.309   5.703  11.689  0.7280 -0.1888 -0.3252
  553TIP3   OH223073   5.298   4.338  11.266  0.0187 -0.2531  0.4420
  553TIP3    H123074   5.374   4.321  11.211 -0.2329  1.2857 -0.4144
  553TIP3    H223075   5.226   4.293  11.223 -0.0272  0.3214 -0.0976
  554TIP3   OH223076   0.371   1.750   5.716  0.8191  0.2668  0.5113
  554TIP3    H123077   0.384   1.655   5.718  0.0598  0.1553  0.2374
  554TIP3    H223078   0.373   1.777   5.808  0.1940 -0.1363  0.6471
  555TIP3   OH223079   3.706   2.926  10.997 -0.2646 -0.1319 -0.8875
  555TIP3    H123080   3.632   2.960  10.947 -0.3883  0.9805  0.0390
  555TIP3    H223081   3.757   2.876  10.933 -1.0805  0.2381 -1.8390
  556TIP3   OH223082   4.792   4.621  12.646  0.0611  0.4055 -0.2135
  556TIP3    H123083   4.797   4.650  12.555 -1.2764  2.7076  0.4357
  556TIP3    H223084   4.742   4.539  12.642 -2.2864  1.8437 -1.2649
  557TIP3   OH223085   0.955   5.851   0.823 -0.5976  0.1393  0.2752
  557TIP3    H123086   0.917   5.833   0.737 -0.8633 -0.6698  0.5536
  557TIP3    H223087   1.048   5.862   0.807 -0.4959 -1.0223  0.0132
  558TIP3   OH223088   4.710   0.742  15.329  0.3072  0.1861  0.0041
  558TIP3    H123089   4.642   0.680  15.300 -0.7014  1.4682 -0.4068
  558TIP3    H223090   4.749   0.700  15.406  0.8383 -1.7810 -1.3103
  559TIP3   OH223091   5.708   1.592   2.027 -0.1117  0.5039  0.4728
  559TIP3    H123092   5.669   1.668   2.070 -1.7223  0.6931 -1.2453
  559TIP3    H223093   5.651   1.518   2.053  0.2684  0.2263  0.5162
  560TIP3   OH223094   3.490   0.127  13.493  0.2945 -0.1326 -0.2111
  560TIP3    H123095   3.474   0.036  13.518 -1.2311  0.3748  0.7046
  560TIP3    H223096   3.518   0.170  13.573 -2.8161  1.0776  0.2688
  561TIP3   OH223097   0.118   6.230   2.292 -0.1232  0.3193  0.5281
  561TIP3    H123098   0.069   6.285   2.353 -0.5519 -0.5964  1.0173
  561TIP3    H223099   0.210   6.248   2.313 -0.2746 -0.7612  2.1480
  562TIP3   OH223100   3.511   1.293   1.641  0.0098 -0.2407  0.1783
  562TIP3    H123101   3.561   1.233   1.585  1.6611  1.4871 -0.2283
  562TIP3    H223102   3.493   1.369   1.585  0.4083  0.8740  1.5510
  563TIP3   OH223103   4.594   0.091  15.896  0.0763  0.4983 -0.1555
  563TIP3    H123104   4.627   0.135  15.974  1.7273  1.3745 -1.3048
  563TIP3    H223105   4.657   0.020  15.880 -0.2367  0.3412 -0.7133
  564TIP3   OH223106   0.608   0.944   0.710  0.0615 -0.1071  0.2692
  564TIP3    H123107   0.688   0.939   0.762 -1.1211 -0.4066  2.1161
  564TIP3    H223108   0.621   1.020   0.653  1.0012  0.8017  1.6717
  565TIP3   OH223109   5.379   6.499  11.932  0.0445 -0.2276 -0.3011
  565TIP3    H123110   5.301   6.486  11.879 -2.6422  1.7767  2.9689
  565TIP3    H223111   5.386   6.419  11.985  0.0448 -0.2879 -0.3923
  566TIP3   OH223112   2.193   5.888   3.367  0.8071  0.5797  0.4472
  566TIP3    H123113   2.198   5.960   3.429  0.5964 -0.0822  1.2304
  566TIP3    H223114   2.162   5.928   3.286  2.0858  1.6225  0.4621
  567TIP3   OH223115   0.591   0.995  13.011  0.1633 -0.2072  0.2090
  567TIP3    H123116   0.676   1.030  12.985 -1.1497  1.6558 -1.7506
  567TIP3    H223117   0.611   0.920  13.067  3.0669  1.2693  1.1967
  568TIP3   OH223118   2.960   2.021   0.922 -1.0872 -0.6499  0.2880
  568TIP3    H123119   2.902   1.999   0.849  2.0519  1.3396 -2.9526
  568TIP3    H223120   3.042   1.977   0.902 -0.1601 -0.1376  2.7317
  569TIP3   OH223121   4.247   4.962   0.949 -0.1029  0.0968  0.0897
  569TIP3    H123122   4.204   5.043   0.921 -0.6870 -0.2181  0.0713
  569TIP3    H223123   4.179   4.914   0.996  0.8004  0.5536  1.9546
  570TIP3   OH223124   2.353   1.851   5.669 -0.0619 -0.4394  0.9905
  570TIP3    H123125   2.371   1.834   5.762  0.0192 -2.2719  0.6695
  570TIP3    H223126   2.258   1.861   5.664  0.0719  1.2547  1.4925
  571TIP3   OH223127   4.153   3.396   2.681 -0.3844 -0.6101  0.4618
  571TIP3    H123128   4.202   3.333   2.733 -0.0401 -0.6759  0.0633
  571TIP3    H223129   4.153   3.360   2.592 -0.5480 -0.2629  0.3165
  572TIP3   OH223130   4.790   0.328   2.744  0.3921 -0.0278  0.7630
  572TIP3    H123131   4.830   0.360   2.663 -0.9730  1.6982  0.7352
  572TIP3    H223132   4.767   0.407   2.793 -1.1227 -0.9924  1.6732
  573TIP3   OH223133   4.360   6.431   3.746  0.0831 -0.3608  0.2747
  573TIP3    H123134   4.408   6.348   3.750  1.6878  0.5283 -0.4351
  573TIP3    H223135   4.322   6.432   3.658 -0.4231 -0.5985  0.4866
  574TIP3   OH223136   2.527   2.299   5.876 -0.3665  0.0232  0.2830
  574TIP3    H123137   2.586   2.244   5.823 -3.5959 -1.1984 -2.2039
  574TIP3    H223138   2.461   2.239   5.909 -1.1137  1.6190  1.7503
  575TIP3   OH223139   3.182   2.764   2.792  0.0296 -0.1652 -0.2676
  575TIP3    H123140   3.197   2.673   2.764 -0.1214  0.2546 -1.7436
  575TIP3    H223141   3.133   2.803   2.720 -0.8476  0.7944  0.8483
  576TIP3   OH223142   2.317   1.795  14.272 -0.3015 -0.1460 -1.0863
  576TIP3    H123143   2.389   1.741  14.304  1.1746  1.1410 -2.1560
  576TIP3    H223144   2.241   1.768  14.324  1.1821 -0.7912  0.7741
  577TIP3   OH223145   0.268   5.720  14.014  1.1526 -0.2173  0.5121
  577TIP3    H123146   0.282   5.685  13.926  1.0319 -0.5695  0.6304
  577TIP3    H223147   0.202   5.788  14.003 -0.2018 -1.5047  0.5973
  578TIP3   OH223148   6.533   3.117  16.533 -0.0607 -0.4094  0.1317
  578TIP3    H123149   6.452   3.069  16.550 -1.1975  1.3426 -0.2084
  578TIP3    H223150   6.504   3.205  16.509  1.9190 -0.0100 -0.8803
  579TIP3   OH223151   4.137   1.948   0.263 -0.3252 -0.3381 -0.1648
  579TIP3    H123152   4.172   1.896   0.335  1.1253  1.3384  0.3656
  579TIP3    H223153   4.124   2.035   0.300 -1.3183  0.0664 -1.4378
  580TIP3   OH223154   5.240   0.497  11.805  0.4382  0.1851  0.7132
  580TIP3    H123155   5.270   0.575  11.852  0.7112  0.7863 -0.4543
  580TIP3    H223156   5.165   0.466  11.856  1.2270  0.3486  2.0125
  581TIP3   OH223157   4.043   6.125   4.354  0.5176  0.3074  0.0587
  581TIP3    H123158   4.136   6.144   4.346  0.6495 -1.4562 -3.2145
  581TIP3    H223159   3.999   6.206   4.329  1.1558  0.8840  0.7979
  582TIP3   OH223160   1.039   3.293   2.799  0.8317  0.3831 -0.4525
  582TIP3    H123161   1.120   3.250   2.770  0.9625 -0.0895  0.5935
  582TIP3    H223162   1.060   3.386   2.802  1.4298  0.2321  0.0949
  583TIP3   OH223163   6.190   4.431   1.277  0.1469 -0.8190 -0.3778
  583TIP3    H123164   6.117   4.369   1.270 -1.0307  0.6760 -1.8807
  583TIP3    H223165   6.150   4.510   1.313  0.7479  0.4276 -2.3891
  584TIP3   OH223166   4.677   5.405  11.945 -0.2257 -0.0077 -0.4905
  584TIP3    H123167   4.637   5.463  11.881 -0.1827  1.4979  0.8076
  584TIP3    H223168   4.735   5.462  11.995 -0.1833 -1.1762  0.8102
  585TIP3   OH223169   4.152   4.742  13.721  0.7617 -0.2214 -0.2149
  585TIP3    H123170   4.221   4.795  13.680  0.5918 -0.3900 -0.7185
  585TIP3    H223171   4.079   4.803  13.732  0.9181 -0.0951  0.1283
  586TIP3   OH223172   0.058   2.087   0.917 -0.3573 -0.0083  0.0267
  586TIP3    H123173   0.120   2.144   0.962 -0.0218 -0.2272 -0.1568
  586TIP3    H223174   0.086   1.998   0.940 -0.5133 -0.1105 -0.1759
  587TIP3   OH223175   3.204   2.729  16.010  0.0651  0.1377 -0.1016
  587TIP3    H123176   3.192   2.820  15.983 -0.0312  0.0216 -0.4511
  587TIP3    H223177   3.138   2.680  15.961  0.6007 -0.2214 -0.4834
  588TIP3   OH223178   0.235   1.487  15.145  0.3396  0.2656 -0.1953
  588TIP3    H123179   0.234   1.431  15.223  0.7004 -0.7949 -0.9504
  588TIP3    H223180   0.327   1.499  15.125  0.2743  1.4195  0.1547
  589TIP3   OH223181   4.790   0.424   0.572 -0.1662 -0.4212  0.3100
  589TIP3    H123182   4.771   0.385   0.657  1.0633  1.9598  1.7299
  589TIP3    H223183   4.800   0.349   0.513  1.7523 -2.2541  2.8540
  590TIP3   OH223184   5.241   2.745   5.772  0.0216 -0.7225 -0.2190
  590TIP3    H123185   5.224   2.655   5.744  2.6450 -1.1273 -0.7060
  590TIP3    H223186   5.311   2.736   5.837 -0.8378  0.8504  0.9387
  591TIP3   OH223187   3.941   6.294  15.805 -0.1946 -0.2276  0.0362
  591TIP3    H123188   4.020   6.271  15.757  0.0816 -1.3863  1.0339
  591TIP3    H223189   3.877   6.227  15.781 -0.7548  0.4577 -0.4295
  592TIP3   OH223190   4.571   3.965   5.853  0.2027  0.1548 -0.3865
  592TIP3    H123191   4.623   3.885   5.866 -1.5011 -0.7943  0.9035
  592TIP3    H223192   4.608   4.028   5.915  0.3475 -0.2432 -0.0687
  593TIP3   OH223193   0.860   6.375  13.442  0.7915  0.5369 -0.5201
  593TIP3    H123194   0.779   6.328  13.460  0.2623  1.2228 -1.1043
  593TIP3    H223195   0.925   6.333  13.499  0.1058 -0.2293 -0.2961
  594TIP3   OH223196   6.125   4.562  14.833  1.0575 -0.0710 -0.9843
  594TIP3    H123197   6.113   4.492  14.897 -0.1314 -0.4920 -1.6425
  594TIP3    H223198   6.110   4.642  14.883  1.6028 -0.3212 -0.4116
  595TIP3   OH223199   4.447   4.198  13.213 -0.1477  0.1062 -0.3444
  595TIP3    H123200   4.386   4.247  13.267  0.1013  0.1692 -0.1164
  595TIP3    H223201   4.401   4.117  13.191 -0.1044 -0.0899  0.2836
  596TIP3   OH223202   6.547   3.441  16.733 -0.5154 -0.3724 -0.2619
  596TIP3    H123203   6.510   3.435  16.821  0.1566 -0.7741  0.0061
  596TIP3    H223204   6.596   3.359  16.723  0.7027  0.3640 -0.4069
  597TIP3   OH223205   0.708   4.656   5.266 -0.1622  0.6224 -0.2837
  597TIP3    H123206   0.751   4.619   5.188 -0.5117 -1.6846  0.5640
  597TIP3    H223207   0.632   4.703   5.232  0.5483  0.9419 -1.4564
  598TIP3   OH223208   0.876   2.922   3.250 -0.3664 -0.0102 -0.6102
  598TIP3    H123209   0.853   3.009   3.282 -1.3841 -0.0259 -1.2825
  598TIP3    H223210   0.824   2.861   3.303 -1.3821 -0.0809 -1.6654
  599TIP3   OH223211   1.745   6.197  11.305  0.4932  0.8689 -0.3725
  599TIP3    H123212   1.827   6.215  11.352 -0.3168  0.1191  1.3951
  599TIP3    H223213   1.771   6.146  11.229  1.7182  0.9719 -0.0267
  600TIP3   OH223214   5.357   5.328   5.083 -0.2982  0.2420 -0.1016
  600TIP3    H123215   5.316   5.340   4.997  0.2717 -0.0434 -0.4155
  600TIP3    H223216   5.425   5.262   5.068  0.5076  0.9678  0.3366
  601TIP3   OH223217   3.319   3.512  14.112 -0.1094  0.1724 -0.1728
  601TIP3    H123218   3.286   3.591  14.069 -1.3797 -0.3388 -0.1475
  601TIP3    H223219   3.323   3.447  14.042  3.0323  0.8330 -0.6835
  602TIP3   OH223220   2.262   5.386   0.952 -0.5089  0.2653  0.6105
  602TIP3    H123221   2.340   5.388   1.007  0.7781 -0.1920 -1.1535
  602TIP3    H223222   2.230   5.295   0.959  0.1278 -0.0140 -0.0190
  603TIP3   OH223223   1.860   4.549   6.384 -0.1265  0.4082  0.0250
  603TIP3    H123224   1.867   4.500   6.302  1.1905  0.2433  0.2327
  603TIP3    H223225   1.919   4.623   6.373 -0.4679  0.7635  0.5625
  604TIP3   OH223226   4.536   6.143  14.022  0.2697  0.0010  0.1253
  604TIP3    H123227   4.491   6.067  14.059  1.4023 -0.6258  0.2481
  604TIP3    H223228   4.504   6.217  14.073  1.1198 -0.7371  1.7672
  605TIP3   OH223229   3.498   1.889  13.190  0.3346  0.5763  0.7410
  605TIP3    H123230   3.419   1.908  13.241 -1.1534 -2.5065 -0.2694
  605TIP3    H223231   3.531   1.807  13.227  2.3407  1.1374  0.2786
  606TIP3   OH223232   3.527   0.814   6.296  0.3824 -0.2739 -0.0381
  606TIP3    H123233   3.496   0.731   6.259 -0.2018 -0.3702  0.6487
  606TIP3    H223234   3.570   0.789   6.378  1.2788 -0.0175 -0.4294
  607TIP3   OH223235   1.154   0.680   4.337 -0.0325  0.2363  0.0892
  607TIP3    H123236   1.193   0.699   4.422 -0.4570  0.3003  0.2721
  607TIP3    H223237   1.161   0.762   4.288 -0.7170  0.4996  0.4279
  608TIP3   OH223238   1.293   0.215   2.140 -0.6213 -0.0763  0.0002
  608TIP3    H123239   1.311   0.133   2.186 -0.7173 -1.4996 -2.4218
  608TIP3    H223240   1.362   0.222   2.074 -1.4781  1.0345 -0.8044
  609TIP3   OH223241   2.566   3.051   3.176 -0.1426  0.3288 -0.0698
  609TIP3    H123242   2.553   3.039   3.270  0.6217  0.3677  0.0491
  609TIP3    H223243   2.578   2.962   3.142 -0.2183  0.3290 -0.0974
  610TIP3   OH223244   2.984   1.031   4.557  0.0634  0.2898  0.2212
  610TIP3    H123245   2.955   0.942   4.536 -1.1666  0.6946  0.1590
  610TIP3    H223246   3.070   1.037   4.517  1.3055 -1.7453  2.4541
  611TIP3   OH223247   1.806   4.338  16.552  0.1550 -0.3565  0.2021
  611TIP3    H123248   1.743   4.307  16.488  0.8671 -0.3282 -0.5186
  611TIP3    H223249   1.783   4.293  16.633 -0.1707 -1.0944 -0.3026
  612TIP3   OH223250   5.161   3.239  12.114 -0.3160  0.5591  0.0948
  612TIP3    H123251   5.069   3.247  12.089 -0.1556  0.0636 -0.6712
  612TIP3    H223252   5.209   3.239  12.031  0.2566 -0.6581  0.4093
  613TIP3   OH223253   1.139   3.234   5.404  0.1067  0.0673 -0.4768
  613TIP3    H123254   1.168   3.320   5.374  2.3369 -0.9092 -1.2839
  613TIP3    H223255   1.208   3.174   5.374 -0.5521 -1.7618  1.5136
  614TIP3   OH223256   5.767   1.392   2.730 -0.1857 -0.3913  0.1679
  614TIP3    H123257   5.803   1.372   2.644  0.1379 -0.2139  0.2650
  614TIP3    H223258   5.728   1.479   2.721 -1.9405 -1.1933 -0.3644
  615TIP3   OH223259   1.144   1.369  13.693  0.1630 -0.4851 -0.2551
  615TIP3    H123260   1.112   1.284  13.662  1.1967 -0.1691 -2.2444
  615TIP3    H223261   1.233   1.350  13.723  1.3003  0.3169 -2.9598
  616TIP3   OH223262   5.482   1.566   4.463 -0.0159  0.5150  0.2274
  616TIP3    H123263   5.458   1.657   4.482  0.3848  0.6546  0.0700
  616TIP3    H223264   5.464   1.556   4.370  0.8620  0.7252  0.0297
  617TIP3   OH223265   1.415   2.284   1.900  0.0670  0.3822 -0.2155
  617TIP3    H123266   1.384   2.372   1.877  0.4720  0.7593  0.6310
  617TIP3    H223267   1.411   2.235   1.819  0.0960  1.2661 -0.7598
  618TIP3   OH223268   1.067   4.311   4.686  0.0314  0.1036  0.0328
  618TIP3    H123269   1.163   4.302   4.691 -0.0960 -0.7135  1.2929
  618TIP3    H223270   1.039   4.236   4.634  0.1075  0.6618 -0.8371
  619TIP3   OH223271   4.811   6.521  17.008  0.3756 -0.3278  0.6480
  619TIP3    H123272   4.762   6.535  17.090  0.8207 -0.7771  0.9930
  619TIP3    H223273   4.855   6.437  17.021  0.3779 -0.4426 -0.0944
  620TIP3   OH223274   1.755   1.185  12.803 -0.1280  0.7520  0.5367
  620TIP3    H123275   1.707   1.105  12.824 -0.1173  0.7369  0.5047
  620TIP3    H223276   1.714   1.253  12.857 -1.6791  1.2090 -1.1754
  621TIP3   OH223277   4.038   1.319  13.751  0.0347 -0.7458 -0.1094
  621TIP3    H123278   3.993   1.256  13.695  0.0008 -1.7723  1.0462
  621TIP3    H223279   4.128   1.321  13.719 -0.0331 -1.1877 -0.3211
  622TIP3   OH223280   0.180   1.745   4.461 -0.6752  0.5309  0.0275
  622TIP3    H123281   0.118   1.685   4.503 -1.1680 -0.1118 -1.6097
  622TIP3    H223282   0.158   1.831   4.497 -0.4495 -0.1485  1.8356
  623TIP3   OH223283   0.737   5.509  12.336  0.4915  0.2706 -0.4536
  623TIP3    H123284   0.828   5.480  12.347  0.2788 -0.0754  0.4208
  623TIP3    H223285   0.686   5.449  12.391 -0.1702  1.0214 -0.2384
  624TIP3   OH223286   5.010   4.909  15.219  0.6253 -0.2485  0.6815
  624TIP3    H123287   4.997   5.001  15.241 -0.5951 -0.6243  1.5828
  624TIP3    H223288   4.996   4.862  15.302  0.6843 -1.2945  0.1145
  625TIP3   OH223289   1.045   4.320   5.937  0.3546  0.6340  0.6099
  625TIP3    H123290   1.091   4.332   6.020  0.5229 -0.3608  0.6650
  625TIP3    H223291   0.986   4.246   5.953 -0.2551  1.0146  0.1188
  626TIP3   OH223292   1.267   0.609   5.236  0.2300 -0.0331 -0.3548
  626TIP3    H123293   1.272   0.704   5.237 -2.5057  0.1436  1.0125
  626TIP3    H223294   1.278   0.583   5.328  0.3591 -1.0034 -0.6324
  627TIP3   OH223295   0.132   4.383  12.316  0.2974 -0.9508  0.0813
  627TIP3    H123296   0.043   4.414  12.331  0.8764  0.2283  1.1911
  627TIP3    H223297   0.150   4.404  12.225  0.0349  0.3874  0.3216
  628TIP3   OH223298   4.023   6.181  16.734  0.2410  0.3863 -0.4452
  628TIP3    H123299   4.084   6.126  16.686 -1.0119  1.0836 -2.9076
  628TIP3    H223300   3.960   6.120  16.773  1.0039 -0.1481 -0.0480
  629TIP3   OH223301   6.040   1.519   0.068  1.0626  0.4778  0.0270
  629TIP3    H123302   6.010   1.563  -0.011 -0.4182 -0.4649  0.0584
  629TIP3    H223303   6.126   1.484   0.045  0.5714  0.0783 -1.2180
  630TIP3   OH223304   3.681   1.316  13.609 -0.3393 -0.1788  0.7725
  630TIP3    H123305   3.695   1.235  13.657  0.0607  0.8371  2.4101
  630TIP3    H223306   3.721   1.301  13.523  2.7996 -0.5188  2.2308
  631TIP3   OH223307   4.432   5.387  11.770  0.2602 -0.2681  0.5457
  631TIP3    H123308   4.347   5.363  11.733  0.6761 -0.1660 -0.5090
  631TIP3    H223309   4.422   5.479  11.794  0.9751  0.6356 -2.3824
  632TIP3   OH223310   1.925   4.492  14.308  0.3902 -0.6797  0.2344
  632TIP3    H123311   1.897   4.553  14.240  0.8715 -0.1315  0.5284
  632TIP3    H223312   1.853   4.489  14.370 -0.3844 -1.7822 -0.6968
  633TIP3   OH223313   0.039   0.365   2.937  0.0586  0.4898  0.3029
  633TIP3    H123314  -0.051   0.389   2.916 -0.4356 -0.9586  0.7415
  633TIP3    H223315   0.043   0.271   2.920  1.6209  0.6334 -0.1817
  634TIP3   OH223316   5.725   3.479  13.745  0.3452 -0.5995 -0.1207
  634TIP3    H123317   5.655   3.517  13.692  1.0558 -2.5620 -2.6057
  634TIP3    H223318   5.681   3.425  13.810 -0.5400  1.5863  1.1375
  635TIP3   OH223319   6.680   1.576  16.172  0.2148 -0.5362 -0.7235
  635TIP3    H123320   6.611   1.580  16.105 -1.7959 -1.5856  1.2166
  635TIP3    H223321   6.664   1.651  16.228  1.5323  0.0098 -1.0837
  636TIP3   OH223322   4.291   3.942   2.076  0.2253 -0.3190  0.0124
  636TIP3    H123323   4.288   3.941   1.980  1.0697  1.1389 -0.0483
  636TIP3    H223324   4.199   3.951   2.103  0.1579  1.6286 -0.7402
  637TIP3   OH223325   5.440   5.799  13.157  0.2083  0.7989 -0.2197
  637TIP3    H123326   5.462   5.864  13.224  1.3004  0.7137 -0.4920
  637TIP3    H223327   5.462   5.841  13.074  1.7805 -0.2492 -0.3496
  638TIP3   OH223328   0.054   0.910   2.279 -0.3162  0.0710  0.9451
  638TIP3    H123329  -0.014   0.976   2.266 -0.2716 -0.2213 -0.7978
  638TIP3    H223330   0.016   0.850   2.343 -0.7954  1.1577  1.7023
  639TIP3   OH223331   0.844   2.388   3.210  0.4561 -0.2987  0.1759
  639TIP3    H123332   0.778   2.454   3.234  1.6042  1.0555 -0.3191
  639TIP3    H223333   0.909   2.393   3.280  0.7700 -0.6124 -0.0959
  640TIP3   OH223334   0.158   6.266   1.353  0.3221 -0.2313 -1.0039
  640TIP3    H123335   0.172   6.303   1.440  2.0063 -1.0022 -0.9324
  640TIP3    H223336   0.084   6.205   1.365  2.3653 -2.4923  0.5749
  641TIP3   OH223337   5.745   5.115   0.904 -1.0203  0.3776  0.1128
  641TIP3    H123338   5.703   5.147   0.823  0.5541  0.0591 -0.8507
  641TIP3    H223339   5.830   5.083   0.875 -0.2182  0.7571  2.0084
  642TIP3   OH223340   0.805   1.177  11.669  0.3013 -0.1168  0.3604
  642TIP3    H123341   0.863   1.142  11.736 -0.7619  0.3555  1.5435
  642TIP3    H223342   0.780   1.100  11.616  1.6290 -0.3862  0.1097
  643TIP3   OH223343   1.906   3.489  13.085  0.2398 -0.4035  0.3558
  643TIP3    H123344   1.870   3.471  13.172  0.9169 -1.0899  0.4991
  643TIP3    H223345   1.983   3.544  13.102 -1.1827  1.7895 -0.0065
  644TIP3   OH223346   3.462   6.429   0.150 -0.1873  0.2244 -0.0573
  644TIP3    H123347   3.373   6.464   0.143 -0.3285 -0.1723 -0.2496
  644TIP3    H223348   3.458   6.367   0.222 -0.2193 -0.2574 -0.4697
  645TIP3   OH223349   5.648   5.308   4.518  0.5406  0.1142 -0.0891
  645TIP3    H123350   5.678   5.367   4.449  0.7190 -2.2112 -2.0980
  645TIP3    H223351   5.694   5.336   4.597  2.0075  1.4847 -1.4180
  646TIP3   OH223352   6.381   5.676   2.309  0.4819  0.0637 -0.1806
  646TIP3    H123353   6.388   5.604   2.247  0.8677  0.2774 -0.3902
  646TIP3    H223354   6.472   5.693   2.336  0.4349  0.6939 -0.3967
  647TIP3   OH223355   3.731   2.280   1.978  0.2472  0.0810 -0.0264
  647TIP3    H123356   3.817   2.243   1.996  0.3989  1.6961  2.9286
  647TIP3    H223357   3.689   2.287   2.064 -2.6956 -0.2621 -1.3411
  648TIP3   OH223358   1.451   2.330   3.714  0.1852 -0.0122  0.4115
  648TIP3    H123359   1.419   2.245   3.682  1.0430 -0.3347  0.3972
  648TIP3    H223360   1.488   2.310   3.800  0.4992  0.3269  0.3543
  649TIP3   OH223361   0.816   3.619   5.890 -0.1262  0.0080 -0.3885
  649TIP3    H123362   0.771   3.625   5.975  1.8293  2.0525  0.5755
  649TIP3    H223363   0.773   3.546   5.845 -1.1024 -1.2355  2.4206
  650TIP3   OH223364   0.760   3.465   2.504  0.2138 -0.7690  0.2710
  650TIP3    H123365   0.794   3.541   2.457  1.7251 -1.3382  0.4008
  650TIP3    H223366   0.707   3.419   2.438  0.0423 -0.0976 -0.0677
  651TIP3   OH223367   2.110   1.099  15.590 -0.8037 -0.0734 -0.3571
  651TIP3    H123368   2.109   1.003  15.591  1.7325 -0.1394  2.5348
  651TIP3    H223369   2.202   1.122  15.602 -1.6548  2.7346  1.1613
  652TIP3   OH223370   0.447   5.043  16.293 -0.0977  0.4246 -0.6938
  652TIP3    H123371   0.388   5.009  16.359  1.9254 -3.2445 -0.6101
  652TIP3    H223372   0.418   5.002  16.211  1.6105 -0.5820 -0.8246
  653TIP3   OH223373   1.871   4.243   2.143  0.2651 -0.5194 -0.0739
  653TIP3    H123374   1.853   4.336   2.151  2.1580 -0.1267 -0.2110
  653TIP3    H223375   1.839   4.220   2.056 -1.2017 -0.2661  0.3696
  654TIP3   OH223376   4.563   4.883   0.955  0.2139 -0.5172  0.0905
  654TIP3    H123377   4.480   4.836   0.960  0.1253 -0.3256  0.4517
  654TIP3    H223378   4.619   4.827   0.900 -1.0382  0.6930 -2.5052
  655TIP3   OH223379   3.568   2.646  13.704  0.3485 -0.4951 -0.2443
  655TIP3    H123380   3.576   2.689  13.790  2.7759  1.5880 -1.4372
  655TIP3    H223381   3.630   2.574  13.708 -0.5632 -1.2631  0.2266
  656TIP3   OH223382   1.942   6.739  15.948  0.2071  0.4348 -0.3266
  656TIP3    H123383   1.905   6.657  15.916  1.7312 -0.3306 -0.2097
  656TIP3    H223384   1.971   6.785  15.869 -1.8808  1.5007 -0.4964
  657TIP3   OH223385   6.279   5.278  15.617  0.2424  0.0062 -0.1395
  657TIP3    H123386   6.339   5.351  15.635  1.5406 -1.0747  0.0638
  657TIP3    H223387   6.325   5.226  15.550 -0.8455 -0.3956 -0.5771
  658TIP3   OH223388   0.780   3.701   0.765 -0.4605 -0.6794 -0.1642
  658TIP3    H123389   0.810   3.754   0.839 -0.2259 -1.1171  0.0564
  658TIP3    H223390   0.859   3.682   0.715 -0.6063 -0.4611 -0.4745
  659TIP3   OH223391   1.197   5.577   4.717  0.7052 -0.6342 -0.0212
  659TIP3    H123392   1.271   5.524   4.690  1.0712  0.0953 -0.4721
  659TIP3    H223393   1.120   5.523   4.700  1.0966 -1.1537 -0.1227
  660TIP3   OH223394   6.679   6.520   2.071 -0.1860 -0.5368  0.0627
  660TIP3    H123395   6.625   6.441   2.074  0.6051 -1.0706  0.2351
  660TIP3    H223396   6.682   6.544   1.978 -1.0425 -0.2784  0.0981
  661TIP3   OH223397   5.557   3.364  15.293 -0.0405 -0.4358 -0.1370
  661TIP3    H123398   5.473   3.324  15.268  0.6864 -0.5222 -2.5710
  661TIP3    H223399   5.617   3.291  15.301  0.0744 -0.2735  0.4821
  662TIP3   OH223400   5.960   5.601  16.363 -0.3284  0.2561  0.1274
  662TIP3    H123401   6.005   5.592  16.279  0.0755  2.1631  0.1195
  662TIP3    H223402   6.028   5.625  16.425 -0.9059  0.5937  0.6445
  663TIP3   OH223403   6.627   2.854  15.523 -0.0293  0.0819 -0.2879
  663TIP3    H123404   6.688   2.884  15.591  0.5781  0.2417 -0.8945
  663TIP3    H223405   6.674   2.784  15.478 -1.0247 -1.0656  0.4244
  664TIP3   OH223406   4.051   6.304  11.285 -0.3131 -0.4575  0.3501
  664TIP3    H123407   4.051   6.392  11.323  2.3426 -0.6000  0.8350
  664TIP3    H223408   4.086   6.317  11.196  2.2788 -1.2547  1.2030
  665TIP3   OH223409   4.318   6.757   0.155  0.2246  0.2684  0.4588
  665TIP3    H123410   4.307   6.849   0.177  1.0669  0.2677  0.9130
  665TIP3    H223411   4.355   6.717   0.234 -0.6270 -0.5648  0.4501
  666TIP3   OH223412   3.386   1.760  14.989 -0.3347  0.8786  0.1322
  666TIP3    H123413   3.460   1.811  14.957 -0.4647  0.3746 -1.0004
  666TIP3    H223414   3.407   1.670  14.966 -0.1824  0.4206  1.9649
  667TIP3   OH223415   0.726   5.347   6.324  0.7002  0.3323  0.0980
  667TIP3    H123416   0.692   5.260   6.301  0.8315 -0.1131  1.5213
  667TIP3    H223417   0.797   5.362   6.261 -1.0566  0.5812 -1.8550
  668TIP3   OH223418   1.526   4.142   6.144  0.2276 -0.0523  0.7097
  668TIP3    H123419   1.570   4.071   6.097  0.9498 -0.4193  1.9262
  668TIP3    H223420   1.462   4.099   6.200 -1.2291  0.4419 -0.5310
  669TIP3   OH223421   2.473   2.712  16.017  0.8431  0.2422  0.4145
  669TIP3    H123422   2.564   2.697  15.990  0.3186 -1.8767 -0.3100
  669TIP3    H223423   2.441   2.777  15.955  0.9784 -1.3284 -1.3870
  670TIP3   OH223424   0.060   4.110   1.794 -0.0803 -0.2842  0.1928
  670TIP3    H123425   0.057   4.050   1.720 -0.2786 -1.1614  0.9077
  670TIP3    H223426   0.063   4.054   1.871  1.9662  0.5873  0.7964
  671TIP3   OH223427   1.743   3.726  11.309  0.2274  0.6195 -0.3138
  671TIP3    H123428   1.670   3.706  11.367 -0.4383  0.9099 -1.0490
  671TIP3    H223429   1.743   3.656  11.244 -0.1545  1.2662 -1.0268
  672TIP3   OH223430   1.144   0.689  12.100  0.4413  0.6427  0.0062
  672TIP3    H123431   1.233   0.674  12.132  0.3527  1.7539  0.7974
  672TIP3    H223432   1.088   0.645  12.165  0.3844  0.5553 -0.1030
  673TIP3   OH223433   2.232   3.899   0.134  0.1911  0.3775 -0.0098
  673TIP3    H123434   2.187   3.955   0.071 -0.5193  2.3026  2.1421
  673TIP3    H223435   2.167   3.883   0.203  0.9055 -1.7867  0.1831
  674TIP3   OH223436   0.185   0.407  16.177  0.1257  0.0344  0.5836
  674TIP3    H123437   0.234   0.400  16.095  1.6155 -1.2325  1.5562
  674TIP3    H223438   0.150   0.320  16.192 -2.3028  0.8795  0.0156
  675TIP3   OH223439   2.428   5.334  12.973 -0.0069  0.1695 -0.6509
  675TIP3    H123440   2.339   5.304  12.954 -0.6953  0.2036  2.1489
  675TIP3    H223441   2.473   5.256  13.004  0.4310  0.4875 -0.4795
  676TIP3   OH223442   0.908   0.489   5.722 -0.1926 -0.2937 -0.1880
  676TIP3    H123443   0.995   0.476   5.759  0.2773  1.7942 -0.4951
  676TIP3    H223444   0.851   0.506   5.797  0.0748  0.3520 -0.1238
  677TIP3   OH223445   0.617   5.135  14.162 -0.6241  0.7635  0.6833
  677TIP3    H123446   0.553   5.089  14.108 -1.6259  0.3522  2.1807
  677TIP3    H223447   0.681   5.068  14.188  0.6952  1.2683 -1.1866
  678TIP3   OH223448   4.208   4.007   0.071  0.7856  0.8312  0.3221
  678TIP3    H123449   4.300   4.002   0.044  0.8689  1.4760  0.4821
  678TIP3    H223450   4.177   4.091   0.037  0.5467  1.0861  1.1589
  679TIP3   OH223451   5.552   0.156  10.926 -0.1571 -0.1148  0.3681
  679TIP3    H123452   5.574   0.192  10.840 -0.3060  0.4674  0.5748
  679TIP3    H223453   5.507   0.073  10.906 -0.3452  0.1026 -0.1210
  680TIP3   OH223454   0.117   0.671   2.109 -0.0918 -0.1815 -0.0212
  680TIP3    H123455   0.067   0.750   2.131  1.4288  0.6305  0.5988
  680TIP3    H223456   0.139   0.632   2.194  0.4348 -0.4658 -0.2839
  681TIP3   OH223457   6.354   1.795   4.520  0.6485  0.1398 -0.0192
  681TIP3    H123458   6.405   1.726   4.564 -1.0787 -1.5793 -0.6563
  681TIP3    H223459   6.420   1.850   4.478  2.1242 -0.4424  1.4651
  682TIP3   OH223460   6.290   6.436  10.198 -0.0560 -0.7242 -0.0708
  682TIP3    H123461   6.351   6.377  10.243 -0.8096 -0.6739  1.0175
  682TIP3    H223462   6.225   6.378  10.160 -1.0890 -0.5873  1.4358
  683TIP3   OH223463   2.815   5.871   4.275 -0.5217  0.7331 -0.5498
  683TIP3    H123464   2.875   5.908   4.339  1.4127 -0.4948 -1.6185
  683TIP3    H223465   2.777   5.947   4.230  1.0235  1.5121 -0.5690
  684TIP3   OH223466   3.554   3.362   2.160  0.6285  0.0671 -0.3763
  684TIP3    H123467   3.568   3.347   2.067  2.1675  0.2832 -0.1969
  684TIP3    H223468   3.641   3.381   2.195 -0.4436  4.3373  0.3114
  685TIP3   OH223469   6.654   2.497   1.134  0.1782  0.0125  0.1411
  685TIP3    H123470   6.686   2.416   1.095 -1.6213  0.0953 -1.5885
  685TIP3    H223471   6.564   2.478   1.158  0.8269  0.4061  3.1034
  686TIP3   OH223472   5.304   3.435   5.527 -0.4829 -0.2535 -0.1123
  686TIP3    H123473   5.332   3.362   5.583 -3.4079 -0.5711  1.0046
  686TIP3    H223474   5.353   3.511   5.559 -0.8408 -0.7972  1.7401
  687TIP3   OH223475   3.736   6.737   1.184  0.0261 -0.5396  0.0713
  687TIP3    H123476   3.708   6.705   1.098  1.0104 -2.7851  0.5659
  687TIP3    H223477   3.677   6.811   1.202  0.2318  0.3770 -2.8012
  688TIP3   OH223478   5.610   6.138   5.278 -0.3485 -0.1187 -0.3167
  688TIP3    H123479   5.518   6.151   5.257 -0.4996 -0.9231 -0.1762
  688TIP3    H223480   5.611   6.060   5.333  0.1714  1.2196  1.6349
  689TIP3   OH223481   6.668   1.519  12.393 -0.2400  0.5931 -0.4608
  689TIP3    H123482   6.676   1.473  12.309  2.9456  0.7141 -0.2866
  689TIP3    H223483   6.664   1.612  12.369  0.8058  0.6357 -0.4954
  690TIP3   OH223484   6.502   2.926   2.992  0.6062  0.2242 -0.1861
  690TIP3    H123485   6.516   2.891   2.904 -0.4665  2.6716 -1.3807
  690TIP3    H223486   6.589   2.957   3.020  0.5977  1.1437 -1.1584
  691TIP3   OH223487   4.302   2.918  15.005  0.0340  0.1435 -0.2770
  691TIP3    H123488   4.260   2.900  14.921 -1.1294  0.2366  0.2692
  691TIP3    H223489   4.229   2.928  15.066  0.8552  0.5084  0.6586
  692TIP3   OH223490   4.906   4.262  12.253 -0.4910  0.0767 -0.1878
  692TIP3    H123491   4.906   4.192  12.318  1.0312 -0.6601 -0.9638
  692TIP3    H223492   4.910   4.217  12.169  1.5182  1.0929 -0.6684
  693TIP3   OH223493   3.132   5.286  13.174  0.4977 -0.1548 -0.0088
  693TIP3    H123494   3.226   5.296  13.164  0.6098 -0.8930  0.3382
  693TIP3    H223495   3.105   5.231  13.100  0.2140  0.7080 -0.5683
  694TIP3   OH223496   6.194   0.037   2.236  0.1508  0.2343 -0.2446
  694TIP3    H123497   6.219   0.103   2.170 -2.2761  1.5430  0.0739
  694TIP3    H223498   6.190  -0.045   2.187 -0.7615  1.0410 -1.5538
  695TIP3   OH223499   3.912   4.425   6.254 -0.4893  0.3444  0.5622
  695TIP3    H123500   3.849   4.479   6.301 -1.8906 -0.1731 -0.6636
  695TIP3    H223501   3.919   4.345   6.307 -0.5674  0.5527  0.8895
  696TIP3   OH223502   3.489   2.824   4.595 -0.1252 -0.0245 -0.0383
  696TIP3    H123503   3.463   2.902   4.644  1.4923  0.2491  0.4083
  696TIP3    H223504   3.524   2.858   4.512 -2.5210 -0.4668 -1.2986
  697TIP3   OH223505   2.240   4.261   5.687  0.1433 -0.0826 -0.7516
  697TIP3    H123506   2.209   4.273   5.777 -0.6914 -2.0527 -0.7382
  697TIP3    H223507   2.333   4.242   5.696  0.2230  0.4924 -0.3647
  698TIP3   OH223508   3.924   3.949  11.914  0.9743 -0.3090 -0.1597
  698TIP3    H123509   3.850   3.936  11.856  1.3069 -0.2948 -0.5893
  698TIP3    H223510   3.956   4.037  11.894  1.7548 -0.7172 -0.7205
  699TIP3   OH223511   5.058   4.938  16.315 -0.2950  0.0554 -0.2744
  699TIP3    H123512   5.103   4.874  16.369 -1.9218  0.6151  1.8217
  699TIP3    H223513   5.105   4.937  16.232  1.8164 -1.3520  0.8949
  700TIP3   OH223514   2.566   3.102  13.600 -0.6533 -0.1848  0.2412
  700TIP3    H123515   2.519   3.115  13.682 -1.1357 -2.0333  0.2897
  700TIP3    H223516   2.645   3.054  13.625 -0.2436  0.2448 -0.2219
  701TIP3   OH223517   1.658   1.730   4.280 -0.3030  0.1375 -0.0789
  701TIP3    H123518   1.629   1.647   4.241  2.0748 -0.3921 -0.7712
  701TIP3    H223519   1.668   1.789   4.206  1.0490  0.0990  0.0645
  702TIP3   OH223520   6.109   5.634  14.674 -0.0080 -0.6468  0.4362
  702TIP3    H123521   6.192   5.672  14.703 -1.2635  1.1414  1.7775
  702TIP3    H223522   6.095   5.560  14.733 -0.1424  0.0355  1.2778
  703TIP3   OH223523   4.343   3.672  12.514 -0.5363  0.3713 -0.4633
  703TIP3    H123524   4.391   3.696  12.593  0.5484  0.0816 -1.0166
  703TIP3    H223525   4.406   3.684  12.443 -0.8302 -1.4171 -1.0489
  704TIP3   OH223526   3.159   5.550   4.621 -0.2943 -0.3799  0.5589
  704TIP3    H123527   3.219   5.484   4.586  0.3449 -0.3540  1.5727
  704TIP3    H223528   3.190   5.632   4.585 -0.0054 -0.4263  0.6976
  705TIP3   OH223529   5.167   1.824   1.080  0.7690 -0.0893 -0.0884
  705TIP3    H123530   5.237   1.820   1.144 -0.1248 -1.0432  0.8422
  705TIP3    H223531   5.126   1.737   1.083 -1.1875  0.8121  0.2429
  706TIP3   OH223532   4.184   3.444  12.188  0.3434  0.1933  0.2644
  706TIP3    H123533   4.231   3.439  12.271  0.8655 -0.4538 -0.0663
  706TIP3    H223534   4.210   3.365  12.141 -1.3928 -0.3787  0.2352
  707TIP3   OH223535   3.066   6.170  16.670 -0.4527  0.5847  0.5829
  707TIP3    H123536   2.992   6.207  16.719 -1.3908 -0.1272 -0.3081
  707TIP3    H223537   3.030   6.146  16.585  0.7791  0.1333  0.1760
  708TIP3   OH223538   2.488   4.010   1.019 -0.2356 -0.0621 -0.0656
  708TIP3    H123539   2.431   4.026   1.094 -1.4792 -1.5262 -0.6819
  708TIP3    H223540   2.575   4.038   1.048 -0.9802  0.7596  1.3963
  709TIP3   OH223541   4.973   2.253   5.881 -0.1030 -0.0636  0.1967
  709TIP3    H123542   4.884   2.223   5.862 -0.0609 -1.7060  2.4111
  709TIP3    H223543   4.967   2.294   5.967  1.2578 -0.1002  0.3229
  710TIP3   OH223544   6.355   4.616   0.209 -0.3668 -0.6882 -0.8977
  710TIP3    H123545   6.289   4.589   0.273 -0.6894  1.8021 -0.1319
  710TIP3    H223546   6.432   4.636   0.262  0.2318 -1.2293 -1.5588
  711TIP3   OH223547   1.136   6.656  16.815  0.3040  0.4485  0.0734
  711TIP3    H123548   1.182   6.622  16.891  0.6481  2.4395  0.7841
  711TIP3    H223549   1.066   6.710  16.851 -0.1769  0.5856 -1.0236
  712TIP3   OH223550   2.490   2.811  12.510  0.1579 -0.2215 -0.3999
  712TIP3    H123551   2.580   2.842  12.500  0.6961 -1.5476  0.2827
  712TIP3    H223552   2.443   2.888  12.543  1.1135  0.3794 -0.3915
  713TIP3   OH223553   0.181   1.866   0.316  0.5661 -0.1077  0.1464
  713TIP3    H123554   0.130   1.883   0.237  0.1722 -0.2112  0.3790
  713TIP3    H223555   0.168   1.943   0.371  1.3209  0.2286 -0.1399
  714TIP3   OH223556   3.137   3.004  13.416  0.6074 -0.1645  0.5630
  714TIP3    H123557   3.209   2.955  13.376  0.9116  0.9617 -0.2888
  714TIP3    H223558   3.152   2.997  13.510  0.4611 -1.9688  0.4800
  715TIP3   OH223559   5.887   0.685  12.052 -0.3913  0.3958  0.0535
  715TIP3    H123560   5.807   0.655  12.007 -0.8090 -0.1963  1.1572
  715TIP3    H223561   5.858   0.703  12.142  0.9996 -1.3232  0.8959
  716TIP3   OH223562   3.840   4.559  12.820  0.0099 -0.6716  0.3498
  716TIP3    H123563   3.890   4.629  12.779  3.1324 -2.0547  1.6831
  716TIP3    H223564   3.894   4.481  12.811 -1.2306 -1.9299  3.0606
  717TIP3   OH223565   2.888   6.530   4.980  0.4873 -0.2657 -0.3945
  717TIP3    H123566   2.852   6.497   4.898  2.0729  1.0914 -1.6681
  717TIP3    H223567   2.879   6.625   4.974  0.3108 -0.1618  1.1746
  718TIP3   OH223568   5.883   2.984  15.660 -1.3535  0.3826  0.2550
  718TIP3    H123569   5.833   2.903  15.660  0.9601 -1.0632  0.6066
  718TIP3    H223570   5.967   2.962  15.620 -0.8556  2.7068 -0.0951
  719TIP3   OH223571   5.427   3.511  14.863 -0.2316 -0.6066 -0.7771
  719TIP3    H123572   5.372   3.457  14.805  1.0847 -0.2291 -2.4063
  719TIP3    H223573   5.488   3.449  14.902 -0.3673 -0.6798 -0.6783
  720TIP3   OH223574   5.873   1.865  10.523 -0.3409  0.3718 -0.0878
  720TIP3    H123575   5.853   1.811  10.446 -0.0647  1.5937 -1.0156
  720TIP3    H223576   5.842   1.812  10.597  0.8408 -1.4978 -0.9073
  721TIP3   OH223577   2.860   5.809  14.654 -0.2146  0.1466  0.2259
  721TIP3    H123578   2.837   5.839  14.566 -1.5118 -1.9608 -0.1904
  721TIP3    H223579   2.776   5.792  14.696  0.3435 -4.9143 -0.3433
  722TIP3   OH223580   0.954   6.211   2.250  0.0033 -0.7736  0.2674
  722TIP3    H123581   0.930   6.300   2.226 -0.6565 -0.7608  0.9393
  722TIP3    H223582   0.947   6.209   2.345  1.3932 -1.1581  0.3663
  723TIP3   OH223583   3.645   0.963  14.159 -0.1445 -0.2446 -0.0548
  723TIP3    H123584   3.703   1.032  14.127 -1.1127  0.0437 -1.2300
  723TIP3    H223585   3.574   1.010  14.204 -0.7207 -0.4656 -0.7166
  724TIP3   OH223586   6.437   1.896   3.107 -0.7296  0.5097 -0.2908
  724TIP3    H123587   6.384   1.928   3.034 -0.5483  1.6421  0.0609
  724TIP3    H223588   6.501   1.965   3.123  2.0345 -1.5822 -1.8421
  725TIP3   OH223589   2.043   5.460   5.795  0.2183 -0.5191 -0.6918
  725TIP3    H123590   2.022   5.440   5.704  1.0120 -1.8951 -0.5916
  725TIP3    H223591   2.040   5.375   5.839  2.3459 -0.2396  0.0449
  726TIP3   OH223592   1.408   0.745  11.918 -0.4513  0.2352 -0.0079
  726TIP3    H123593   1.397   0.840  11.906  0.6062  0.3354 -0.2122
  726TIP3    H223594   1.493   0.736  11.960 -0.1080 -0.6892 -0.8878
  727TIP3   OH223595   0.795   0.127  11.181 -0.6625  0.0301  0.4200
  727TIP3    H123596   0.793   0.049  11.237 -1.4698 -1.2907 -1.4194
  727TIP3    H223597   0.706   0.160  11.182 -0.6417  0.0996  0.0446
  728TIP3   OH223598   3.143   0.157   0.102  0.1238 -0.2204  0.5855
  728TIP3    H123599   3.151   0.250   0.122  1.1566 -0.5314  1.6651
  728TIP3    H223600   3.129   0.154   0.007  1.4893  0.9486  0.3319
  729TIP3   OH223601   5.363   4.331  16.847 -0.2117  0.2150  0.3434
  729TIP3    H123602   5.406   4.361  16.767 -0.3190 -0.5028  0.0110
  729TIP3    H223603   5.350   4.237  16.834  0.9476 -0.1543  1.7431
  730TIP3   OH223604   6.548   4.655  12.978  0.0153 -0.0239 -0.4349
  730TIP3    H123605   6.564   4.745  13.008  0.8097  0.2511 -1.6191
  730TIP3    H223606   6.619   4.638  12.917 -0.5431 -1.2088 -0.7642
  731TIP3   OH223607   4.462   5.786   4.369 -0.3868  0.4007  0.3859
  731TIP3    H123608   4.449   5.706   4.420  1.4306  1.0242  1.8693
  731TIP3    H223609   4.484   5.853   4.435  0.0932  1.6604 -1.0338
  732TIP3   OH223610   6.280   3.465   1.340  0.0140 -0.1150  0.1762
  732TIP3    H123611   6.365   3.490   1.375  0.7607 -1.1988 -0.7981
  732TIP3    H223612   6.220   3.534   1.369  0.8468 -0.3139  2.4286
  733TIP3   OH223613   3.375   0.625  16.879  0.3589  0.2073  0.4699
  733TIP3    H123614   3.403   0.623  16.971  3.0033  0.9774 -0.2692
  733TIP3    H223615   3.380   0.717  16.855 -0.2957  0.0001 -0.4565
  734TIP3   OH223616   6.701   2.457   1.670  0.4627 -0.2729 -0.0472
  734TIP3    H123617   6.696   2.363   1.656  0.5081 -0.2680 -0.0972
  734TIP3    H223618   6.703   2.494   1.581  2.4476 -0.3333 -0.0421
  735TIP3   OH223619   4.945   1.701  17.010  0.5401  0.6963 -0.1263
  735TIP3    H123620   4.941   1.606  17.000 -0.9222  0.8494 -1.1547
  735TIP3    H223621   4.987   1.714  17.094 -1.2006 -0.9082  1.0414
  736TIP3   OH223622   0.750   1.900   4.985  0.3410 -0.0290 -0.6588
  736TIP3    H123623   0.786   1.888   5.073 -2.5599  1.6388  0.8365
  736TIP3    H223624   0.779   1.988   4.960  0.1160 -0.0104 -0.8524
  737TIP3   OH223625   2.078   1.817  16.998  0.7698 -0.3166 -0.3365
  737TIP3    H123626   2.102   1.760  16.925  2.7440 -0.1958  0.1762
  737TIP3    H223627   2.156   1.871  17.013 -0.2917  0.9787  0.6211
  738TIP3   OH223628   3.873   3.504  14.559  0.4948  0.2602  0.2209
  738TIP3    H123629   3.848   3.418  14.591 -0.6769  1.0331  1.4264
  738TIP3    H223630   3.929   3.540  14.628  1.0073  0.4652 -0.2938
  739TIP3   OH223631   3.044   4.649   3.747 -0.1908  0.0502 -0.4055
  739TIP3    H123632   3.138   4.634   3.743  0.3075  2.3693  1.2413
  739TIP3    H223633   3.008   4.570   3.788  0.7679 -1.6539 -2.7760
  740TIP3   OH223634   4.609   1.813  14.806  0.5110 -0.2327  0.3883
  740TIP3    H123635   4.579   1.792  14.718 -0.7035  0.6122  0.5809
  740TIP3    H223636   4.610   1.909  14.809 -0.7404 -0.2325  1.6898
  741TIP3   OH223637   0.133   4.225  14.135 -0.4822  0.0052 -0.0335
  741TIP3    H123638   0.196   4.155  14.151  1.6887  1.8108 -0.4086
  741TIP3    H223639   0.107   4.255  14.222  0.6342  0.4993  0.1412
  742TIP3   OH223640   5.156   0.097   4.411 -0.0837  0.7462  0.6423
  742TIP3    H123641   5.063   0.106   4.431 -0.1948  1.2106 -0.0549
  742TIP3    H223642   5.170   0.002   4.405 -0.8503  0.6969 -0.7206
  743TIP3   OH223643   3.523   2.598  12.637  0.7420  0.2654  0.2239
  743TIP3    H123644   3.565   2.515  12.614  0.7337  0.4744 -0.5725
  743TIP3    H223645   3.531   2.603  12.732 -0.6659 -1.4044  0.4613
  744TIP3   OH223646   3.622   1.341  15.049 -0.2318 -0.3773  0.0271
  744TIP3    H123647   3.654   1.274  15.110  0.2712  2.4653  3.0732
  744TIP3    H223648   3.693   1.404  15.044 -0.8682  0.1925 -2.4516
  745TIP3   OH223649   5.227   6.612   4.486 -0.6939  0.3641  0.6295
  745TIP3    H123650   5.169   6.546   4.522 -1.2572  1.7855  2.3936
  745TIP3    H223651   5.315   6.583   4.512 -0.9072  0.1049  1.0714
  746TIP3   OH223652   0.298   5.998  13.564  0.8859  0.0148  0.0660
  746TIP3    H123653   0.283   6.053  13.641 -0.2577  0.5863 -0.5393
  746TIP3    H223654   0.300   6.059  13.490  0.5527 -0.6572 -0.5121
  747TIP3   OH223655   4.708   1.617  13.135 -0.0907  0.2146 -0.1036
  747TIP3    H123656   4.748   1.543  13.089 -2.2839  0.1966 -2.1020
  747TIP3    H223657   4.616   1.592  13.145 -0.6441  2.2316  0.1287
  748TIP3   OH223658   6.634   3.171   4.772 -0.0955  0.1348  0.1671
  748TIP3    H123659   6.712   3.217   4.742  1.6234 -1.4009  2.1769
  748TIP3    H223660   6.658   3.079   4.772 -2.3468 -0.5002 -0.4120
  749TIP3   OH223661   5.872   1.647  15.088 -0.0362 -0.4487 -0.4365
  749TIP3    H123662   5.913   1.561  15.099 -0.0373 -0.4254 -0.2577
  749TIP3    H223663   5.861   1.680  15.177  0.0010 -0.2465 -0.5079
  750TIP3   OH223664   0.072   5.964  12.128  1.1260 -0.3686  0.3806
  750TIP3    H123665   0.014   6.038  12.146 -2.1826 -2.4609 -1.3152
  750TIP3    H223666   0.101   5.978  12.038 -0.2251 -1.5365 -0.2605
  751TIP3   OH223667   3.731   2.621  12.389  0.5266 -0.1050  0.4069
  751TIP3    H123668   3.739   2.576  12.304 -0.1100 -0.1800  0.3838
  751TIP3    H223669   3.666   2.569  12.437 -0.4366  0.9605  0.2718
  752TIP3   OH223670   0.680   0.019  16.341  0.0924  0.2123  0.2343
  752TIP3    H123671   0.610   0.020  16.407  0.9596 -0.8830  1.2012
  752TIP3    H223672   0.636   0.038  16.259 -0.8771  2.5142  1.2511
  753TIP3   OH223673   4.285   3.305  10.626 -0.2719 -0.2758  0.3975
  753TIP3    H123674   4.334   3.241  10.575 -0.6928  0.1094 -0.5002
  753TIP3    H223675   4.193   3.279  10.617 -0.2935 -0.6521  1.5972
  754TIP3   OH223676   0.299   3.249  11.521 -0.1155  0.4810  0.3947
  754TIP3    H123677   0.338   3.301  11.451  0.0423  1.8249  1.4571
  754TIP3    H223678   0.358   3.174  11.531  0.6967  1.0749  0.1226
  755TIP3   OH223679   2.330   1.449  11.042  0.1878 -0.6463 -0.0639
  755TIP3    H123680   2.340   1.361  11.006  0.8558 -1.0098  1.0061
  755TIP3    H223681   2.291   1.436  11.128 -2.5950  0.3071 -1.1341
  756TIP3   OH223682   0.546   0.650  12.877 -0.2111 -0.2457  0.3195
  756TIP3    H123683   0.467   0.631  12.827 -0.2664 -2.6427  1.2525
  756TIP3    H223684   0.617   0.642  12.814 -0.5001 -0.6632  0.0454
  757TIP3   OH223685   5.168   2.183   6.127 -0.4669  1.1085 -0.0245
  757TIP3    H123686   5.118   2.108   6.095  0.9971  0.1597 -0.1323
  757TIP3    H223687   5.102   2.251   6.141 -1.7042  0.0918 -0.7535
  758TIP3   OH223688   5.584   0.456  11.618  0.1759 -0.3583  0.4385
  758TIP3    H123689   5.538   0.539  11.629 -1.6812 -1.2156 -0.5051
  758TIP3    H223690   5.521   0.390  11.647  1.3512 -1.4874  0.4896
  759TIP3   OH223691   4.791   0.325  15.214  0.1588 -0.1578 -0.3695
  759TIP3    H123692   4.806   0.408  15.260  2.4657 -0.1612 -1.0636
  759TIP3    H223693   4.805   0.347  15.122 -0.7645 -0.9803 -0.7009
  760TIP3   OH223694   5.833   1.254   0.036  0.0555  0.1764  0.7463
  760TIP3    H123695   5.784   1.333   0.059 -0.1435 -0.3821  2.2853
  760TIP3    H223696   5.903   1.249   0.101  0.4320 -0.5850  0.2933
  761TIP3   OH223697   6.685   2.281  17.192  0.0592  0.1644  0.6430
  761TIP3    H123698   6.775   2.254  17.211  0.4070 -0.2703 -1.5471
  761TIP3    H223699   6.693   2.374  17.170  0.6070 -0.7799 -3.5022
  762TIP3   OH223700   2.416   3.896   0.671  0.0672  0.1899  0.3667
  762TIP3    H123701   2.399   3.910   0.578 -0.1014  0.2740  0.4081
  762TIP3    H223702   2.511   3.888   0.678  0.1510  1.0107  0.2931
  763TIP3   OH223703   0.447   2.556  12.387  0.1913 -0.2753  0.3605
  763TIP3    H123704   0.412   2.612  12.318  1.7727  1.1276  0.6741
  763TIP3    H223705   0.519   2.607  12.426 -0.0159 -1.4417  2.3641
  764TIP3   OH223706   0.265   4.016  17.194 -0.0846 -0.2302 -0.2978
  764TIP3    H123707   0.329   4.077  17.233 -1.1522  2.8981 -3.1799
  764TIP3    H223708   0.184   4.034  17.242 -0.2938  0.3021 -0.8502
  765TIP3   OH223709   5.340   5.073   6.722  0.2841  0.0795  0.0054
  765TIP3    H123710   5.425   5.073   6.678  1.0329 -1.7255  1.4142
  765TIP3    H223711   5.347   5.141   6.789  0.9394 -0.6802  0.7139
  766TIP3   OH223712   1.253   3.348   6.165 -0.2335  0.2134  0.0850
  766TIP3    H123713   1.163   3.381   6.166  0.5510  2.3787  0.8662
  766TIP3    H223714   1.308   3.426   6.160  1.6422 -1.0513  0.3665
  767TIP3   OH223715   0.260   2.347  11.812  0.1397  0.2597 -0.3946
  767TIP3    H123716   0.254   2.284  11.883 -0.8585  0.3670 -0.3751
  767TIP3    H223717   0.210   2.307  11.740  3.4101 -1.1407 -2.0174
  768TIP3   OH223718   2.692   0.796   0.694  0.0857  0.3101 -0.1174
  768TIP3    H123719   2.661   0.862   0.633 -2.0172 -0.7010 -0.1924
  768TIP3    H223720   2.721   0.846   0.771 -0.5249  1.3761 -0.5699
  769TIP3   OH223721   4.209   5.730   6.330  0.4370 -0.8638  0.4595
  769TIP3    H123722   4.250   5.777   6.402 -1.0373  0.3266  0.5637
  769TIP3    H223723   4.208   5.639   6.357  2.2750 -0.8105  0.7823
  770TIP3   OH223724   1.239   5.421  15.369  0.2857  0.0685  0.0168
  770TIP3    H123725   1.180   5.493  15.392  0.2924 -0.3951  1.5671
  770TIP3    H223726   1.304   5.421  15.439 -0.0399 -1.7814  0.3382
  771TIP3   OH223727   2.381   4.292  16.300 -0.2416 -0.6839 -0.4215
  771TIP3    H123728   2.289   4.316  16.313  0.4040  1.5463  0.1975
  771TIP3    H223729   2.388   4.202  16.334 -2.2475 -0.9890 -0.7782
  772TIP3   OH223730   5.009   6.393   6.551 -0.5016  0.1525 -0.0388
  772TIP3    H123731   5.057   6.469   6.585  2.4765 -1.6037 -0.1005
  772TIP3    H223732   4.999   6.411   6.458  3.8381 -1.2021 -0.9171
  773TIP3   OH223733   4.734   4.049  15.849 -0.0785  0.2710 -0.1948
  773TIP3    H123734   4.741   4.134  15.804  0.4866 -0.5537 -1.6886
  773TIP3    H223735   4.650   4.054  15.895 -1.1603  0.7586 -2.1620
  774TIP3   OH223736   2.395   0.779  15.584  0.0402  0.0355 -0.0505
  774TIP3    H123737   2.465   0.834  15.618  1.7101 -1.8715 -0.2868
  774TIP3    H223738   2.417   0.767  15.492 -0.1934 -1.1474  0.0394
  775TIP3   OH223739   6.781   2.385   6.007  0.3447  0.8247 -0.3479
  775TIP3    H123740   6.779   2.336   6.089  2.2002 -0.2745 -0.9239
  775TIP3    H223741   6.806   2.473   6.032 -0.6447  0.8834  0.4398
  776TIP3   OH223742   2.736   0.850   6.331  0.1726 -0.6164  0.3095
  776TIP3    H123743   2.758   0.766   6.373 -0.9714 -1.4321 -0.6829
  776TIP3    H223744   2.766   0.840   6.241 -0.6492 -0.2298 -0.0060
  777TIP3   OH223745   1.683   1.645   0.590 -0.5340 -0.3564  0.1384
  777TIP3    H123746   1.665   1.733   0.557 -0.4470  0.6104  2.5877
  777TIP3    H223747   1.606   1.623   0.642 -0.6832 -1.8620 -0.7096
  778TIP3   OH223748   2.223   2.576   5.803 -0.5152 -0.4374  0.3205
  778TIP3    H123749   2.185   2.664   5.802  0.2541 -0.0941 -1.4476
  778TIP3    H223750   2.304   2.585   5.853 -0.6659 -0.2474  0.5314
  779TIP3   OH223751   5.816   6.264   0.778  0.1781 -0.1796  0.6221
  779TIP3    H123752   5.873   6.331   0.739  0.4894  0.2814  1.8387
  779TIP3    H223753   5.826   6.188   0.722  0.2402  0.6270 -0.4739
  780TIP3   OH223754   4.958   6.676  16.831  0.2531  0.3542  0.1725
  780TIP3    H123755   4.920   6.627  16.904  0.1593  0.3756  0.1409
  780TIP3    H223756   4.898   6.751  16.819 -0.2156 -0.1247 -0.4985
  781TIP3   OH223757   0.773   0.418  15.804  0.1813 -0.0053  0.4587
  781TIP3    H123758   0.829   0.490  15.774 -1.4277  0.7934 -0.7018
  781TIP3    H223759   0.796   0.407  15.896  1.3321  1.1691  0.3390
  782TIP3   OH223760   0.189   2.847  12.463  0.2125  0.4356 -0.2916
  782TIP3    H123761   0.228   2.822  12.547 -1.2325 -0.9162  0.0207
  782TIP3    H223762   0.261   2.848  12.401  1.4138  2.1176  1.1102
  783TIP3   OH223763   6.339   2.124  13.603  0.3201  0.9794 -0.1008
  783TIP3    H123764   6.264   2.096  13.656 -0.2270  2.1653 -0.2176
  783TIP3    H223765   6.304   2.196  13.550  1.5789  1.6227 -0.0639
  784TIP3   OH223766   4.481   4.976  14.720  0.1753 -0.6773  0.0465
  784TIP3    H123767   4.429   4.947  14.795  1.6777  0.4320  1.5675
  784TIP3    H223768   4.545   5.037  14.758  0.3775  0.6120 -2.2777
  785TIP3   OH223769   0.329   4.297   5.931 -0.1463  0.3110 -0.5300
  785TIP3    H123770   0.378   4.323   6.009 -0.7967 -1.7420  0.5879
  785TIP3    H223771   0.390   4.242   5.882 -0.6787 -0.7035 -0.0645
  786TIP3   OH223772   6.016   5.963   0.758  0.1593 -0.6012 -0.1348
  786TIP3    H123773   6.037   6.016   0.835  3.4388 -0.0841 -1.3252
  786TIP3    H223774   5.994   6.026   0.690  0.5119 -0.9232 -0.5488
  787TIP3   OH223775   5.724   1.554   1.110 -0.1882 -0.3710 -0.2926
  787TIP3    H123776   5.671   1.612   1.055  0.0717 -2.0918 -2.4371
  787TIP3    H223777   5.757   1.610   1.180 -3.5252  1.0893  0.2023
  788TIP3   OH223778   5.377   4.691   2.900  0.1510  0.4252 -0.3622
  788TIP3    H123779   5.376   4.652   2.988 -0.0251  0.5873 -0.2926
  788TIP3    H223780   5.309   4.643   2.852  0.3329  0.2520 -0.4472
  789TIP3   OH223781   5.178   3.376  16.154 -0.3986  0.2355  0.1974
  789TIP3    H123782   5.251   3.383  16.092  0.4445  0.2422  1.1709
  789TIP3    H223783   5.165   3.282  16.164 -0.0221  0.2252  0.5970
  790TIP3   OH223784   0.875   4.468  11.113  0.1556 -0.3032  0.2678
  790TIP3    H123785   0.788   4.431  11.094 -0.4499  2.3827 -2.7637
  790TIP3    H223786   0.870   4.497  11.204 -2.1632 -0.1763  0.1244
  791TIP3   OH223787   6.612   5.372   5.877  0.2524 -0.3845 -0.1227
  791TIP3    H123788   6.536   5.431   5.875  0.9914  0.6076  0.6263
  791TIP3    H223789   6.582   5.297   5.929  0.3839  0.8662  1.7997
  792TIP3   OH223790   3.785   1.654   0.062  0.1402 -0.2243  0.1694
  792TIP3    H123791   3.870   1.645   0.105  0.1468 -0.2373  0.1536
  792TIP3    H223792   3.804   1.653  -0.031 -0.1614 -3.5398  0.0572
  793TIP3   OH223793   1.537   6.786   1.315 -0.0597  0.0078  0.3807
  793TIP3    H123794   1.497   6.867   1.347 -2.0719 -0.9686  0.4662
  793TIP3    H223795   1.466   6.742   1.268  0.7239 -2.1656  1.1729
  794TIP3   OH223796   2.462   3.722   4.938 -0.1213  0.0949  0.0308
  794TIP3    H123797   2.494   3.641   4.978  0.7857  0.9269  1.0245
  794TIP3    H223798   2.504   3.724   4.852 -2.4540 -1.9399 -1.2043
  795TIP3   OH223799   5.426   5.291  13.148 -0.3263  0.3248  0.2865
  795TIP3    H123800   5.369   5.233  13.198 -0.0099 -0.1155  0.1433
  795TIP3    H223801   5.510   5.246  13.146 -0.3597  0.2863 -0.7153
  796TIP3   OH223802   4.417   6.477  16.511  1.0680 -0.2845 -0.6943
  796TIP3    H123803   4.494   6.421  16.505 -0.0132 -1.8150 -0.6159
  796TIP3    H223804   4.353   6.425  16.559  0.5546  1.6155  0.7429
  797TIP3   OH223805   0.903   5.432  16.378  0.1742 -0.3001  0.7044
  797TIP3    H123806   0.890   5.496  16.447 -0.6401 -1.8137  1.9731
  797TIP3    H223807   0.819   5.387  16.370  0.8902 -1.6024  0.2409
  798TIP3   OH223808   5.836   0.754   4.571  0.1153 -0.0252  0.5564
  798TIP3    H123809   5.780   0.683   4.602  0.4027 -0.2154  0.6461
  798TIP3    H223810   5.776   0.824   4.548 -0.2041 -0.4811 -0.0174
  799TIP3   OH223811   4.599   6.555   3.400  0.4204 -0.0839 -0.4061
  799TIP3    H123812   4.538   6.561   3.327 -1.1436  0.6136  0.9354
  799TIP3    H223813   4.552   6.506   3.467  1.6559 -0.2881  0.3357
  800TIP3   OH223814   0.718   0.664   5.057  0.1002  0.2499  0.2695
  800TIP3    H123815   0.686   0.684   4.969  0.0309 -0.4654  0.1296
  800TIP3    H223816   0.681   0.733   5.112  1.3341  1.5524 -0.4937
  801TIP3   OH223817   5.640   4.691   4.581  0.5343 -0.2471 -0.3700
  801TIP3    H123818   5.689   4.716   4.503  2.7520  0.5147  1.2183
  801TIP3    H223819   5.647   4.767   4.639  2.0359 -2.0967  1.9975
  802TIP3   OH223820   5.441   0.011  13.533 -0.6450  0.1252  0.2680
  802TIP3    H123821   5.369  -0.038  13.574 -0.2873  0.4023  1.2304
  802TIP3    H223822   5.416   0.103  13.542 -2.0734  0.1388 -2.9268
  803TIP3   OH223823   6.573   3.733  13.947 -0.0949  0.2610 -0.0670
  803TIP3    H123824   6.617   3.791  14.008  3.1687  1.0865 -3.0372
  803TIP3    H223825   6.489   3.775  13.929 -0.3323  0.8834  2.4382
  804TIP3   OH223826   1.098   2.535  15.137  0.7270 -0.6004  0.4836
  804TIP3    H123827   1.046   2.492  15.205 -2.3541 -0.3893 -1.6191
  804TIP3    H223828   1.070   2.626  15.140 -1.1496 -1.0031 -2.4653
  805TIP3   OH223829   2.480   2.391   3.464  0.3062 -0.0428  0.2612
  805TIP3    H123830   2.575   2.398   3.454  0.3490 -1.3659 -0.3641
  805TIP3    H223831   2.469   2.331   3.538 -0.0373 -0.9906 -0.5483
  806TIP3   OH223832   2.318   0.146  14.964 -0.4315  0.0693 -0.0804
  806TIP3    H123833   2.394   0.088  14.957  1.3995  2.1350  1.6503
  806TIP3    H223834   2.327   0.207  14.891 -1.2480 -0.5761 -0.7286
  807TIP3   OH223835   3.150   0.036  14.101  0.2183  0.2209 -0.0338
  807TIP3    H123836   3.103   0.112  14.067 -1.4388 -1.7916 -2.4073
  807TIP3    H223837   3.091  -0.002  14.167 -0.1507 -0.5642 -0.8152
  808TIP3   OH223838   1.237   4.568  15.948 -0.9279  0.0441  0.2711
  808TIP3    H123839   1.275   4.490  15.990 -1.8385 -0.2995  0.4713
  808TIP3    H223840   1.181   4.532  15.878  0.6390  0.6163 -1.2965
  809TIP3   OH223841   0.697   1.793  15.341 -0.1157 -0.0703  0.5278
  809TIP3    H123842   0.716   1.718  15.397 -0.0287 -2.4098 -2.5110
  809TIP3    H223843   0.769   1.796  15.279 -1.7991  0.4324 -1.4852
  810TIP3   OH223844   6.582   4.953  16.825  0.3570 -0.5864 -0.6410
  810TIP3    H123845   6.538   5.037  16.810 -0.3913 -1.4763 -3.7092
  810TIP3    H223846   6.525   4.908  16.887  1.5650  1.7011  2.3103
  811TIP3   OH223847   2.997   1.933  16.255 -0.2114  0.8584  0.0381
  811TIP3    H123848   2.958   1.991  16.189 -0.3570  0.2566 -0.4078
  811TIP3    H223849   3.091   1.948  16.248 -0.3836  2.8898  1.6424
  812TIP3   OH223850   4.081   2.494   3.017  0.1610  0.4333 -0.2547
  812TIP3    H123851   4.171   2.462   3.007 -0.1591 -0.6954  0.3692
  812TIP3    H223852   4.027   2.422   2.986 -0.6319 -0.4383  2.9916
  813TIP3   OH223853   6.369   3.506   2.085 -0.2152 -0.0051 -0.2936
  813TIP3    H123854   6.446   3.558   2.107 -0.8200  1.4191 -1.4571
  813TIP3    H223855   6.318   3.505   2.166  0.4909 -0.0033  0.1564
  814TIP3   OH223856   1.190   2.079   1.850 -0.4169 -0.6436  0.8839
  814TIP3    H123857   1.129   2.040   1.787 -0.1950 -0.3155  0.4685
  814TIP3    H223858   1.229   2.004   1.894  0.5535 -0.9175 -0.4248
  815TIP3   OH223859   0.907   0.085   6.224 -0.7094  0.0717  0.0791
  815TIP3    H123860   1.001   0.092   6.238 -0.5574 -1.2496 -0.1851
  815TIP3    H223861   0.871   0.167   6.259  0.7838  1.7466 -2.1991
  816TIP3   OH223862   4.438   2.746  12.374 -0.1222  0.6980 -0.2592
  816TIP3    H123863   4.420   2.662  12.416 -0.7258  1.3768  0.8589
  816TIP3    H223864   4.414   2.733  12.282  0.8627 -0.6880 -0.3393
  817TIP3   OH223865   3.402   5.203  12.770  0.2238  0.8897  0.4790
  817TIP3    H123866   3.396   5.114  12.736 -1.2357  0.5043  1.7283
  817TIP3    H223867   3.490   5.232  12.745  0.1827 -0.3673 -1.1964
  818TIP3   OH223868   2.464   1.879  15.757 -0.3784  0.4860  0.0818
  818TIP3    H123869   2.456   1.789  15.788  0.5464  0.5542  0.5380
  818TIP3    H223870   2.493   1.871  15.667 -0.6141  0.3253  0.0203
  819TIP3   OH223871   5.663   0.302  14.276  0.3969  0.1041 -0.1875
  819TIP3    H123872   5.703   0.383  14.307 -0.5690  0.0836  1.1501
  819TIP3    H223873   5.734   0.254  14.234  1.3232  0.9375  0.4123
  820TIP3   OH223874   4.184   1.093  15.676  0.3665 -0.4377  0.0288
  820TIP3    H123875   4.181   1.023  15.742  1.4232 -0.1260  0.4183
  820TIP3    H223876   4.237   1.161  15.717 -0.3501  0.4447 -0.4959
  821TIP3   OH223877   0.677   4.943  15.055  0.0536 -0.4952  0.2583
  821TIP3    H123878   0.637   4.959  15.141 -0.9566  2.3240 -0.6810
  821TIP3    H223879   0.755   4.998  15.054  0.0535 -0.5054 -0.6217
  822TIP3   OH223880   2.584   1.230  15.090  0.5682 -0.2655  0.2397
  822TIP3    H123881   2.668   1.228  15.045  0.2014  0.5934 -0.5016
  822TIP3    H223882   2.530   1.290  15.038 -0.3250 -0.3834  1.0090
  823TIP3   OH223883   4.369   4.737  12.262 -0.5327 -0.3076 -1.0974
  823TIP3    H123884   4.436   4.700  12.319 -1.1660  1.8805  1.1438
  823TIP3    H223885   4.295   4.676  12.269 -1.4897  1.1463  2.3860
  824TIP3   OH223886   1.173   1.023  11.685 -1.0345  0.7461 -0.6990
  824TIP3    H123887   1.166   0.988  11.774  0.4930 -0.0282 -0.8637
  824TIP3    H223888   1.254   0.984  11.650 -1.5295  1.1613 -2.3704
  825TIP3   OH223889   1.870   0.563   1.271  0.0395  0.1872  0.5143
  825TIP3    H123890   1.778   0.535   1.272  0.2046 -0.4995 -1.4480
  825TIP3    H223891   1.885   0.592   1.181  1.8094  0.0967  0.7714
  826TIP3   OH223892   3.221   3.266  12.005  0.2806 -0.4024  0.5889
  826TIP3    H123893   3.258   3.208  11.938 -0.2216  0.1077 -0.1400
  826TIP3    H223894   3.233   3.354  11.970 -2.0015 -0.2359  0.1196
  827TIP3   OH223895   3.632   4.568  11.010 -0.3923 -0.1813  0.2670
  827TIP3    H123896   3.570   4.609  11.070 -1.7023 -0.9972 -0.4931
  827TIP3    H223897   3.606   4.600  10.923  0.3661 -0.3883 -0.0442
  828TIP3   OH223898   2.094   1.043  13.882  0.8003  0.4176 -0.8040
  828TIP3    H123899   2.008   1.015  13.914  1.3248 -1.0161 -0.6040
  828TIP3    H223900   2.141   1.071  13.960  0.9551 -0.0292 -0.7319
  829TIP3   OH223901   3.602   3.400  15.318  0.5641  0.5002  0.4690
  829TIP3    H123902   3.515   3.404  15.358  0.6887 -0.9584  0.9196
  829TIP3    H223903   3.649   3.475  15.354  0.0672  0.2829  1.5968
  830TIP3   OH223904   5.089   1.949  11.907  0.2593  0.1596  0.8867
  830TIP3    H123905   5.040   1.873  11.940  0.4817  0.3254  1.6103
  830TIP3    H223906   5.180   1.929  11.928  0.3994  0.2822  0.3960
  831TIP3   OH223907   6.387   0.247   2.064 -0.1064  0.6534 -0.1813
  831TIP3    H123908   6.357   0.337   2.072 -0.1194  1.1737 -4.6714
  831TIP3    H223909   6.457   0.251   1.998 -1.1760 -2.7689 -1.6513
  832TIP3   OH223910   6.156   5.174  15.035  0.1866  0.3358 -0.4395
  832TIP3    H123911   6.142   5.107  15.101  2.0789  0.8477  0.5076
  832TIP3    H223912   6.178   5.125  14.955 -2.2115 -0.2836 -0.7543
  833TIP3   OH223913   5.074   5.851  12.147  0.5227  0.1987 -0.5329
  833TIP3    H123914   5.144   5.792  12.175  1.3963  1.3377 -0.2823
  833TIP3    H223915   5.099   5.936  12.182 -0.0313  1.0016 -2.0520
  834TIP3   OH223916   2.322   2.452   5.246 -0.5877  0.2661  0.3919
  834TIP3    H123917   2.325   2.531   5.300 -2.2037 -0.2882  1.3315
  834TIP3    H223918   2.273   2.389   5.299  0.3444 -1.2340 -0.5194
  835TIP3   OH223919   4.854   0.930   3.471 -0.2001 -0.4261  0.0051
  835TIP3    H123920   4.899   0.907   3.552  2.1041  3.4144 -0.0968
  835TIP3    H223921   4.768   0.961   3.499  0.0297 -0.5392  0.8534
  836TIP3   OH223922   5.187   3.338   2.574  0.1857 -0.4170  0.2267
  836TIP3    H123923   5.212   3.429   2.558 -0.4087 -0.3531 -0.3749
  836TIP3    H223924   5.092   3.340   2.585  0.1053 -1.0181 -0.2647
  837TIP3   OH223925   1.395   4.828  11.071 -0.1167 -0.9000  0.4752
  837TIP3    H123926   1.341   4.812  10.993 -1.1996 -0.1401  1.0454
  837TIP3    H223927   1.485   4.825  11.040 -0.5359 -0.8564 -0.7639
  838TIP3   OH223928   0.716   6.731  10.621 -0.7485 -0.0823  0.6082
  838TIP3    H123929   0.639   6.713  10.674 -1.8734  0.6461 -0.7514
  838TIP3    H223930   0.695   6.695  10.535  1.3584 -1.9306  0.8043
  839TIP3   OH223931   3.534   1.356  12.279  0.5416 -0.0458  0.0318
  839TIP3    H123932   3.596   1.418  12.242  0.1747 -1.2612 -2.7630
  839TIP3    H223933   3.562   1.271  12.245 -1.7542 -0.7980 -0.0926
  840TIP3   OH223934   2.569   5.801   4.802 -0.1747  0.2022 -0.0553
  840TIP3    H123935   2.655   5.829   4.770 -0.1050  0.5979  0.4764
  840TIP3    H223936   2.558   5.847   4.886 -0.0105 -1.4031  0.8821
  841TIP3   OH223937   1.777   0.993  13.226  0.7433  0.3476  0.1918
  841TIP3    H123938   1.843   1.043  13.274  1.5336 -0.1372 -0.3689
  841TIP3    H223939   1.801   1.004  13.134  0.9977 -1.1395  0.0616
  842TIP3   OH223940   2.739   1.048  16.567 -0.5005  0.7132  0.0141
  842TIP3    H123941   2.703   1.047  16.655  1.1114  0.8903  0.6852
  842TIP3    H223942   2.679   1.104  16.518 -2.1920 -0.5033  0.6271
  843TIP3   OH223943   1.324   4.412   0.898  0.7621 -0.0460 -0.4238
  843TIP3    H123944   1.344   4.504   0.911 -0.6124  0.3926 -1.2938
  843TIP3    H223945   1.240   4.399   0.940  0.8001 -0.8314 -0.5809
  844TIP3   OH223946   4.194   0.275   3.326 -0.1257  0.1573  0.9398
  844TIP3    H123947   4.205   0.358   3.279 -1.1916 -1.5523 -2.4792
  844TIP3    H223948   4.278   0.231   3.316  0.2675  0.5892  2.3020
  845TIP3   OH223949   6.357   1.495  15.887  0.2998  0.1326 -0.0641
  845TIP3    H123950   6.406   1.420  15.922  1.2633  0.5481 -0.5053
  845TIP3    H223951   6.266   1.468  15.891  0.4722 -0.2512  1.7673
  846TIP3   OH223952   0.705   1.521   2.714 -0.1330  1.2643 -0.0071
  846TIP3    H123953   0.672   1.471   2.788 -0.5353  0.6418 -0.5957
  846TIP3    H223954   0.722   1.455   2.646  1.3798  1.6879 -0.0593
  847TIP3   OH223955   2.341   3.225   2.594 -0.1348 -0.1731  0.8899
  847TIP3    H123956   2.289   3.280   2.536 -1.9537 -1.8552  0.8590
  847TIP3    H223957   2.291   3.224   2.676  1.2856  0.4134  1.7804
  848TIP3   OH223958   2.433   2.049  14.237  0.2763  0.2755 -0.2450
  848TIP3    H123959   2.364   1.991  14.271 -0.8654  1.9328  0.3544
  848TIP3    H223960   2.396   2.086  14.157  1.1471 -0.0960 -0.8280
  849TIP3   OH223961   1.629   5.185   3.258 -0.2850 -0.4469  0.4216
  849TIP3    H123962   1.666   5.104   3.222  0.1122  0.3957 -1.1369
  849TIP3    H223963   1.626   5.171   3.352 -0.1607 -2.2506  0.1702
  850TIP3   OH223964   0.217   0.379  15.289  0.4976 -0.6708 -0.1671
  850TIP3    H123965   0.126   0.394  15.316  0.7347  1.2473 -0.3425
  850TIP3    H223966   0.212   0.373  15.193  0.1691 -3.6662 -0.0082
  851TIP3   OH223967   1.827   5.881   0.369  0.1020  0.3323 -0.1010
  851TIP3    H123968   1.821   5.794   0.409 -1.1306  1.1031  1.4499
  851TIP3    H223969   1.901   5.875   0.309  0.6907 -1.4830  0.7791
  852TIP3   OH223970   3.504   4.327   1.886  0.0601 -0.0130 -0.5634
  852TIP3    H123971   3.411   4.349   1.879 -0.1608 -0.6872  0.2395
  852TIP3    H223972   3.547   4.411   1.899 -0.2197  0.5423 -2.9222
  853TIP3   OH223973   6.418   5.715   5.158 -0.5137  0.1499 -0.4580
  853TIP3    H123974   6.483   5.731   5.089 -1.2011  0.0481 -1.1294
  853TIP3    H223975   6.452   5.762   5.234  0.7569 -0.5508 -0.5747
  854TIP3   OH223976   5.892   6.172   2.635 -0.3262  0.4248  0.4898
  854TIP3    H123977   5.980   6.189   2.670  0.5069 -0.8521 -0.9208
  854TIP3    H223978   5.905   6.165   2.540 -2.0830  0.9616  0.1967
  855TIP3   OH223979   2.886   2.614  16.445  0.3731  0.0972 -0.3328
  855TIP3    H123980   2.857   2.523  16.434  0.9985 -0.0569 -0.7653
  855TIP3    H223981   2.979   2.607  16.465 -0.0716  0.5411  2.0562
  856TIP3   OH223982   5.640   3.166  13.459 -0.5820  0.1019 -0.0855
  856TIP3    H123983   5.638   3.072  13.443 -1.8565 -0.3272  2.2596
  856TIP3    H223984   5.732   3.190  13.449  0.0163 -1.6865  0.8085
  857TIP3   OH223985   3.613   5.983   1.135 -0.3494  0.5119 -0.0739
  857TIP3    H123986   3.627   6.077   1.147  0.6393  0.4247 -0.4874
  857TIP3    H223987   3.540   5.962   1.194 -0.5563  1.5248  0.0456
  858TIP3   OH223988   3.168   1.444  11.639 -0.3495 -0.3021  0.2200
  858TIP3    H123989   3.152   1.444  11.734  0.1653 -0.2368  0.3043
  858TIP3    H223990   3.147   1.354  11.612  0.6838 -0.6631  0.5951
  859TIP3   OH223991   2.677   4.858  17.099 -0.1570 -0.2253  0.1710
  859TIP3    H123992   2.612   4.926  17.081  1.9897  2.0537  0.7150
  859TIP3    H223993   2.673   4.847  17.194  0.0551 -0.2918  0.1719
  860TIP3   OH223994   2.766   2.965  14.565  0.3919  0.4024 -0.7153
  860TIP3    H123995   2.682   3.009  14.557 -0.0166 -0.2564 -0.0448
  860TIP3    H223996   2.759   2.889  14.507  0.1453 -0.2285  0.1387
  861TIP3   OH223997   4.275   3.290  15.850  0.7333 -0.1173 -0.2483
  861TIP3    H123998   4.331   3.318  15.922 -0.9883  0.4299  0.8956
  861TIP3    H223999   4.311   3.206  15.822  1.0000 -0.6608  1.7069
  862TIP3   OH224000   1.844   1.091  16.330 -0.3097 -0.3180 -0.3833
  862TIP3    H124001   1.806   1.007  16.356 -0.2622 -1.0724 -2.6509
  862TIP3    H224002   1.779   1.129  16.271  1.1118 -0.3114 -2.0092
  863TIP3   OH224003   5.477   3.864   0.180 -0.1831  0.1832  0.0262
  863TIP3    H124004   5.427   3.880   0.260  0.4647 -2.4328  0.9907
  863TIP3    H224005   5.557   3.821   0.210  1.9958  2.8855 -1.6350
  864TIP3   OH224006   5.628   5.544  10.972 -0.0098 -0.3022 -0.0851
  864TIP3    H124007   5.550   5.569  10.922 -0.3599  0.4114  0.8149
  864TIP3    H224008   5.628   5.449  10.970 -2.2765 -0.3821  2.0014
  865TIP3   OH224009   6.534   3.443   2.776 -0.0168  0.2728 -0.1916
  865TIP3    H124010   6.524   3.483   2.863  0.9576 -1.6701  0.8584
  865TIP3    H224011   6.447   3.409   2.755  0.4407 -2.0353  1.4739
  866TIP3   OH224012   6.278   4.250  15.775  0.7903  0.0156 -0.1268
  866TIP3    H124013   6.276   4.214  15.686 -1.3755 -0.7475  0.1859
  866TIP3    H224014   6.248   4.340  15.765  0.8763  0.0323 -0.2327
  867TIP3   OH224015   2.059   0.931  16.843  0.9326  0.5473 -0.0237
  867TIP3    H124016   2.129   0.953  16.782  0.8509 -0.8090 -0.6259
  867TIP3    H224017   2.076   0.986  16.920  2.4121  0.5370 -0.3285
  868TIP3   OH224018   1.774   5.677   3.183 -0.1814 -0.4380  0.0930
  868TIP3    H124019   1.846   5.664   3.120 -0.9288  0.0440 -0.8784
  868TIP3    H224020   1.732   5.591   3.188  1.0717 -0.9796  1.4325
  869TIP3   OH224021   6.457   0.360   0.459 -0.6169  0.6382 -0.0619
  869TIP3    H124022   6.488   0.443   0.497  1.9565 -1.2730  2.1932
  869TIP3    H224023   6.388   0.331   0.519 -1.4435  1.0623 -0.7931
  870TIP3   OH224024   0.006   1.858  11.760  0.1602 -0.4704 -0.0993
  870TIP3    H124025   0.059   1.864  11.681  0.7422 -0.2387  0.3006
  870TIP3    H224026  -0.083   1.876  11.732 -0.1648 -3.5551 -1.3008
  871TIP3   OH224027   3.088   0.509   4.627 -0.2730  0.2247 -0.6658
  871TIP3    H124028   3.112   0.574   4.561 -0.0930 -0.3511 -1.1790
  871TIP3    H224029   3.012   0.547   4.671 -0.6436  0.4451 -1.4789
  872TIP3   OH224030   4.683   6.368  15.234 -0.2303  0.6097 -0.1117
  872TIP3    H124031   4.642   6.453  15.219  0.3148  0.6662 -1.4006
  872TIP3    H224032   4.734   6.352  15.154  0.6612 -0.3604  0.6396
  873TIP3   OH224033   6.365   6.351   4.048  0.9435  0.0158  0.4959
  873TIP3    H124034   6.374   6.280   3.983  0.7465  0.6802 -0.2598
  873TIP3    H224035   6.331   6.307   4.126  2.2179 -0.9813  0.5022
  874TIP3   OH224036   0.844   6.551   5.200  0.0841  0.0541  0.1431
  874TIP3    H124037   0.800   6.503   5.129 -0.0778  0.8842 -0.3303
  874TIP3    H224038   0.907   6.607   5.156 -1.8566  2.5605  0.3991
  875TIP3   OH224039   2.832   0.676   4.013 -0.7715 -0.2425 -0.3369
  875TIP3    H124040   2.746   0.667   3.972 -0.4034  1.2675 -1.4840
  875TIP3    H224041   2.894   0.655   3.942 -0.1795 -0.0279  0.1151
  876TIP3   OH224042   0.525   0.382  13.145  0.5915  0.4373  0.1835
  876TIP3    H124043   0.440   0.366  13.103 -0.3997  1.3040  1.8262
  876TIP3    H224044   0.588   0.372  13.074 -0.8094 -0.9236 -0.9288
  877TIP3   OH224045   5.129   2.391  13.871  0.0301  0.2820  0.2732
  877TIP3    H124046   5.042   2.374  13.910  0.1528 -1.8534 -0.2827
  877TIP3    H224047   5.122   2.478  13.834 -2.2772 -0.2876 -0.7446
  878TIP3   OH224048   5.907   1.130  13.204  0.1030  0.1267 -0.6160
  878TIP3    H124049   5.998   1.128  13.175 -0.5917  0.0020 -2.8369
  878TIP3    H224050   5.897   1.217  13.244  2.0369 -1.0238  2.5674
  879TIP3   OH224051   5.864   1.631   4.583 -0.0576 -0.2749 -0.5459
  879TIP3    H124052   5.841   1.719   4.612  1.0494 -0.0985 -0.1733
  879TIP3    H224053   5.942   1.643   4.529  0.0111 -1.0101 -0.6177
  880TIP3   OH224054   5.294   2.874  11.634 -0.6345 -0.4059  0.2979
  880TIP3    H124055   5.332   2.787  11.646  2.3527  0.6723 -1.0386
  880TIP3    H224056   5.328   2.904  11.550 -2.2091  1.7757  0.3958
  881TIP3   OH224057   0.703   0.685  11.358 -0.0941  0.0469  0.0067
  881TIP3    H124058   0.791   0.667  11.325 -0.3032 -0.1570 -0.4430
  881TIP3    H224059   0.659   0.600  11.355 -0.4501  0.2395 -0.1959
  882TIP3   OH224060   4.075   4.772   2.146  0.5491 -0.0827  0.0532
  882TIP3    H124061   4.159   4.785   2.102  0.0583 -1.5339 -1.3757
  882TIP3    H224062   4.091   4.702   2.209  0.6124  0.2110  0.3645
  883TIP3   OH224063   0.119   0.151   3.240 -0.1621 -0.7725 -0.4183
  883TIP3    H124064   0.044   0.210   3.232  0.7590  0.7856  1.7715
  883TIP3    H224065   0.149   0.163   3.331  3.3700 -0.5023 -1.5387
  884TIP3   OH224066   1.862   2.770  16.586  0.0631 -0.2086  0.2666
  884TIP3    H124067   1.849   2.839  16.520  0.7519  0.4777  0.8312
  884TIP3    H224068   1.957   2.764  16.595  0.0358 -2.0680 -0.6245
  885TIP3   OH224069   1.424   2.815  13.054  0.1157  0.1533 -0.2606
  885TIP3    H124070   1.447   2.821  13.147  0.5531  0.1312 -0.3674
  885TIP3    H224071   1.452   2.898  13.017  2.2648 -0.8111 -0.8740
  886TIP3   OH224072   1.219   2.928  17.199  0.2504 -0.2002 -0.1261
  886TIP3    H124073   1.289   2.865  17.183  2.6319  2.2360  0.1607
  886TIP3    H224074   1.176   2.896  17.278  1.6411 -1.2774  0.2239
  887TIP3   OH224075   6.526   5.905  11.751  0.3079 -1.0870  0.0185
  887TIP3    H124076   6.585   5.838  11.715 -1.2766 -1.7729 -1.3678
  887TIP3    H224077   6.495   5.953  11.674  0.7826  0.7365  0.9338
  888TIP3   OH224078   5.158   4.059   3.216 -0.3484  0.3770 -0.0250
  888TIP3    H124079   5.189   4.002   3.145 -0.2093 -1.1088  1.2019
  888TIP3    H224080   5.213   4.036   3.291 -1.0447  1.3473  0.7941
  889TIP3   OH224081   2.765   3.728   1.094  0.3033  0.0396 -0.4836
  889TIP3    H124082   2.764   3.666   1.167 -1.1648 -0.2844 -0.7638
  889TIP3    H224083   2.674   3.733   1.065  0.2918  2.6142 -0.2076
  890TIP3   OH224084   6.215   2.018   0.328  0.4739 -0.5371 -0.0489
  890TIP3    H124085   6.249   1.953   0.266 -0.6431 -0.6356 -0.5775
  890TIP3    H224086   6.236   2.102   0.288 -0.4185 -0.6020 -0.6624
  891TIP3   OH224087   3.165   0.889  11.851  0.4296 -1.2342  0.3367
  891TIP3    H124088   3.216   0.901  11.932 -0.8826 -1.0283  1.1450
  891TIP3    H224089   3.074   0.882  11.881  0.0203 -1.9852 -1.0646
  892TIP3   OH224090   1.735   2.569   3.401  0.0104  0.1264 -0.4665
  892TIP3    H124091   1.809   2.520   3.438 -1.6361 -2.7369 -0.7956
  892TIP3    H224092   1.763   2.592   3.312  1.8635  2.2728  0.6155
  893TIP3   OH224093   4.659   0.545  13.225  0.3447  0.4363 -0.2155
  893TIP3    H124094   4.743   0.519  13.188 -0.2437  0.0506 -1.2822
  893TIP3    H224095   4.598   0.478  13.195 -0.9084  2.2436 -1.7925
  894TIP3   OH224096   1.229   3.199   0.783  0.2952  0.0812 -0.0813
  894TIP3    H124097   1.231   3.130   0.849  0.3106  0.2195  0.0649
  894TIP3    H224098   1.190   3.158   0.706  1.4237 -0.4208 -0.3809
  895TIP3   OH224099   1.626   4.671   4.908  0.1598 -0.2035 -0.1061
  895TIP3    H124100   1.572   4.728   4.964  0.3114 -0.8267  0.6864
  895TIP3    H224101   1.689   4.731   4.868  0.5713  0.1478  1.0259
  896TIP3   OH224102   6.047   0.900   3.544  0.0986 -0.0696  0.0037
  896TIP3    H124103   6.007   0.971   3.595  0.7118  0.8410 -0.7602
  896TIP3    H224104   5.986   0.885   3.472  1.6791  2.1995 -1.8902
  897TIP3   OH224105   0.399   0.934   1.243  0.4635 -0.3616  0.1044
  897TIP3    H124106   0.319   0.933   1.297  0.2725 -1.1786 -0.1833
  897TIP3    H224107   0.459   0.875   1.288  1.3042  1.0576  0.8880
  898TIP3   OH224108   2.154   2.569  14.946 -0.1072 -0.0017  0.1098
  898TIP3    H124109   2.244   2.584  14.917 -0.1878 -0.2152 -0.2517
  898TIP3    H224110   2.129   2.485  14.907 -1.3835  1.3148 -2.0510
  899TIP3   OH224111   3.731   2.236   5.830  0.1808  0.3327 -0.1286
  899TIP3    H124112   3.699   2.209   5.744  0.7787 -0.3298 -0.1443
  899TIP3    H224113   3.653   2.233   5.887  0.3286 -1.9653  0.0029
  900TIP3   OH224114   4.270   5.960  11.228 -0.1434 -0.5109 -0.1404
  900TIP3    H124115   4.262   5.879  11.179 -2.6972 -2.0101  2.6250
  900TIP3    H224116   4.228   6.026  11.173 -0.6251 -1.6323 -1.1264
  901TIP3   OH224117   5.845   6.008  16.787  0.1838 -0.7282  0.4821
  901TIP3    H124118   5.864   6.020  16.880 -2.0253  3.0682  0.5546
  901TIP3    H224119   5.918   6.051  16.742  0.1159 -0.6208  0.4773
  902TIP3   OH224120   2.737   3.732  12.879 -0.2230  0.3820  0.3767
  902TIP3    H124121   2.682   3.794  12.832 -0.4558 -0.0693  0.0507
  902TIP3    H224122   2.821   3.778  12.890 -0.5593  0.9450  0.5972
  903TIP3   OH224123   5.794   2.760  13.526 -0.2648  0.6323 -0.2106
  903TIP3    H124124   5.866   2.714  13.568 -0.9111  0.1527  0.3784
  903TIP3    H224125   5.717   2.740  13.580 -0.4845  2.7493  0.3367
  904TIP3   OH224126   1.974   4.663   2.617 -0.0338 -0.1814 -0.2548
  904TIP3    H124127   1.890   4.678   2.660  0.8612  1.2847  1.0052
  904TIP3    H224128   1.959   4.691   2.526 -0.2372  2.4844  0.5404
  905TIP3   OH224129   2.274   2.983  14.856 -0.1098  0.2153 -0.7526
  905TIP3    H124130   2.256   3.013  14.945  0.5752 -1.3044 -0.0856
  905TIP3    H224131   2.368   2.965  14.854 -0.0196  0.7494 -1.9446
  906TIP3   OH224132   5.508   6.016  13.005 -0.1494 -0.2048  0.3120
  906TIP3    H124133   5.568   5.995  12.934 -0.0917 -0.0081  0.3029
  906TIP3    H224134   5.561   6.062  13.069 -0.4236  0.5169  0.0269
  907TIP3   OH224135   2.731   4.960  14.524 -0.1858  0.0692  0.2797
  907TIP3    H124136   2.819   4.998  14.526 -0.5383  0.9008  0.0445
  907TIP3    H224137   2.695   4.987  14.440 -1.0446  0.6095  0.8118
  908TIP3   OH224138   2.524   0.031  15.150  0.6448  0.2322 -0.4510
  908TIP3    H124139   2.599   0.088  15.134  2.6376 -1.7366  1.6599
  908TIP3    H224140   2.545  -0.051  15.105 -0.5896 -0.0960 -0.4684
  909TIP3   OH224141   4.033   2.691   3.573  0.3356  0.0304  1.0302
  909TIP3    H124142   4.047   2.755   3.503 -0.4954  1.3889  2.0839
  909TIP3    H224143   4.121   2.659   3.593  0.4493 -1.6297 -1.7408
  910TIP3   OH224144   2.934   4.717   6.099  0.4544  0.0388 -0.5310
  910TIP3    H124145   2.844   4.688   6.085  0.3150  0.0232  0.3764
  910TIP3    H224146   2.986   4.637   6.097  0.4546  0.0482 -1.0558
  911TIP3   OH224147   1.031   0.013  13.213  0.0912  0.3474 -0.0789
  911TIP3    H124148   0.936   0.009  13.202 -0.1667 -3.3065  2.8918
  911TIP3    H224149   1.046   0.095  13.260 -1.8732 -0.2848  1.7191
  912TIP3   OH224150   0.080   3.450   0.079 -0.0738  0.1538 -0.0103
  912TIP3    H124151   0.121   3.370   0.045 -0.5918 -0.3763  0.5846
  912TIP3    H224152   0.007   3.466   0.019 -0.5979 -0.4151  0.4642
  913TIP3   OH224153   2.374   0.839  14.907  0.2390  0.1629  0.4028
  913TIP3    H124154   2.294   0.864  14.952 -0.4761 -0.3759 -0.5712
  913TIP3    H224155   2.353   0.757  14.863  1.8608 -0.9445  1.6090
  914TIP3   OH224156   1.437   5.392  15.539 -0.7023  0.3827  0.1215
  914TIP3    H124157   1.398   5.381  15.626 -3.2547  1.8018 -0.8074
  914TIP3    H224158   1.501   5.463  15.551 -1.1566  0.6897  0.7915
  915TIP3   OH224159   2.178   5.744   1.955  0.1859  0.1117 -0.2111
  915TIP3    H124160   2.129   5.760   2.036  2.0177  2.0777  0.5607
  915TIP3    H224161   2.160   5.652   1.934 -2.6029  0.3583  0.8388
  916TIP3   OH224162   5.645   0.659  16.118 -0.6395  0.1170  0.4362
  916TIP3    H124163   5.739   0.649  16.108 -0.8780  0.1329 -2.1158
  916TIP3    H224164   5.633   0.752  16.139 -0.1046  0.1461  0.6212
  917TIP3   OH224165   6.770   0.685  13.920 -0.4484 -0.3433 -0.1973
  917TIP3    H124166   6.861   0.695  13.946 -0.4340 -0.7332 -0.0936
  917TIP3    H224167   6.740   0.774  13.901 -0.5598  0.0042  1.4937
  918TIP3   OH224168   6.640   5.769  15.444  0.9116  0.5864 -0.2324
  918TIP3    H124169   6.600   5.743  15.527 -0.7281  0.4281 -1.0610
  918TIP3    H224170   6.684   5.852  15.464  0.1478  0.7797  0.6841
  919TIP3   OH224171   2.066   4.208  15.372  0.3791  0.7050 -0.8352
  919TIP3    H124172   2.084   4.255  15.453 -0.4015 -0.2583 -0.0779
  919TIP3    H224173   2.001   4.261  15.327 -1.2787 -0.1566  0.5054
  920TIP3   OH224174   4.433   2.416  11.141  0.6523 -0.1343 -0.2879
  920TIP3    H124175   4.391   2.424  11.227 -0.5960  0.6289 -0.9498
  920TIP3    H224176   4.522   2.447  11.155  0.1969  0.8291  0.5298
  921TIP3   OH224177   0.423   0.449  15.029 -0.2285 -0.2216  0.1937
  921TIP3    H124178   0.443   0.463  15.122  2.6870 -1.0345 -0.2647
  921TIP3    H224179   0.390   0.359  15.026  3.8264 -1.8055 -0.0687
  922TIP3   OH224180   3.610   3.452   1.905 -0.4429 -0.1722  0.1627
  922TIP3    H124181   3.590   3.544   1.890 -1.8271 -0.4680  0.1169
  922TIP3    H224182   3.631   3.417   1.818  0.9716  0.2937  0.3049
  923TIP3   OH224183   5.829   5.836   2.754 -0.7279  0.2101 -0.3084
  923TIP3    H124184   5.911   5.882   2.734 -0.6053  0.7617  1.4192
  923TIP3    H224185   5.765   5.878   2.697  0.4594 -1.3127 -2.8798
  924TIP3   OH224186   5.763   3.687   2.313 -0.0077  0.7767  0.7108
  924TIP3    H124187   5.706   3.665   2.239 -0.4940 -3.9224  2.2957
  924TIP3    H224188   5.851   3.689   2.276 -0.3532 -0.4464 -0.2209
  925TIP3   OH224189   6.247   6.144  13.963  0.2701  0.4568 -0.0183
  925TIP3    H124190   6.266   6.171  14.053  0.5677  3.8614 -1.0185
  925TIP3    H224191   6.193   6.215  13.928  1.1691 -0.2107 -2.8933
  926TIP3   OH224192   1.262   4.096  15.734 -0.3940  0.2562 -0.0125
  926TIP3    H124193   1.220   4.140  15.808  0.3463 -0.6821  0.9896
  926TIP3    H224194   1.255   4.158  15.662 -0.6885  1.3926  0.9833
  927TIP3   OH224195   6.419   3.734  14.343 -0.2291  0.3252 -0.4550
  927TIP3    H124196   6.405   3.808  14.285  1.4945  1.0036 -0.0618
  927TIP3    H224197   6.480   3.767  14.409  0.1449 -1.2827  0.0341
  928TIP3   OH224198   5.388   3.348   0.919 -0.5392  0.1747  0.1111
  928TIP3    H124199   5.313   3.308   0.962  1.6031 -3.7891  0.4489
  928TIP3    H224200   5.458   3.346   0.985  0.0979  3.1876 -0.3852
  929TIP3   OH224201   6.043   2.167  13.247 -0.0588 -0.0512  0.1417
  929TIP3    H124202   5.954   2.189  13.273 -0.9050 -1.6332 -1.3487
  929TIP3    H224203   6.050   2.196  13.156 -0.0506 -2.6146 -0.7113
  930TIP3   OH224204   0.722   6.575  14.006 -0.5729 -0.2385 -0.0147
  930TIP3    H124205   0.694   6.515  13.937 -0.0746  0.4427 -0.8019
  930TIP3    H224206   0.803   6.536  14.039  0.0686  0.3285 -0.9302
  931TIP3   OH224207   0.924   0.825  12.597 -0.1492  0.0193  0.3546
  931TIP3    H124208   0.877   0.898  12.558  0.1450  0.4657  0.8167
  931TIP3    H224209   1.003   0.816  12.544 -1.1774 -1.3214 -0.9782
  932TIP3   OH224210   5.580   2.192   2.563 -0.1902 -0.1431 -0.6974
  932TIP3    H124211   5.594   2.097   2.561 -1.4100 -0.3116 -2.9507
  932TIP3    H224212   5.652   2.228   2.510 -1.7835 -0.1295 -2.9089
  933TIP3   OH224213   5.981   5.961  14.775 -0.1960  0.3505 -0.2851
  933TIP3    H124214   6.031   6.017  14.834  0.2462 -0.1307 -0.2058
  933TIP3    H224215   6.044   5.930  14.711 -0.1835 -1.0585  0.4021
  934TIP3   OH224216   4.440   2.908   1.751 -0.1139 -0.7011 -1.0789
  934TIP3    H124217   4.423   2.940   1.840 -0.7835  1.2558 -1.8823
  934TIP3    H224218   4.531   2.878   1.753 -0.1138 -0.6501  0.2559
  935TIP3   OH224219   5.398   0.609  14.404 -0.5570  0.2509  0.1867
  935TIP3    H124220   5.347   0.662  14.343 -0.6293  0.8777  0.7854
  935TIP3    H224221   5.432   0.672  14.468  2.0092  0.0280 -0.8969
  936TIP3   OH224222   2.283   5.851  12.144  0.2121  0.5320 -0.3660
  936TIP3    H124223   2.233   5.905  12.084 -0.4001 -1.0758 -1.3395
  936TIP3    H224224   2.342   5.801  12.088 -1.0014 -1.6512  0.2524
  937TIP3   OH224225   3.860   2.344  15.511 -0.3437 -0.3937 -0.2553
  937TIP3    H124226   3.853   2.425  15.562 -1.6614  0.8833 -2.3807
  937TIP3    H224227   3.885   2.277  15.575 -2.0396  1.1262  2.0577
  938TIP3   OH224228   6.549   4.223   4.682  0.9369  0.2287  0.3282
  938TIP3    H124229   6.585   4.277   4.753  0.1537 -0.9740  1.6898
  938TIP3    H224230   6.626   4.193   4.633  1.6181 -0.1706  1.6129
  939TIP3   OH224231   0.350   2.250   0.186 -0.8524 -0.1683 -0.1635
  939TIP3    H124232   0.395   2.189   0.245 -2.4192 -0.5341  0.6852
  939TIP3    H224233   0.392   2.236   0.101  0.8698 -0.2335  0.6766
  940TIP3   OH224234   2.103   0.053  15.738 -0.1337  0.6126  0.0909
  940TIP3    H124235   2.126  -0.032  15.701  0.2693  1.5266 -1.8555
  940TIP3    H224236   2.142   0.117  15.677  0.3124  2.1911  1.9814
  941TIP3   OH224237   1.784   1.379   0.207 -0.4680  0.3348 -0.3253
  941TIP3    H124238   1.742   1.445   0.151 -2.1276  0.1906  0.7173
  941TIP3    H224239   1.814   1.427   0.284 -1.9474 -0.1519  0.5735
  942TIP3   OH224240   1.360   5.046   4.735  0.2109  0.0480  0.6723
  942TIP3    H124241   1.271   5.071   4.711  0.2095  0.9094  1.5369
  942TIP3    H224242   1.393   4.999   4.658 -1.0452 -0.4482  0.4196
  943TIP3   OH224243   0.108   1.982   5.755 -0.0018  0.2810 -0.1732
  943TIP3    H124244   0.109   1.915   5.823  0.4879 -0.6805 -1.1129
  943TIP3    H224245   0.036   2.040   5.779 -0.6043 -0.7393  0.5072
  944TIP3   OH224246   1.801   6.519   6.439 -0.2059 -0.2924 -0.2381
  944TIP3    H124247   1.830   6.438   6.480 -0.4389 -0.0062  0.5187
  944TIP3    H224248   1.882   6.569   6.425 -0.0403 -0.7431 -0.9128
  945TIP3   OH224249   4.857   6.031   4.898 -0.1064  0.1876 -0.2996
  945TIP3    H124250   4.905   5.974   4.958 -0.0532  0.4515 -0.0909
  945TIP3    H224251   4.774   5.986   4.883  0.6172 -0.7859 -1.4777
  946TIP3   OH224252   0.039   3.017   0.542  0.0234 -0.2013  0.3560
  946TIP3    H124253   0.066   2.927   0.522 -1.0042 -0.4668  0.1278
  946TIP3    H224254   0.082   3.071   0.477 -0.4024 -0.6752 -0.3197
  947TIP3   OH224255   3.820   4.702  15.735  0.8218  0.3081  0.2803
  947TIP3    H124256   3.906   4.743  15.751  0.8317  0.0039  1.0450
  947TIP3    H224257   3.761   4.748  15.794  0.3391  0.8856 -0.6370
  948TIP3   OH224258   5.319   3.251   2.120 -0.2285  0.2898 -0.2721
  948TIP3    H124259   5.242   3.304   2.141 -1.7094 -3.1229  3.3873
  948TIP3    H224260   5.388   3.287   2.175  0.3643  2.0781 -2.1087
  949TIP3   OH224261   0.655   0.538   1.959 -0.4028 -0.2990  0.5300
  949TIP3    H124262   0.640   0.611   2.019 -0.6054 -1.2845  1.7066
  949TIP3    H224263   0.717   0.482   2.005 -0.6698 -1.1452 -0.1318
  950TIP3   OH224264   4.293   4.319  13.407  0.6558 -0.6374 -0.4815
  950TIP3    H124265   4.254   4.404  13.428 -1.6359 -1.3539 -1.7442
  950TIP3    H224266   4.299   4.274  13.492  1.6976  0.6819  0.1579
  951TIP3   OH224267   6.222   5.404   4.485  0.1014 -0.1100 -0.0734
  951TIP3    H124268   6.213   5.473   4.551 -0.4303 -0.9689  0.7749
  951TIP3    H224269   6.316   5.393   4.473  0.2231 -0.6346  1.2978
  952TIP3   OH224270   4.932   6.111  15.359 -0.3825  0.0072 -0.3634
  952TIP3    H124271   4.927   6.155  15.444 -0.8313 -0.1079 -0.3251
  952TIP3    H224272   4.954   6.180  15.297 -0.5429  0.1832 -0.2246
  953TIP3   OH224273   2.154   2.535   4.138  0.3096 -0.4221  0.1640
  953TIP3    H124274   2.137   2.507   4.228  0.1502 -0.0165  0.2609
  953TIP3    H224275   2.071   2.519   4.092 -0.6300  2.3325  0.8290
  954TIP3   OH224276   3.075   5.300  12.198 -0.0630  0.0691  0.2435
  954TIP3    H124277   3.096   5.259  12.281 -0.6126 -1.0838 -0.1710
  954TIP3    H224278   3.159   5.311  12.154  0.0180 -1.4690 -0.0151
  955TIP3   OH224279   3.606   3.855   0.427 -0.1011 -0.1487 -0.0627
  955TIP3    H124280   3.689   3.871   0.473  0.5620  0.1420 -1.3566
  955TIP3    H224281   3.621   3.884   0.338 -1.8838  0.7086 -0.1189
  956TIP3   OH224282   5.440   1.198  15.391  0.7819  0.0363  0.3799
  956TIP3    H124283   5.498   1.168  15.462 -0.1215 -3.3143 -0.2255
  956TIP3    H224284   5.479   1.162  15.312 -0.9513 -0.5005 -0.2515
  957TIP3   OH224285   3.363   5.496   4.216 -0.5438 -0.1768  0.0234
  957TIP3    H124286   3.268   5.499   4.228 -0.4959  0.3692  0.2940
  957TIP3    H224287   3.379   5.544   4.134 -0.3615  1.1964  0.8442
  958TIP3   OH224288   5.041   5.023   4.138 -0.0329  0.0064  0.1140
  958TIP3    H124289   4.963   5.046   4.188  1.2400  1.9657  1.2330
  958TIP3    H224290   5.105   4.997   4.204  1.0158  0.6855 -0.6185
  959TIP3   OH224291   2.504   4.846   1.488  0.2880 -0.0951  0.0910
  959TIP3    H124292   2.591   4.876   1.460  0.1993  1.2372  1.1806
  959TIP3    H224293   2.478   4.908   1.556 -1.5748 -0.4035 -0.3078
  960TIP3   OH224294   5.033   1.769   4.924 -0.4538  0.4452 -0.2983
  960TIP3    H124295   5.121   1.742   4.895 -1.1988 -1.0240 -1.2640
  960TIP3    H224296   5.029   1.742   5.015  0.0123  0.2894 -0.3208
  961TIP3   OH224297   2.501   4.513   2.167 -0.4679  0.1877  0.2077
  961TIP3    H124298   2.533   4.426   2.192  1.1031  1.0907  1.4064
  961TIP3    H224299   2.569   4.549   2.111 -1.3555  0.4607 -0.7169
  962TIP3   OH224300   2.766   6.312   3.463  0.6788  0.1697 -0.0998
  962TIP3    H124301   2.853   6.339   3.491  0.2953 -0.2922  1.5584
  962TIP3    H224302   2.756   6.223   3.495  0.0865 -0.2429 -1.3975
  963TIP3   OH224303   4.191   5.987   0.620  0.2439  0.1619 -0.2857
  963TIP3    H124304   4.209   5.988   0.526  1.3142  0.7646 -0.0840
  963TIP3    H224305   4.129   6.059   0.633 -0.2879 -0.2391 -0.6028
  964TIP3   OH224306   5.519   3.892  16.501 -0.0152 -0.3626  0.4231
  964TIP3    H124307   5.443   3.950  16.513  0.4252 -0.0050  1.5309
  964TIP3    H224308   5.513   3.864  16.409 -1.3196 -0.1024  0.4173
  965TIP3   OH224309   4.674   1.856   2.100 -0.3799 -0.5508 -0.0246
  965TIP3    H124310   4.641   1.828   2.185 -0.6159  1.5413  0.6121
  965TIP3    H224311   4.762   1.890   2.117 -0.0413 -1.0272 -0.7806
  966TIP3   OH224312   5.000   5.147  12.359 -0.4028  0.5087 -0.2026
  966TIP3    H124313   4.927   5.117  12.305  1.4027 -1.4377 -1.6378
  966TIP3    H224314   4.984   5.109  12.445 -1.4237  0.6769 -0.3086
  967TIP3   OH224315   1.761   2.450  16.800  0.4762  0.4592  0.1474
  967TIP3    H124316   1.717   2.447  16.885  0.2037 -1.5455 -0.0330
  967TIP3    H224317   1.853   2.436  16.820  0.6744  1.8499  0.2690
  968TIP3   OH224318   1.180   4.728   6.000  0.8944 -0.7295 -0.1234
  968TIP3    H124319   1.126   4.690   5.931  0.2917 -0.8899  0.4315
  968TIP3    H224320   1.206   4.653   6.054 -2.8047 -0.0984  2.7492
  969TIP3   OH224321   3.600   2.966   5.852 -0.1382  0.4408  0.0103
  969TIP3    H124322   3.548   3.002   5.924  0.3064  0.3347  0.3869
  969TIP3    H224323   3.636   3.043   5.807  1.0079  0.4688  0.9610
  970TIP3   OH224324   1.423   1.525   5.922  0.6455 -0.4761 -0.4341
  970TIP3    H124325   1.360   1.472   5.872 -1.2455 -0.6670  2.0218
  970TIP3    H224326   1.392   1.615   5.911 -0.7591 -0.6731  1.6591
  971TIP3   OH224327   5.163   3.694   6.074 -0.0589  0.1943 -0.7374
  971TIP3    H124328   5.072   3.691   6.105 -0.2040  0.1325 -1.1555
  971TIP3    H224329   5.216   3.702   6.153 -0.4295  0.1834 -0.4878
  972TIP3   OH224330   6.219   0.710  13.244  0.2968  0.1507  0.5087
  972TIP3    H124331   6.259   0.721  13.331  1.6823  1.3605 -0.2456
  972TIP3    H224332   6.268   0.771  13.188  0.2930 -1.5693 -1.4055
  973TIP3   OH224333   3.993   0.630  16.553  0.5846  0.2142  0.0773
  973TIP3    H124334   3.903   0.607  16.528  1.1523 -0.4821 -1.4074
  973TIP3    H224335   3.989   0.641  16.648 -0.9771 -0.2572  0.0879
  974TIP3   OH224336   4.268   5.320   1.518 -0.0597  0.4408  0.3309
  974TIP3    H124337   4.294   5.333   1.609 -0.0996  0.1163  0.3881
  974TIP3    H224338   4.342   5.354   1.467  0.3098 -0.1298  0.4915
  975TIP3   OH224339   4.823   2.327   3.915  0.5640  0.1216 -0.1563
  975TIP3    H124340   4.749   2.298   3.862  0.9072 -0.5826 -0.2597
  975TIP3    H224341   4.847   2.251   3.967 -0.1761  1.0095  1.5101
  976TIP3   OH224342   5.310   4.991  16.553 -0.0296  0.0418 -0.5631
  976TIP3    H124343   5.363   4.915  16.530  0.1172 -0.0997  0.2300
  976TIP3    H224344   5.313   5.047  16.475 -3.2671 -2.5003 -2.6094
  977TIP3   OH224345   5.617   1.324   3.262 -0.1924 -0.0690  0.2643
  977TIP3    H124346   5.578   1.396   3.312 -1.1329  0.1289 -0.7187
  977TIP3    H224347   5.688   1.366   3.213  2.0109 -0.6344  2.8719
  978TIP3   OH224348   1.561   6.259  12.004 -0.2041 -0.3120 -0.3804
  978TIP3    H124349   1.580   6.339  11.956 -0.9242 -0.5135 -1.0139
  978TIP3    H224350   1.506   6.287  12.077 -2.4590 -0.4964 -1.9213
  979TIP3   OH224351   6.487   3.242  11.869 -1.1185  0.1051  0.5597
  979TIP3    H124352   6.488   3.152  11.902  3.9997 -0.0222  0.5590
  979TIP3    H224353   6.479   3.296  11.948 -0.1333 -0.3342  0.9736
  980TIP3   OH224354   0.850   6.065   1.534  0.2792  1.0420  0.4538
  980TIP3    H124355   0.877   6.155   1.517  1.2221  0.9117  1.2398
  980TIP3    H224356   0.762   6.059   1.496  0.6086  1.9984 -0.4853
  981TIP3   OH224357   5.377   0.934   2.938 -0.3066 -0.1876 -0.1077
  981TIP3    H124358   5.322   0.994   2.888 -2.1474 -0.2037  1.8280
  981TIP3    H224359   5.418   0.988   3.005 -0.6829 -0.7778  0.6131
  982TIP3   OH224360   5.206   2.019  15.508  0.2717 -0.2334  0.0405
  982TIP3    H124361   5.250   1.966  15.442  1.7479  0.9669  0.0466
  982TIP3    H224362   5.276   2.051  15.564 -0.9636 -1.3507  2.3238
  983TIP3   OH224363   1.634   6.120  14.064  0.6549  0.3017  0.0079
  983TIP3    H124364   1.576   6.085  13.996  0.7168  0.3155 -0.0521
  983TIP3    H224365   1.599   6.207  14.082 -0.1852 -0.2435  0.9961
  984TIP3   OH224366   4.252   2.821  11.565 -0.5420 -0.1458  0.3250
  984TIP3    H124367   4.271   2.915  11.566  1.5562 -0.5432 -0.0604
  984TIP3    H224368   4.314   2.784  11.628  0.4493 -1.5830 -1.4500
  985TIP3   OH224369   4.988   0.953   1.131 -0.4086  0.1113 -0.1664
  985TIP3    H124370   5.011   0.996   1.048 -0.0959 -0.8034 -0.5598
  985TIP3    H224371   5.021   1.012   1.198 -0.1910  0.6049 -0.7006
  986TIP3   OH224372   0.505   0.029  16.951  0.1919  0.2182  0.0835
  986TIP3    H124373   0.534   0.017  17.041 -1.2036  1.6441  0.7339
  986TIP3    H224374   0.587   0.036  16.900  0.9791 -1.5942  1.0710
  987TIP3   OH224375   2.282   4.097  13.011  0.0407 -0.2761 -0.0492
  987TIP3    H124376   2.323   4.012  13.022 -0.0660 -0.3156  0.0372
  987TIP3    H224377   2.355   4.158  12.999  0.0620 -0.7905 -2.9212
  988TIP3   OH224378   1.551   5.934  11.196  0.0487 -0.2919  0.6009
  988TIP3    H124379   1.476   5.970  11.244 -1.3442 -1.6517 -0.5193
  988TIP3    H224380   1.624   5.993  11.218 -2.0153  2.8605 -0.6683
  989TIP3   OH224381   1.509   0.937   4.517 -0.0612  0.0956 -0.1821
  989TIP3    H124382   1.500   1.021   4.472  0.4855 -0.0468 -0.5681
  989TIP3    H224383   1.603   0.920   4.517 -0.0807 -0.0062  0.8440
  990TIP3   OH224384   6.087   5.569   5.216 -0.4909  0.2661 -0.0445
  990TIP3    H124385   6.035   5.529   5.286 -0.1579  1.5158  0.9115
  990TIP3    H224386   6.023   5.619   5.165 -1.0701 -2.1228 -1.7583
  991TIP3   OH224387   3.273   5.168  10.779  0.3347 -0.3825  0.9776
  991TIP3    H124388   3.217   5.244  10.761  1.3652  0.3902  0.9841
  991TIP3    H224389   3.289   5.172  10.873 -0.1260 -0.9824  1.0871
  992TIP3   OH224390   1.282   4.738  16.151 -0.3201 -0.1874 -0.0675
  992TIP3    H124391   1.276   4.696  16.065  0.0713  1.5359 -0.9596
  992TIP3    H224392   1.200   4.787  16.160 -0.5473 -0.7092  0.7353
  993TIP3   OH224393   3.741   3.928  11.685  0.2848 -0.0994  0.2354
  993TIP3    H124394   3.770   3.838  11.700 -0.4377 -0.2166  0.9887
  993TIP3    H224395   3.779   3.952  11.601 -0.5078 -1.5229 -0.5501
  994TIP3   OH224396   5.845   5.681  11.405  0.1398 -0.4550 -0.4293
  994TIP3    H124397   5.768   5.677  11.462  0.9837  0.4692  0.8031
  994TIP3    H224398   5.861   5.590  11.381 -0.3782 -0.8368  0.6252
  995TIP3   OH224399   5.886   0.729   5.074  0.0211 -0.5736 -0.3943
  995TIP3    H124400   5.838   0.650   5.048 -1.3877  0.3052 -0.5300
  995TIP3    H224401   5.884   0.784   4.996 -1.7651  0.8982  0.6307
  996TIP3   OH224402   3.997   3.819  10.731 -0.0642 -0.2436  0.2292
  996TIP3    H124403   4.087   3.786  10.728  0.6518  1.6241  0.2422
  996TIP3    H224404   4.006   3.912  10.755 -1.7897  0.7567 -2.7267
  997TIP3   OH224405   0.813   1.471  12.191 -0.1121  0.2599 -0.3505
  997TIP3    H124406   0.844   1.456  12.101 -1.5822 -0.3469 -0.7640
  997TIP3    H224407   0.720   1.491  12.181 -0.5767 -1.0955  1.1471
  998TIP3   OH224408   3.940   5.638   4.217 -0.0762 -0.2503 -0.5830
  998TIP3    H124409   4.006   5.637   4.148  0.3199  1.4881 -0.2388
  998TIP3    H224410   3.990   5.628   4.298 -0.2351  1.0413 -0.3220
  999TIP3   OH224411   5.079   4.620  15.072  0.0187 -0.6977 -0.5444
  999TIP3    H124412   5.057   4.690  15.012 -1.0104 -0.4268  0.1343
  999TIP3    H224413   5.005   4.559  15.067  0.3269 -1.1070 -0.2045
 1000TIP3   OH224414   1.009   0.625   5.504 -0.3570  0.0447 -0.0630
 1000TIP3    H124415   0.942   0.679   5.462 -1.9783 -1.9271 -0.0404
 1000TIP3    H224416   0.974   0.607   5.591  1.7030  1.7133  1.1830
 1001TIP3   OH224417   0.087   6.254   4.818  0.3388  0.0259  0.3965
 1001TIP3    H124418   0.100   6.301   4.901  0.0662  0.8626 -0.0197
 1001TIP3    H224419   0.042   6.318   4.762 -0.5458 -0.9310 -0.0028
 1002TIP3   OH224420   1.538   4.408   5.316  0.3242  0.3313  0.0755
 1002TIP3    H124421   1.619   4.358   5.316  0.3373  0.2122 -3.7211
 1002TIP3    H224422   1.469   4.342   5.308 -0.0371  0.5793  1.0547
 1003TIP3   OH224423   6.421   4.812   1.439 -0.0745 -0.1162  0.0407
 1003TIP3    H124424   6.426   4.723   1.405 -1.2761 -0.1121 -0.1939
 1003TIP3    H224425   6.368   4.859   1.375 -2.0540 -0.0095  1.6934
 1004TIP3   OH224426   1.833   3.449   5.101 -0.2719 -0.2234  0.2000
 1004TIP3    H124427   1.789   3.525   5.139 -2.0005 -1.4300  0.6874
 1004TIP3    H224428   1.847   3.472   5.009 -2.6118 -0.0738 -0.1515
 1005TIP3   OH224429   0.807   4.219  14.387 -0.0553 -0.1407 -0.2647
 1005TIP3    H124430   0.740   4.199  14.322  0.1008 -0.6162 -0.2831
 1005TIP3    H224431   0.838   4.306  14.364 -0.1880 -0.1986 -0.6700
 1006TIP3   OH224432   0.885   5.008  14.614 -0.2816 -0.4148 -0.2543
 1006TIP3    H124433   0.866   4.950  14.687 -1.8898 -0.9251 -1.0374
 1006TIP3    H224434   0.980   5.009  14.607 -0.1747 -1.4090  1.0026
 1007TIP3   OH224435   6.050   4.264   0.441  0.2014  0.6007 -0.0436
 1007TIP3    H124436   5.990   4.289   0.370 -0.6254  0.6492  0.6618
 1007TIP3    H224437   6.029   4.324   0.513 -0.0916 -0.4830  0.7952
 1008TIP3   OH224438   2.207   5.181  16.027  0.4098  0.1974 -0.1139
 1008TIP3    H124439   2.141   5.213  16.088 -0.7705  0.8164 -1.6721
 1008TIP3    H224440   2.158   5.158  15.948  1.8596 -0.8582 -0.7316
 1009TIP3   OH224441   2.840   3.441  10.310  0.0132  0.1683 -0.4562
 1009TIP3    H124442   2.824   3.353  10.343 -0.5394  0.9198  1.3643
 1009TIP3    H224443   2.920   3.469  10.355 -1.9012  1.9982  1.9194
 1010TIP3   OH224444   1.689   0.157  12.983 -0.3706 -0.0604 -0.2684
 1010TIP3    H124445   1.761   0.108  13.022  1.2142  1.8216 -0.7617
 1010TIP3    H224446   1.678   0.233  13.040 -0.6345  0.6844 -1.2983
 1011TIP3   OH224447   0.323   4.431  11.691  0.5735  0.8815 -0.5324
 1011TIP3    H124448   0.384   4.476  11.749  0.2616 -0.0704  0.5654
 1011TIP3    H224449   0.249   4.408  11.747 -1.3179  3.0003 -2.1007
 1012TIP3   OH224450   2.706   2.250   3.088  0.4008 -0.4124  0.0860
 1012TIP3    H124451   2.721   2.333   3.043  1.5904 -0.9231 -0.4633
 1012TIP3    H224452   2.721   2.270   3.181 -1.7765  0.5707  0.2610
 1013TIP3   OH224453   3.555   6.580  11.843  0.7530 -0.4719 -0.1633
 1013TIP3    H124454   3.481   6.526  11.870  0.3036  0.0021 -0.4359
 1013TIP3    H224455   3.515   6.653  11.796  1.3201  0.3923  0.6940
 1014TIP3   OH224456   5.866   5.461  17.002  0.8906 -0.2686  0.0001
 1014TIP3    H124457   5.866   5.556  17.011 -0.3312 -0.3488  0.9975
 1014TIP3    H224458   5.959   5.438  16.994  1.1894  1.0050 -0.3185
 1015TIP3   OH224459   4.545   4.824   2.969 -0.3036  0.0804  0.1460
 1015TIP3    H124460   4.618   4.767   2.995  0.2231  1.0507  0.8844
 1015TIP3    H224461   4.467   4.770   2.980  0.2906 -0.8933 -0.3957
 1016TIP3   OH224462   3.279   4.275  15.444  0.4657  0.2814  0.0782
 1016TIP3    H124463   3.230   4.202  15.406 -0.6562  0.0520  1.8860
 1016TIP3    H224464   3.340   4.234  15.505 -0.1321  0.8446  1.0646
 1017TIP3   OH224465   3.864   6.419   4.917 -0.6360  0.6788 -0.1254
 1017TIP3    H124466   3.769   6.435   4.914 -0.7874 -0.2321 -0.3126
 1017TIP3    H224467   3.872   6.334   4.959  0.1409  1.0493  0.4969
 1018TIP3   OH224468   4.050   4.403   4.904  0.1443  0.1960 -0.8402
 1018TIP3    H124469   4.098   4.401   4.822  0.6181  0.6469 -0.5759
 1018TIP3    H224470   4.083   4.481   4.950 -0.7377  0.4400 -0.6019
 1019TIP3   OH224471   1.164   3.836   1.316 -0.2047  0.4717 -0.1165
 1019TIP3    H124472   1.173   3.786   1.235 -2.3317  0.7293 -0.5283
 1019TIP3    H224473   1.246   3.821   1.363  0.9634  0.1729 -2.2288
 1020TIP3   OH224474   6.674   0.402   5.814  0.1046  0.2831  0.7275
 1020TIP3    H124475   6.759   0.437   5.840  0.7923 -1.6550  1.1877
 1020TIP3    H224476   6.693   0.314   5.782 -1.4396  0.6339 -1.3248
 1021TIP3   OH224477   0.051   2.641  12.124  0.3455  0.5187 -0.1903
 1021TIP3    H124478   0.095   2.568  12.167 -0.1782  0.3659  0.0909
 1021TIP3    H224479   0.022   2.698  12.195  1.3654  1.3602 -0.4437
 1022TIP3   OH224480   3.974   6.611   0.723  0.3817  0.3859  0.0577
 1022TIP3    H124481   3.955   6.521   0.749 -1.3460  0.7465  0.0458
 1022TIP3    H224482   4.015   6.650   0.800 -2.4625  0.7286  1.4258
 1023TIP3   OH224483   2.014   1.474  11.647 -0.0089  0.8127 -0.3176
 1023TIP3    H124484   2.096   1.441  11.610 -0.0108 -0.4700  0.7846
 1023TIP3    H224485   1.954   1.477  11.573 -0.3704 -2.8781 -0.2796
 1024TIP3   OH224486   2.533   6.623   4.780 -0.1474  0.3183 -0.0885
 1024TIP3    H124487   2.451   6.624   4.730 -0.3476 -0.3171  0.2247
 1024TIP3    H224488   2.522   6.551   4.842  0.1312  1.0593  0.8188
 1025TIP3   OH224489   3.659   4.971   0.057 -0.3386  0.6462  0.3864
 1025TIP3    H124490   3.610   5.051   0.073 -0.3652  0.1587  2.8321
 1025TIP3    H224491   3.751   4.997   0.066 -0.2370  0.8336 -0.9544
 1026TIP3   OH224492   2.314   1.061  15.793  0.8198  0.0473 -0.7742
 1026TIP3    H124493   2.403   1.027  15.804  0.9500  0.4644 -0.5510
 1026TIP3    H224494   2.257   0.988  15.818  1.0876  0.9017  2.6291
 1027TIP3   OH224495   0.650   5.985   4.494 -0.5875 -0.1213 -0.0195
 1027TIP3    H124496   0.567   5.974   4.446 -0.8858 -1.3909  0.7691
 1027TIP3    H224497   0.718   5.970   4.428 -0.9956 -0.4068 -0.3796
 1028TIP3   OH224498   3.609   3.249   0.939  0.2130 -0.6077 -0.1354
 1028TIP3    H124499   3.561   3.274   0.860  0.7601 -2.0072 -0.9165
 1028TIP3    H224500   3.675   3.318   0.949 -0.1466 -0.1867 -0.6405
 1029TIP3   OH224501   1.774   4.009   3.279  0.0564 -0.0576 -0.7808
 1029TIP3    H124502   1.789   3.930   3.228 -1.7651 -0.3596 -0.8737
 1029TIP3    H224503   1.708   4.058   3.230 -0.6820  0.3221  0.5517
 1030TIP3   OH224504   5.540   3.429   0.015 -0.4828 -0.5708  0.1629
 1030TIP3    H124505   5.477   3.389   0.075  0.2186 -2.0761 -0.0837
 1030TIP3    H224506   5.617   3.448   0.070 -0.0449 -1.4509 -0.1428
 1031TIP3   OH224507   3.141   1.058   2.714 -0.6488  0.2252 -0.0270
 1031TIP3    H124508   3.190   0.996   2.659  0.7231  0.8890  0.4119
 1031TIP3    H224509   3.128   1.012   2.797  0.9491  0.7319  0.5327
 1032TIP3   OH224510   0.884   4.819  14.829 -0.1587  0.3357  0.1689
 1032TIP3    H124511   0.965   4.828  14.879 -1.1366 -1.3527  2.0864
 1032TIP3    H224512   0.815   4.846  14.889 -1.1471  0.6716 -1.0870
 1033TIP3   OH224513   1.723   5.522   4.136  0.1591  0.1234 -0.6132
 1033TIP3    H124514   1.814   5.552   4.139  0.8166 -1.3973 -3.8993
 1033TIP3    H224515   1.673   5.600   4.109  0.5121  0.8340  0.7299
 1034TIP3   OH224516   4.757   4.433  15.840  0.4877  0.0235 -0.1367
 1034TIP3    H124517   4.714   4.391  15.766  0.7495  0.6391 -0.6519
 1034TIP3    H224518   4.686   4.461  15.897  0.3193 -1.2160  0.2659
 1035TIP3   OH224519   2.014   6.113  17.168  0.7818  0.0094  0.1074
 1035TIP3    H124520   2.003   6.081  17.257  1.1373  0.5709  0.3546
 1035TIP3    H224521   2.108   6.123  17.157  0.7283  0.1342 -0.2650
 1036TIP3   OH224522   2.001   4.271   1.605 -0.0209 -0.0832 -0.2111
 1036TIP3    H124523   1.998   4.209   1.533 -0.9875 -1.5209  1.0364
 1036TIP3    H224524   1.912   4.306   1.610  1.2044  3.7507 -2.8482
 1037TIP3   OH224525   0.728   5.002  12.278  0.1173  0.4758 -0.1066
 1037TIP3    H124526   0.713   4.921  12.327 -1.6563  1.5127  1.1622
 1037TIP3    H224527   0.641   5.028  12.248  1.1144  0.1271 -3.4808
 1038TIP3   OH224528   3.179   2.972  13.743 -0.2256 -0.8497 -0.1832
 1038TIP3    H124529   3.214   2.899  13.692  1.4095 -0.7043  0.7126
 1038TIP3    H224530   3.252   3.001  13.798 -0.6453  1.9201 -1.0169
 1039TIP3   OH224531   2.772   3.155   2.038 -0.3513 -0.1761  0.5274
 1039TIP3    H124532   2.801   3.246   2.029  0.7152 -0.6300 -1.0138
 1039TIP3    H224533   2.767   3.123   1.948 -0.3475 -1.7499  1.0671
 1040TIP3   OH224534   4.567   3.022   5.580  0.3784  0.6270 -0.1560
 1040TIP3    H124535   4.478   3.047   5.558  0.3235 -1.3233 -2.2420
 1040TIP3    H224536   4.620   3.054   5.507  0.9812 -0.7877 -0.3528
 1041TIP3   OH224537   5.925   4.995   6.630 -0.6084 -0.4585 -0.0731
 1041TIP3    H124538   5.925   4.903   6.658 -1.3159 -0.6175 -0.5776
 1041TIP3    H224539   5.833   5.017   6.619 -0.3705 -0.2082 -1.6319
 1042TIP3   OH224540   4.484   1.557  15.405 -0.0408  0.0184  0.3165
 1042TIP3    H124541   4.474   1.462  15.410 -1.7293 -0.1709 -3.9627
 1042TIP3    H224542   4.408   1.592  15.452 -0.0309 -0.7953  0.9328
 1043TIP3   OH224543   6.453   1.088  14.451 -0.0985  0.4388 -0.2507
 1043TIP3    H124544   6.523   1.074  14.516  0.2909  0.8223 -0.5850
 1043TIP3    H224545   6.372   1.079  14.501  0.1255 -2.2532 -0.2880
 1044TIP3   OH224546   4.930   0.983  14.091 -0.3470  0.0092  0.1564
 1044TIP3    H124547   4.868   1.024  14.031 -0.5531 -0.0196  0.3477
 1044TIP3    H224548   4.904   1.014  14.178 -0.7159 -0.7876  0.3382
 1045TIP3   OH224549   0.450   5.481  16.846 -0.4705  0.3669 -0.2562
 1045TIP3    H124550   0.395   5.471  16.924 -2.0512  0.3815 -1.3386
 1045TIP3    H224551   0.515   5.547  16.870 -0.8832  0.2857  1.0840
 1046TIP3   OH224552   1.641   0.691   3.343 -0.1415  0.5343  0.1156
 1046TIP3    H124553   1.570   0.675   3.406 -0.0750  0.0717  0.0748
 1046TIP3    H224554   1.633   0.619   3.280 -0.0566  0.8617 -0.2696
 1047TIP3   OH224555   4.568   3.751  15.517 -0.6506 -0.4407  0.6452
 1047TIP3    H124556   4.568   3.762  15.422 -0.1835 -1.4715  0.5180
 1047TIP3    H224557   4.657   3.726  15.539 -0.6348  0.2799  1.4215
 1048TIP3   OH224558   3.919   3.291  11.128  0.1384  0.2108  0.0615
 1048TIP3    H124559   3.897   3.279  11.036  1.1109  1.1597 -0.3052
 1048TIP3    H224560   3.955   3.206  11.155 -1.1252 -0.3966 -0.1377
 1049TIP3   OH224561   5.928   1.831  15.570 -0.0923 -0.2734  0.1310
 1049TIP3    H124562   5.986   1.791  15.634  2.3652  2.2059 -0.4571
 1049TIP3    H224563   5.855   1.865  15.622  0.3392 -0.9790  1.2183
 1050TIP3   OH224564   2.159   3.755  13.891  0.6266 -0.7326  0.0790
 1050TIP3    H124565   2.165   3.830  13.831  2.1677  1.5477  2.9508
 1050TIP3    H224566   2.218   3.777  13.963 -2.7109 -2.4016  3.4993
 1051TIP3   OH224567   4.364   3.194  14.561  0.4489  0.7477 -0.0904
 1051TIP3    H124568   4.418   3.186  14.482 -0.2969 -1.0066 -0.4339
 1051TIP3    H224569   4.425   3.227  14.628  1.9598 -1.0970 -0.5004
 1052TIP3   OH224570   1.607   1.877  13.396 -0.4809  0.3027 -0.0292
 1052TIP3    H124571   1.595   1.923  13.312 -1.8670  1.2735  0.6851
 1052TIP3    H224572   1.616   1.947  13.460  0.1390 -0.4449  0.7016
 1053TIP3   OH224573   0.015   4.935  14.614 -0.5845 -0.2023 -0.0136
 1053TIP3    H124574   0.008   4.963  14.705  1.6978  1.5861 -0.3452
 1053TIP3    H224575   0.042   5.014  14.566  1.1608 -1.7881 -1.7598
 1054TIP3   OH224576   1.466   6.015   4.060 -0.0049 -0.0830 -0.1507
 1054TIP3    H124577   1.409   5.950   4.101 -0.4205  0.5653  0.3008
 1054TIP3    H224578   1.513   6.055   4.132 -1.3088  1.6160 -0.2087
 1055TIP3   OH224579   4.881   6.138  10.985  0.1310 -0.5964  0.4879
 1055TIP3    H124580   4.913   6.204  10.923 -0.0735  0.1466  1.1647
 1055TIP3    H224581   4.959   6.113  11.035  0.0070 -0.0926  0.9378
 1056TIP3   OH224582   1.735   4.213  13.678 -0.4137 -0.3674 -0.3958
 1056TIP3    H124583   1.705   4.295  13.637  2.6414  0.2593 -1.4740
 1056TIP3    H224584   1.751   4.237  13.769  0.6747  0.2935 -0.7560
 1057TIP3   OH224585   1.644   4.631   4.521 -0.3957 -0.0032  0.1988
 1057TIP3    H124586   1.598   4.657   4.441 -1.0325  0.2273  0.6363
 1057TIP3    H224587   1.576   4.630   4.589  0.2066  0.1362  0.8099
 1058TIP3   OH224588   5.560   1.341  12.919 -0.6019 -0.0656  0.2135
 1058TIP3    H124589   5.558   1.349  12.824 -0.4297 -0.0455  0.2120
 1058TIP3    H224590   5.606   1.258  12.935 -2.9384 -1.4036  0.2041
 1059TIP3   OH224591   6.614   3.898  13.043  0.4336 -0.0340  0.0868
 1059TIP3    H124592   6.532   3.937  13.012  0.8173  1.4750  0.8985
 1059TIP3    H224593   6.682   3.953  13.003  1.0109 -0.1819  0.8653
 1060TIP3   OH224594   4.756   5.833   2.486 -0.1619 -0.0718  0.3851
 1060TIP3    H124595   4.762   5.801   2.576 -1.0056  2.0716  1.2387
 1060TIP3    H224596   4.663   5.855   2.475  0.1355  0.6875 -0.6445
 1061TIP3   OH224597   1.514   4.833   0.112 -0.1374 -0.3129  0.6293
 1061TIP3    H124598   1.428   4.874   0.129  0.0084 -0.2129  1.1583
 1061TIP3    H224599   1.574   4.881   0.169  0.2244 -0.5624  0.4578
 1062TIP3   OH224600   4.186   3.007   2.089  0.0533  0.8986  0.0131
 1062TIP3    H124601   4.230   3.016   2.174  3.2415 -0.5399 -1.3897
 1062TIP3    H224602   4.223   3.076   2.035  0.6171 -0.2943 -1.1757
 1063TIP3   OH224603   6.326   4.400   5.352 -0.7506  0.4901 -0.2668
 1063TIP3    H124604   6.348   4.318   5.308  2.2093  1.5968 -0.9657
 1063TIP3    H224605   6.378   4.399   5.432 -0.7477  1.6646 -0.2441
 1064TIP3   OH224606   4.424   3.654   5.457 -0.4177 -0.5022  0.0831
 1064TIP3    H124607   4.475   3.649   5.538  0.3021 -2.3214 -0.4542
 1064TIP3    H224608   4.489   3.655   5.387 -1.0465  0.5428 -0.5075
 1065TIP3   OH224609   6.759   1.465  15.541  0.2255 -0.0292 -0.1492
 1065TIP3    H124610   6.703   1.495  15.470  1.1268  1.5305 -0.2142
 1065TIP3    H224611   6.712   1.489  15.621 -1.1021 -2.3695 -0.1676
 1066TIP3   OH224612   0.040   5.663  15.956  0.1472 -0.0152 -0.0467
 1066TIP3    H124613   0.001   5.594  16.010  0.7819  0.0850  0.5511
 1066TIP3    H224614   0.132   5.665  15.982  0.3514  0.3840 -0.7756
 1067TIP3   OH224615   1.853   0.193   0.671 -0.7416  0.5254  0.7960
 1067TIP3    H124616   1.797   0.148   0.608 -1.6853  0.9423  1.3185
 1067TIP3    H224617   1.792   0.226   0.738  0.2479 -0.0321  1.9981
 1068TIP3   OH224618   5.188   0.694  13.358 -0.4005 -0.1703 -0.3342
 1068TIP3    H124619   5.177   0.752  13.283  0.1968 -1.0206 -1.0833
 1068TIP3    H224620   5.280   0.703  13.382 -1.2949  2.6669  2.4381
 1069TIP3   OH224621   4.134   0.330   3.613 -0.3419 -0.2573 -0.0059
 1069TIP3    H124622   4.218   0.293   3.639 -0.2676  0.6395  1.0855
 1069TIP3    H224623   4.072   0.298   3.679 -0.6453 -0.0360 -0.1825
 1070TIP3   OH224624   5.256   3.044  16.937  0.5444  0.0576 -0.5285
 1070TIP3    H124625   5.338   3.027  16.890  0.0137  0.3749 -1.5870
 1070TIP3    H224626   5.264   3.133  16.969  1.7446 -0.8303  1.7476
 1071TIP3   OH224627   4.255   2.676   1.745  0.0329  0.3449  0.3128
 1071TIP3    H124628   4.340   2.718   1.735 -0.7310  2.0400  0.5907
 1071TIP3    H224629   4.216   2.720   1.821 -1.0926 -0.3759  0.1585
 1072TIP3   OH224630   2.385   3.935   0.398  0.0710 -0.2758 -0.2411
 1072TIP3    H124631   2.289   3.934   0.397  0.0509 -2.3078 -2.5707
 1072TIP3    H224632   2.409   4.027   0.389 -1.6311  0.4324  2.1140
 1073TIP3   OH224633   0.982   1.484  11.956 -0.4543 -0.1762  0.1384
 1073TIP3    H124634   1.030   1.561  11.926  1.3686 -1.3439 -0.0281
 1073TIP3    H224635   0.900   1.485  11.906 -0.5024  1.7120  0.2421
 1074TIP3   OH224636   4.103   6.620   4.491  0.1436  0.3259 -0.7625
 1074TIP3    H124637   4.111   6.605   4.585  0.8584  2.3745 -0.4711
 1074TIP3    H224638   4.009   6.623   4.475  0.0081 -1.1370 -0.3172
 1075TIP3   OH224639   5.711   2.021  17.127  0.3264  0.3687  0.2809
 1075TIP3    H124640   5.766   2.056  17.197 -0.7634 -0.9969  1.8416
 1075TIP3    H224641   5.629   2.070  17.134 -0.1280 -0.4234  0.5807
 1076TIP3   OH224642   5.928   3.072  12.256  0.1714  0.4574  0.2980
 1076TIP3    H124643   5.881   2.995  12.288  0.6783  0.5802  1.3591
 1076TIP3    H224644   5.860   3.131  12.224 -0.4222  0.6935  1.9382
 1077TIP3   OH224645   3.065   0.882   2.894 -0.0512  0.1105 -0.1657
 1077TIP3    H124646   3.054   0.820   2.822 -0.3353  0.2756 -0.2684
 1077TIP3    H224647   3.026   0.839   2.970  1.2640 -0.5286  0.1467
 1078TIP3   OH224648   2.127   4.263   5.934  0.3902 -0.0793 -0.3764
 1078TIP3    H124649   2.037   4.230   5.938 -0.0826  0.9278 -1.9081
 1078TIP3    H224650   2.175   4.213   5.999 -1.4079 -0.2792  0.8091
 1079TIP3   OH224651   5.584   1.141   6.469 -0.2947 -0.1074  0.0284
 1079TIP3    H124652   5.574   1.178   6.381 -0.2677 -1.1512 -0.4212
 1079TIP3    H224653   5.678   1.142   6.485 -0.3748  1.2131  0.5586
 1080TIP3   OH224654   1.372   4.045  17.122  0.4347 -0.2461 -0.0773
 1080TIP3    H124655   1.369   4.108  17.194 -1.3841  0.6666 -0.9431
 1080TIP3    H224656   1.464   4.017  17.120  1.0697  1.6639  0.9111
 1081TIP3   OH224657   6.073   6.710  10.797  0.1262  0.3219 -0.3447
 1081TIP3    H124658   6.159   6.737  10.830 -0.0945 -1.2261  1.5330
 1081TIP3    H224659   6.013   6.724  10.870 -1.0418  0.3757 -1.2998
 1082TIP3   OH224660   5.085   2.128   5.629 -0.5003  0.3286 -0.3701
 1082TIP3    H124661   5.099   2.211   5.584 -0.8801  0.5107 -0.1476
 1082TIP3    H224662   5.056   2.152   5.716  0.7520 -0.0167  0.1519
 1083TIP3   OH224663   0.059   5.668  11.170 -0.3014  0.0866  0.1948
 1083TIP3    H124664   0.099   5.604  11.110 -0.9032 -0.5782  0.4905
 1083TIP3    H224665  -0.032   5.638  11.179 -0.4910  0.7911  0.6094
 1084TIP3   OH224666   3.841   2.330   2.952  0.2655 -0.2311  0.3204
 1084TIP3    H124667   3.883   2.256   2.996  0.2039  0.9442  2.3839
 1084TIP3    H224668   3.776   2.362   3.014 -0.8374  0.5470 -1.2142
 1085TIP3   OH224669   5.276   6.565   0.541  0.1365  0.0632  0.3264
 1085TIP3    H124670   5.370   6.552   0.554  0.1945  0.6305  0.4776
 1085TIP3    H224671   5.268   6.587   0.448  0.0776 -0.6543  0.1553
 1086TIP3   OH224672   3.430   3.590   6.025  0.2838 -0.2837 -0.8886
 1086TIP3    H124673   3.413   3.532   5.951 -0.6268 -0.2609 -0.7036
 1086TIP3    H224674   3.359   3.572   6.087  1.1605 -0.4619  0.0822
 1087TIP3   OH224675   1.766   4.579  15.161  0.3700  0.5517 -0.2449
 1087TIP3    H124676   1.830   4.616  15.101  0.9785 -0.3345 -0.1534
 1087TIP3    H224677   1.681   4.597  15.120  0.6989  1.2155 -0.6516
 1088TIP3   OH224678   1.495   4.587   2.798 -0.0332 -0.0111  0.1410
 1088TIP3    H124679   1.499   4.570   2.892  0.7321 -0.5997  0.0095
 1088TIP3    H224680   1.520   4.504   2.757 -1.3919 -0.0614 -0.6034
 1089TIP3   OH224681   1.978   2.878   3.896 -0.0034 -1.0000 -0.6865
 1089TIP3    H124682   2.016   2.941   3.834 -0.0656  0.1965  0.4746
 1089TIP3    H224683   2.054   2.834   3.935  0.1152 -0.1598  0.0315
 1090TIP3   OH224684   4.437   6.119  13.738  0.2270  1.2975  0.3709
 1090TIP3    H124685   4.351   6.077  13.749  0.7951 -0.1517 -0.5592
 1090TIP3    H224686   4.486   6.094  13.816 -0.5537  3.0944  1.4777
 1091TIP3   OH224687   3.838   6.367   1.519 -0.5625  0.1689 -0.0538
 1091TIP3    H124688   3.788   6.286   1.530  1.5139 -1.0962  0.4379
 1091TIP3    H224689   3.823   6.416   1.601  0.0872 -0.8247  0.6721
 1092TIP3   OH224690   4.503   4.425  16.230  0.9215 -1.1149 -0.1591
 1092TIP3    H124691   4.415   4.409  16.198  0.0319  0.3377  1.4769
 1092TIP3    H224692   4.493   4.438  16.325  2.8880 -0.9793  0.0660
 1093TIP3   OH224693   4.728   4.948   2.525  0.3030  0.3216 -0.0422
 1093TIP3    H124694   4.717   4.993   2.441 -1.6961  0.6017  0.3376
 1093TIP3    H224695   4.694   4.860   2.509  1.4563 -0.1370  0.0256
 1094TIP3   OH224696   0.163   5.006  13.206 -0.3953 -0.3221  0.3390
 1094TIP3    H124697   0.079   5.044  13.180  0.1882  1.8265  1.4916
 1094TIP3    H224698   0.182   5.044  13.291  1.4902 -1.2256  0.3602
 1095TIP3   OH224699   1.559   6.390   5.791  0.7865  0.0718  0.4798
 1095TIP3    H124700   1.471   6.409   5.757  1.0890  2.0811  0.7317
 1095TIP3    H224701   1.543   6.341   5.872 -0.0220 -1.7623 -0.7754
 1096TIP3   OH224702   6.375   3.331  14.040  0.2106  0.0960  0.1540
 1096TIP3    H124703   6.439   3.347  14.109 -0.7350 -2.3070  1.6891
 1096TIP3    H224704   6.293   3.368  14.074  0.4609  1.8859 -1.1665
 1097TIP3   OH224705   3.790   0.584   3.086 -0.0614  0.2454  0.0099
 1097TIP3    H124706   3.854   0.640   3.130 -0.5565  0.8111  0.0080
 1097TIP3    H224707   3.705   0.625   3.103 -0.3038  0.2263 -1.1172
 1098TIP3   OH224708   4.071   6.394   0.884 -0.2323  0.5898 -0.8198
 1098TIP3    H124709   4.163   6.414   0.901  0.3689 -1.3870 -1.6116
 1098TIP3    H224710   4.039   6.357   0.966 -0.3520  1.3678 -0.5130
 1099TIP3   OH224711   3.161   4.269  12.828  0.5641 -0.2264  0.1573
 1099TIP3    H124712   3.247   4.312  12.834  0.3839  0.0446  0.8456
 1099TIP3    H224713   3.159   4.210  12.903  0.3338 -0.5726 -0.1247
 1100TIP3   OH224714   5.281   6.214   1.193 -0.9240  0.2914 -0.8453
 1100TIP3    H124715   5.214   6.260   1.142 -0.7589  0.7406 -0.6505
 1100TIP3    H224716   5.320   6.281   1.249 -0.2359  0.0484 -1.0298
 1101TIP3   OH224717   3.968   4.659  13.089 -0.0032 -0.0812  0.0410
 1101TIP3    H124718   3.911   4.583  13.092 -0.2308  0.1217  0.8325
 1101TIP3    H224719   4.057   4.624  13.098  0.0157 -0.4035 -1.2697
 1102TIP3   OH224720   5.629   6.056  17.166 -0.2003 -0.2989 -0.0658
 1102TIP3    H124721   5.607   5.969  17.199 -2.4330  0.6852  1.1535
 1102TIP3    H224722   5.722   6.050  17.143  0.5138 -2.1203  2.9307
 1103TIP3   OH224723   3.672   5.555  10.843 -1.0296 -0.3050 -0.1724
 1103TIP3    H124724   3.634   5.640  10.866  1.3229  0.1322  2.4313
 1103TIP3    H224725   3.749   5.577  10.790 -1.1733 -0.8669 -0.6168
 1104TIP3   OH224726   0.112   6.420  15.198 -0.1329 -0.1127 -0.1302
 1104TIP3    H124727   0.037   6.364  15.218  0.2270 -0.3038  0.7397
 1104TIP3    H224728   0.182   6.386  15.254 -0.1244  1.7014  1.0065
 1105TIP3   OH224729   0.481   2.501  15.819 -0.1961  0.0936  0.3450
 1105TIP3    H124730   0.410   2.464  15.871 -1.5508  0.8878 -0.9009
 1105TIP3    H224731   0.478   2.595  15.836 -0.6204  0.3542 -1.0999
 1106TIP3   OH224732   0.023   4.811  14.129 -0.0254  0.1357  0.2632
 1106TIP3    H124733   0.040   4.801  14.223  1.9480 -0.4965 -0.1378
 1106TIP3    H224734  -0.056   4.760  14.113 -0.1109 -0.1363  1.4932
 1107TIP3   OH224735   0.705   6.311  16.896 -0.2741  0.6287 -0.6618
 1107TIP3    H124736   0.756   6.390  16.881 -2.7765  2.1701 -1.3613
 1107TIP3    H224737   0.675   6.318  16.987  0.0702  0.1357 -0.5079
 1108TIP3   OH224738   3.795   1.197  10.291 -0.1944  0.6561 -0.3434
 1108TIP3    H124739   3.715   1.231  10.330 -0.2882  0.6635 -0.5446
 1108TIP3    H224740   3.864   1.257  10.321 -0.0844 -0.0024  0.7782
 1109TIP3   OH224741   1.176   0.289  16.653  0.6576 -0.8118  0.6768
 1109TIP3    H124742   1.244   0.343  16.613 -0.4375  1.4639  1.7134
 1109TIP3    H224743   1.139   0.239  16.581 -0.6755  2.5161 -1.1016
 1110TIP3   OH224744   0.515   1.750  11.959 -0.0940 -0.2895 -0.4116
 1110TIP3    H124745   0.553   1.823  11.911  0.1870 -1.1828 -1.5687
 1110TIP3    H224746   0.428   1.738  11.920 -1.8372  2.0057  2.4880
 1111TIP3   OH224747   1.200   5.841  14.795 -0.1153 -0.2212 -0.0316
 1111TIP3    H124748   1.125   5.891  14.764 -0.2639  0.1883  0.9667
 1111TIP3    H224749   1.215   5.776  14.726 -0.3711  0.7192 -0.9963
 1112TIP3   OH224750   2.270   0.708  13.695 -0.3759  0.6870 -0.0375
 1112TIP3    H124751   2.297   0.644  13.629  0.8722  0.9053  0.2489
 1112TIP3    H224752   2.228   0.778  13.644 -1.1710 -0.0483 -0.4102
 1113TIP3   OH224753   3.889   1.291   3.844  0.2921 -0.8182  0.6379
 1113TIP3    H124754   3.815   1.257   3.893 -0.7478 -0.8125 -0.8732
 1113TIP3    H224755   3.923   1.216   3.796 -0.9437 -0.1543 -1.3703
 1114TIP3   OH224756   3.583   1.458   4.114  0.2791 -0.0588 -0.3363
 1114TIP3    H124757   3.636   1.527   4.073  1.9506  0.5666  2.7479
 1114TIP3    H224758   3.647   1.391   4.140 -0.9040 -1.0345  0.1000
 1115TIP3   OH224759   1.660   5.945   1.154  0.2125 -0.5267 -0.1504
 1115TIP3    H124760   1.723   5.945   1.227  0.4807 -2.4428 -0.3674
 1115TIP3    H224761   1.591   5.885   1.182 -1.3905  1.2707 -0.0776
 1116TIP3   OH224762   0.633   1.517   4.383 -0.3292 -0.6524 -0.3477
 1116TIP3    H124763   0.722   1.506   4.351 -0.2985 -0.5646 -0.2931
 1116TIP3    H224764   0.634   1.601   4.428 -0.9871  0.3642 -2.1897
 1117TIP3   OH224765   5.305   5.764  11.002 -0.3626 -0.3082 -0.3746
 1117TIP3    H124766   5.215   5.772  11.033 -0.3732  3.3022 -1.0809
 1117TIP3    H224767   5.304   5.687  10.946 -2.8873 -0.6287  0.0307
 1118TIP3   OH224768   0.002   0.499   0.788  0.6293 -0.2947  0.2103
 1118TIP3    H124769  -0.085   0.493   0.750  0.8822  1.3418 -0.7148
 1118TIP3    H224770   0.058   0.452   0.726  0.6342  0.0345 -0.0387
 1119TIP3   OH224771   0.338   4.073  10.642  0.9416  0.8637  0.0459
 1119TIP3    H124772   0.245   4.052  10.650  1.3690 -1.6848 -1.0082
 1119TIP3    H224773   0.371   4.071  10.732  0.0583  1.3596  0.3820
 1120TIP3   OH224774   3.390   5.142  14.085 -0.1966 -0.2802  0.0285
 1120TIP3    H124775   3.368   5.207  14.152 -1.6307 -1.6897  0.9653
 1120TIP3    H224776   3.449   5.188  14.026 -1.4088  1.9788  0.4898
 1121TIP3   OH224777   3.795   4.841  15.441 -0.3357 -0.1756  0.1508
 1121TIP3    H124778   3.753   4.867  15.360 -1.0355  0.1699  0.6216
 1121TIP3    H224779   3.733   4.782  15.484 -0.2910  0.2236  0.7792
 1122TIP3   OH224780   5.694   0.995  15.307  0.5355  0.6759  0.6527
 1122TIP3    H124781   5.736   0.933  15.248 -0.3992  1.4923 -0.9205
 1122TIP3    H224782   5.671   0.943  15.384 -1.1761 -1.2085 -1.0484
 1123TIP3   OH224783   4.898   5.954  12.729 -0.1765  0.4101  0.0982
 1123TIP3    H124784   4.933   5.941  12.817 -1.2195 -1.8039  0.2214
 1123TIP3    H224785   4.975   5.951  12.672  0.4827  1.6866  0.9058
 1124TIP3   OH224786   2.575   0.508  13.685 -0.3145 -0.0376 -0.3982
 1124TIP3    H124787   2.481   0.524  13.681 -0.3645 -0.3724 -0.5656
 1124TIP3    H224788   2.597   0.470  13.600  0.1793  1.1698 -0.8205
 1125TIP3   OH224789   0.659   1.535  13.502  0.5253 -0.6595 -0.3858
 1125TIP3    H124790   0.620   1.532  13.415  0.0896 -1.3614 -0.1668
 1125TIP3    H224791   0.746   1.498  13.490 -0.0001 -1.9529 -0.2787
 1126TIP3   OH224792   4.178   2.098  10.128  0.3366 -0.6710  0.4076
 1126TIP3    H124793   4.198   2.045  10.205 -0.7454 -1.0716  0.4301
 1126TIP3    H224794   4.083   2.113  10.133  0.4732  0.4279 -0.1329
 1127TIP3   OH224795   6.535   4.057   3.834  0.3306 -0.5505 -0.0742
 1127TIP3    H124796   6.492   4.124   3.887 -0.9961 -0.3567 -1.3732
 1127TIP3    H224797   6.571   4.104   3.760  2.0662 -0.8426  0.5699
 1128TIP3   OH224798   4.346   3.914   4.606  0.4934  0.0243  0.4231
 1128TIP3    H124799   4.391   3.995   4.628  2.0277 -0.7742  0.2526
 1128TIP3    H224800   4.416   3.850   4.591 -0.6199 -0.7036 -1.8950
 1129TIP3   OH224801   1.178   2.014   3.127 -0.0833  0.6477  0.3477
 1129TIP3    H124802   1.165   2.052   3.214  0.3796  1.0192  0.2542
 1129TIP3    H224803   1.272   2.006   3.118 -0.1683 -0.3020  0.2673
 1130TIP3   OH224804   0.566   1.146   1.123 -0.5057 -0.3531 -0.3299
 1130TIP3    H124805   0.534   1.104   1.203  0.3124  1.2261  0.8616
 1130TIP3    H224806   0.661   1.134   1.127 -0.5285 -1.0832 -1.5665
 1131TIP3   OH224807   0.247   0.031  10.541  0.0339 -0.0401  0.1957
 1131TIP3    H124808   0.177  -0.016  10.586 -0.1899 -0.9846 -1.1075
 1131TIP3    H224809   0.202   0.082  10.474  0.6683 -1.4561 -1.3310
 1132TIP3   OH224810   1.694   5.681  15.872  0.3246  0.0761 -0.3721
 1132TIP3    H124811   1.722   5.677  15.780  0.7739  0.4242 -0.2546
 1132TIP3    H224812   1.693   5.590  15.901  0.1710 -0.0354 -0.7270
 1133TIP3   OH224813   3.835   6.025   4.791  0.0378  0.3782  0.6266
 1133TIP3    H124814   3.757   6.060   4.747 -0.7009 -0.4310  1.2598
 1133TIP3    H224815   3.902   6.023   4.723 -1.2709 -1.4665 -0.6738
 1134TIP3   OH224816   2.007   3.719   6.037  0.2459  0.9131  0.4641
 1134TIP3    H124817   2.021   3.659   6.110  0.2670  0.8148  0.3783
 1134TIP3    H224818   1.985   3.663   5.963  2.0779  0.8766 -0.0704
 1135TIP3   OH224819   5.846   2.586  14.840 -0.3250  0.2932 -0.0086
 1135TIP3    H124820   5.876   2.495  14.844 -0.9790  0.0052 -1.4124
 1135TIP3    H224821   5.923   2.635  14.811 -0.3272  0.0027 -0.5143
 1136TIP3   OH224822   0.993   4.125   1.542  0.1971 -0.4650 -0.2820
 1136TIP3    H124823   0.941   4.048   1.518 -0.3387  0.1951 -1.3066
 1136TIP3    H224824   1.050   4.139   1.467  1.0514 -0.5021  0.3622
 1137TIP3   OH224825   2.361   0.608   5.947  0.5202  0.0388 -0.2647
 1137TIP3    H124826   2.302   0.683   5.958  0.0119 -0.1835 -1.4045
 1137TIP3    H224827   2.441   0.646   5.912  0.4262  0.1166 -0.3974
 1138TIP3   OH224828   2.999   0.751   3.372 -0.0929  0.0492  0.0598
 1138TIP3    H124829   3.010   0.658   3.389  0.4821  0.1133  0.0368
 1138TIP3    H224830   3.075   0.775   3.320  0.2379  0.7245  0.8376
 1139TIP3   OH224831   5.005   4.894   4.882  0.4562 -0.0511 -0.1885
 1139TIP3    H124832   5.062   4.966   4.909  1.6711 -1.0042 -0.1913
 1139TIP3    H224833   5.031   4.876   4.791 -0.2826 -0.0741 -0.3992
 1140TIP3   OH224834   4.642   5.014   5.120 -0.7284  0.1581 -0.2735
 1140TIP3    H124835   4.580   5.086   5.115 -0.2167  0.5410 -1.1407
 1140TIP3    H224836   4.728   5.055   5.125 -0.5190 -0.3718  0.8647
 1141TIP3   OH224837   0.788   4.481  14.260 -0.1378 -0.1475  0.5124
 1141TIP3    H124838   0.724   4.543  14.296  1.3933  0.6140  1.9799
 1141TIP3    H224839   0.735   4.417  14.212 -1.7377  2.5919 -1.5066
 1142TIP3   OH224840   0.275   1.435  11.998  0.1670 -0.3530  0.2713
 1142TIP3    H124841   0.236   1.462  11.915 -2.3842 -1.2108  1.1536
 1142TIP3    H224842   0.211   1.459  12.064  2.4908  1.0187  2.1246
 1143TIP3   OH224843   1.977   3.920   3.441 -0.4456  0.2735  0.4485
 1143TIP3    H124844   2.030   3.999   3.433 -0.6035  0.6231  2.5029
 1143TIP3    H224845   1.896   3.940   3.395  0.7855  0.0949 -1.8571
 1144TIP3   OH224846   0.511   2.034   3.991 -0.4114 -0.1610  0.1001
 1144TIP3    H124847   0.531   2.127   3.981  0.9513 -0.3451  0.9809
 1144TIP3    H224848   0.459   2.030   4.072  0.1427 -0.2391  0.4566
 1145TIP3   OH224849   0.251   2.229   3.879 -0.0817  0.0859 -0.8014
 1145TIP3    H124850   0.256   2.150   3.826  0.5210 -0.6201  0.2817
 1145TIP3    H224851   0.312   2.290   3.839 -0.0334 -0.2461 -1.2319
 1146TIP3   OH224852   6.372   0.720  13.473 -0.0669  0.1041  0.5049
 1146TIP3    H124853   6.464   0.726  13.499 -0.2734 -0.4320  1.3628
 1146TIP3    H224854   6.323   0.720  13.555 -0.5536 -4.9537  0.3415
 1147TIP3   OH224855   1.537   3.717   2.516  0.5506  0.4253  0.0439
 1147TIP3    H124856   1.585   3.659   2.575 -0.2378 -0.1204  0.1486
 1147TIP3    H224857   1.464   3.749   2.569  0.1008  0.2947 -0.5021
 1148TIP3   OH224858   3.354   2.734   3.526 -0.7296  0.6825 -0.4772
 1148TIP3    H124859   3.380   2.652   3.569  0.3650  0.2687 -1.8984
 1148TIP3    H224860   3.400   2.802   3.574 -1.3965  0.4476  0.5160
 1149TIP3   OH224861   2.830   3.610   3.208 -0.0600  0.2124  0.4520
 1149TIP3    H124862   2.825   3.515   3.195  1.3406  0.3311 -1.1036
 1149TIP3    H224863   2.924   3.630   3.206 -0.4270  2.0088 -2.4414
 1150TIP3   OH224864   4.703   1.921  16.870  0.0941  0.0864 -0.1790
 1150TIP3    H124865   4.780   1.870  16.896  0.0733  0.5491  0.8160
 1150TIP3    H224866   4.723   2.010  16.898  0.5551  0.8311 -2.7861
 1151TIP3   OH224867   0.540   3.697   3.282 -0.3959  0.4276  0.2702
 1151TIP3    H124868   0.500   3.616   3.249  0.4651 -0.4784  1.3926
 1151TIP3    H224869   0.506   3.765   3.225  1.3352 -1.1058 -2.7352
 1152TIP3   OH224870   2.238   3.616  14.953 -0.1062  0.8886 -0.3791
 1152TIP3    H124871   2.245   3.582  15.042  1.0495  0.5344 -0.6067
 1152TIP3    H224872   2.196   3.702  14.964 -0.4831  0.6070  0.4478
 1153TIP3   OH224873   1.117   0.231  11.688 -0.1149  0.5309 -0.2908
 1153TIP3    H124874   1.055   0.167  11.652 -0.4882  0.0806  1.1146
 1153TIP3    H224875   1.072   0.315  11.680  0.2143  0.5787 -1.7812
 1154TIP3   OH224876   0.299   6.053   4.953  0.5283  0.1537  0.3654
 1154TIP3    H124877   0.381   6.102   4.948  0.6467 -0.2230 -1.7088
 1154TIP3    H224878   0.231   6.120   4.954  0.7203  0.3974 -1.6535
 1155TIP3   OH224879   0.400   5.380   1.944 -0.7622  0.0488  0.4031
 1155TIP3    H124880   0.410   5.429   2.025 -1.0236  0.1401  0.3808
 1155TIP3    H224881   0.479   5.326   1.938 -0.6970  0.1179  0.6663
 1156TIP3   OH224882   0.992   0.312  11.323 -0.3765 -0.0178  0.2099
 1156TIP3    H124883   0.952   0.259  11.255 -0.8941  2.8430 -1.7836
 1156TIP3    H224884   1.085   0.289  11.320 -0.5075 -0.4002 -1.0213
 1157TIP3   OH224885   1.385   1.280  14.504 -0.4028  0.1970 -0.2180
 1157TIP3    H124886   1.334   1.360  14.518 -0.7053 -0.0576  0.1132
 1157TIP3    H224887   1.476   1.310  14.500 -0.5314  0.5788 -0.2666
 1158TIP3   OH224888   1.081   2.653  12.475  0.4687 -1.1198  0.1632
 1158TIP3    H124889   1.084   2.592  12.548 -0.1170 -0.6241  0.6051
 1158TIP3    H224890   1.067   2.598  12.398 -0.6601 -1.4976  0.6333
 1159TIP3   OH224891   6.325   3.843   0.083  0.5028  0.1670  1.2693
 1159TIP3    H124892   6.340   3.861   0.175  1.1610 -0.1113  1.2183
 1159TIP3    H224893   6.237   3.805   0.079  0.6089 -0.1254  1.8094
 1160TIP3   OH224894   4.830   2.914  12.738  0.1020 -0.0615  0.7441
 1160TIP3    H124895   4.921   2.886  12.740  0.4856  1.0881 -0.2035
 1160TIP3    H224896   4.833   3.006  12.714 -1.2892  0.1349  1.2342
 1161TIP3   OH224897   1.519   1.483  13.151  0.0263 -0.4433 -0.2447
 1161TIP3    H124898   1.475   1.568  13.149  1.6438  0.3980 -1.4212
 1161TIP3    H224899   1.593   1.496  13.210  1.1675 -0.5539 -1.6165
 1162TIP3   OH224900   0.760   3.643   4.157  0.3102 -0.5454  0.9471
 1162TIP3    H124901   0.672   3.609   4.144  0.1864  0.8051 -2.0803
 1162TIP3    H224902   0.814   3.565   4.175 -0.9506 -1.6951 -0.1849
 1163TIP3   OH224903   0.358   5.312  13.994 -0.1700 -0.5008  0.2375
 1163TIP3    H124904   0.331   5.319  14.086 -1.3397  1.1232 -0.1999
 1163TIP3    H224905   0.428   5.376  13.985  0.6447 -1.3760  0.2189
 1164TIP3   OH224906   5.826   2.361  13.287  0.0330 -0.1827 -0.0150
 1164TIP3    H124907   5.847   2.406  13.369  1.4624 -0.6392 -0.1067
 1164TIP3    H224908   5.731   2.355  13.286 -0.0632  1.0929  0.9309
 1165TIP3   OH224909   1.320   3.645  17.040 -0.0423  0.1411  0.2917
 1165TIP3    H124910   1.328   3.681  17.128  0.3327  0.9670 -0.0734
 1165TIP3    H224911   1.238   3.595  17.042 -0.9625  1.6031  0.6225
 1166TIP3   OH224912   2.787   5.042  15.018 -1.0439 -0.1521 -0.1048
 1166TIP3    H124913   2.833   5.048  15.101 -1.4287 -0.6934  0.1574
 1166TIP3    H224914   2.712   5.101  15.027  0.5981  2.1595 -1.2187
 1167TIP3   OH224915   5.646   5.007   6.567 -0.3894 -0.1412  0.6217
 1167TIP3    H124916   5.676   5.042   6.483  0.5935 -0.5334  0.8020
 1167TIP3    H224917   5.647   4.912   6.555  0.8030 -0.2345  1.4247
 1168TIP3   OH224918   1.467   1.651  14.039 -0.1672 -0.4250 -0.0901
 1168TIP3    H124919   1.414   1.704  13.979 -0.9374 -1.3188 -0.1966
 1168TIP3    H224920   1.547   1.633  13.990 -0.4532 -0.4642 -0.5412
 1169TIP3   OH224921   2.060   4.479   0.194 -0.5775  0.2209 -0.2630
 1169TIP3    H124922   2.085   4.391   0.224 -1.5897 -0.3674 -1.1199
 1169TIP3    H224923   2.143   4.520   0.168  0.0674  0.0339  1.4703
 1170TIP3   OH224924   1.872   0.538  13.008  0.5173 -0.0538 -0.1058
 1170TIP3    H124925   1.878   0.600  12.935 -0.1218 -0.6594 -0.6839
 1170TIP3    H224926   1.883   0.452  12.966 -1.0291 -0.4875  0.3391
 1171TIP3   OH224927   0.395   2.643  12.130 -0.1043 -0.4970  0.5184
 1171TIP3    H124928   0.398   2.695  12.050 -2.7712 -0.6566  0.2510
 1171TIP3    H224929   0.317   2.589  12.120 -0.8555 -0.0547  3.4875
 1172TIP3   OH224930   1.684   1.643  11.246  0.0241 -1.1205 -0.0509
 1172TIP3    H124931   1.703   1.585  11.173  3.8330  2.7419 -2.3362
 1172TIP3    H224932   1.655   1.724  11.205 -1.7974 -0.1939  2.9324
 1173TIP3   OH224933   0.193   2.868   0.837 -0.2985 -0.2655 -0.0964
 1173TIP3    H124934   0.112   2.880   0.787 -1.1879  3.9534  2.0679
 1173TIP3    H224935   0.164   2.830   0.920  0.2557 -0.9851 -0.2341
 1174TIP3   OH224936   1.531   1.402  12.639  0.0027 -0.2614 -0.1003
 1174TIP3    H124937   1.622   1.409  12.611 -0.4037 -0.1703 -1.4323
 1174TIP3    H224938   1.527   1.320  12.688  1.2308  0.7059  1.6596
 1175TIP3   OH224939   0.851   6.263   6.397 -0.1575 -0.1944  0.2512
 1175TIP3    H124940   0.788   6.194   6.375 -0.1916 -0.4000  0.9725
 1175TIP3    H224941   0.854   6.319   6.320 -1.7817  0.2349  0.4795
 1176TIP3   OH224942   4.031   4.381  12.786 -0.3232 -0.1909 -0.2735
 1176TIP3    H124943   4.064   4.308  12.837 -0.1204 -0.6369 -1.0278
 1176TIP3    H224944   4.039   4.352  12.695  0.2465  0.9615 -0.6051
 1177TIP3   OH224945   0.667   1.747  14.361  0.2791 -0.0108 -0.0818
 1177TIP3    H124946   0.613   1.750  14.440  1.0582 -0.0924  0.4609
 1177TIP3    H224947   0.757   1.742  14.393  0.5905 -0.3394 -0.9753
 1178TIP3   OH224948   4.354   4.244   1.104  0.2584 -0.8970 -0.3310
 1178TIP3    H124949   4.277   4.200   1.069 -1.0215 -0.5792  1.9402
 1178TIP3    H224950   4.367   4.205   1.190  1.0438  0.8722  0.3852
 1179TIP3   OH224951   5.560   3.368   2.476  0.3204 -0.0216  0.0988
 1179TIP3    H124952   5.556   3.394   2.568  0.5466  1.5473 -0.3276
 1179TIP3    H224953   5.518   3.440   2.428 -0.8274 -1.3404 -0.9298
 1180TIP3   OH224954   1.000   1.208  15.574 -0.4704 -0.3609 -0.0007
 1180TIP3    H124955   0.913   1.246  15.561  0.0823  1.0520  0.4053
 1180TIP3    H224956   1.058   1.261  15.520  0.3014 -0.6727  0.5120
 1181TIP3   OH224957   4.154   5.522  14.467  0.1843 -0.5119  0.2718
 1181TIP3    H124958   4.104   5.443  14.445  0.6431 -1.3624  2.1476
 1181TIP3    H224959   4.230   5.489  14.516  1.6066  0.9162 -0.9336
 1182TIP3   OH224960   6.759   0.911   5.142 -0.0578 -1.2172  0.9927
 1182TIP3    H124961   6.693   0.881   5.079 -0.6966  0.6001  0.7953
 1182TIP3    H224962   6.710   0.953   5.212  0.9347  1.6384  0.0417
 1183TIP3   OH224963   1.686   2.433  16.189  0.1047 -0.3865 -0.4851
 1183TIP3    H124964   1.724   2.506  16.141 -1.3420 -0.2031 -1.3889
 1183TIP3    H224965   1.675   2.467  16.278  1.4615 -0.2467 -0.3662
 1184TIP3   OH224966   1.939   5.333  12.859 -0.1947  0.6007 -0.1891
 1184TIP3    H124967   1.890   5.383  12.793  1.5359  0.6170 -1.4784
 1184TIP3    H224968   1.891   5.251  12.867  0.8552 -0.3342 -3.1692
 1185TIP3   OH224969   6.550   2.263   1.948  0.0189  0.2552  0.0807
 1185TIP3    H124970   6.551   2.358   1.959  0.4534 -0.0145  2.6557
 1185TIP3    H224971   6.632   2.243   1.904  0.2302  1.0000  0.1248
 1186TIP3   OH224972   3.374   1.617   3.496 -0.2661  0.1454 -0.3462
 1186TIP3    H124973   3.340   1.643   3.582  0.3168 -0.6208  0.1194
 1186TIP3    H224974   3.347   1.688   3.438 -2.0199 -0.0860  0.1538
 1187TIP3   OH224975   4.070   5.607  11.845 -0.3911  0.6673  0.1477
 1187TIP3    H124976   4.162   5.606  11.870 -1.0250 -0.3140  2.6269
 1187TIP3    H224977   4.051   5.516  11.821 -0.2574  1.2430 -2.2160
 1188TIP3   OH224978   2.225   5.646   4.374 -0.3971 -0.5708 -0.7929
 1188TIP3    H124979   2.295   5.642   4.309  0.4448 -1.5946  0.1540
 1188TIP3    H224980   2.262   5.604   4.452 -1.6615 -0.0757  0.0972
 1189TIP3   OH224981   6.320   6.489  16.829  0.5864 -0.1733  0.4865
 1189TIP3    H124982   6.234   6.526  16.809  0.8527  0.3017  0.2018
 1189TIP3    H224983   6.324   6.487  16.925  1.1405  1.9203  0.5271
 1190TIP3   OH224984   3.714   2.850  12.593 -0.0570 -0.1198  0.2667
 1190TIP3    H124985   3.651   2.834  12.523 -0.8847 -0.7461  1.1412
 1190TIP3    H224986   3.664   2.839  12.674  1.0666 -0.2018  0.9690
 1191TIP3   OH224987   1.930   4.730  15.610 -0.1692  0.2689 -0.1908
 1191TIP3    H124988   1.997   4.797  15.598  0.0489  0.0519 -0.1899
 1191TIP3    H224989   1.910   4.734  15.704 -2.1164  2.1935 -0.6427
 1192TIP3   OH224990   3.896   3.517  13.111  0.4729  0.2575 -0.5938
 1192TIP3    H124991   3.909   3.426  13.086 -2.8190 -1.1654  2.5288
 1192TIP3    H224992   3.983   3.549  13.135  1.7117 -1.8959 -2.1118
 1193TIP3   OH224993   4.480   5.674  14.588  0.1378 -0.0519 -0.4532
 1193TIP3    H124994   4.548   5.742  14.579 -0.4776  0.7722  0.9658
 1193TIP3    H224995   4.528   5.594  14.605  1.0030 -0.4245 -4.2106
 1194TIP3   OH224996   4.743   3.118   1.963  0.2021  0.3150  0.2239
 1194TIP3    H124997   4.699   3.199   1.989 -0.5949  0.1469 -0.5781
 1194TIP3    H224998   4.684   3.048   1.992 -0.3759  0.1047 -1.4212
 1195TIP3   OH224999   1.132   5.544   4.358  0.2990 -0.5562 -0.3646
 1195TIP3    H125000   1.097   5.586   4.437 -0.6234  0.3289 -1.2332
 1195TIP3    H225001   1.227   5.550   4.368  0.2021 -1.7597  1.3711
 1196TIP3   OH225002   5.850   4.924   5.489 -0.3398  0.6577  0.3051
 1196TIP3    H125003   5.784   4.985   5.524  0.3406  2.3659 -1.3104
 1196TIP3    H225004   5.808   4.838   5.495 -2.4329  1.6135  0.0516
 1197TIP3   OH225005   2.112   2.228  13.217  0.3762 -0.0171 -0.5637
 1197TIP3    H125006   2.093   2.265  13.131  0.0864 -0.4865 -0.6992
 1197TIP3    H225007   2.207   2.238  13.227  0.5371 -0.7970 -1.3215
 1198TIP3   OH225008   2.003   0.354  14.419  0.1021 -0.3266  0.5222
 1198TIP3    H125009   2.093   0.388  14.422  0.7212 -1.7575 -0.5746
 1198TIP3    H225010   1.994   0.305  14.501  0.5846 -0.7720  0.3178
 1199TIP3   OH225011   4.870   6.681  11.866  0.1761  1.0638  0.0267
 1199TIP3    H125012   4.879   6.723  11.780 -0.3131  2.6167  0.7107
 1199TIP3    H225013   4.959   6.652  11.888  0.1194 -0.2560 -1.4439
 1200TIP3   OH225014   2.164   3.424   4.828 -0.1256  0.2718  0.0921
 1200TIP3    H125015   2.205   3.424   4.741 -0.0747 -0.6409  0.1048
 1200TIP3    H225016   2.079   3.465   4.815 -0.6737 -1.0545 -0.6794
 1201TIP3   OH225017   5.033   0.540  16.252  0.4765  0.2984 -0.1301
 1201TIP3    H125018   5.127   0.526  16.243  0.8209  1.6676  1.1432
 1201TIP3    H225019   4.999   0.454  16.277  1.5689  0.0579  0.5992
 1202TIP3   OH225020   5.333   4.121   2.415 -0.2730  0.0483 -0.3021
 1202TIP3    H125021   5.308   4.212   2.395 -0.0796  0.4469  1.2572
 1202TIP3    H225022   5.407   4.129   2.474  0.5808 -1.1458 -1.1851
 1203TIP3   OH225023   2.215   1.995  13.653 -0.3565 -0.0600 -0.8299
 1203TIP3    H125024   2.252   1.917  13.611 -0.0571  0.3783 -1.3887
 1203TIP3    H225025   2.256   2.068  13.607  0.0787  0.4314  0.3292
 1204TIP3   OH225026   4.115   5.899  14.177 -0.4883  0.0996 -0.1729
 1204TIP3    H125027   4.079   5.829  14.230  1.6454 -0.8647  0.0566
 1204TIP3    H225028   4.041   5.932  14.126 -1.9586 -0.8249  1.3542
 1205TIP3   OH225029   1.198   4.660   5.549 -0.1482 -0.2413 -0.4514
 1205TIP3    H125030   1.284   4.647   5.509 -1.2207 -2.9667 -1.9695
 1205TIP3    H225031   1.169   4.745   5.517  1.1193 -0.1880 -1.4995
 1206TIP3   OH225032   6.210   3.881   1.265  0.2124 -0.2167 -0.4835
 1206TIP3    H125033   6.216   3.875   1.170 -0.8894 -2.3390 -0.4574
 1206TIP3    H225034   6.133   3.829   1.288 -1.2487  2.6291  1.3613
 1207TIP3   OH225035   4.309   1.698  11.189 -0.1927  0.1299  0.2103
 1207TIP3    H125036   4.240   1.708  11.255 -1.7803  1.1411 -1.5376
 1207TIP3    H225037   4.366   1.630  11.224 -2.6896 -1.5345  1.2035
 1208TIP3   OH225038   4.201   4.234   5.362  0.2639  0.3307 -0.1328
 1208TIP3    H125039   4.185   4.238   5.268  0.0921  1.7293 -0.0482
 1208TIP3    H225040   4.224   4.323   5.387  2.4220 -0.4530  0.7918
 1209TIP3   OH225041   5.950   6.321  12.657 -0.4008 -0.3475  0.3514
 1209TIP3    H125042   6.012   6.253  12.684 -1.1903 -0.5883  1.5711
 1209TIP3    H225043   5.867   6.275  12.647 -0.6294  0.1819 -0.2450
 1210TIP3   OH225044   5.543   4.758  13.096  0.9124 -0.6188  0.9928
 1210TIP3    H125045   5.580   4.685  13.046 -0.8862 -0.6092 -0.3851
 1210TIP3    H225046   5.619   4.813  13.117  2.0329 -1.9096  0.4222
 1211TIP3   OH225047   6.091   4.546  17.080 -0.4893  0.1882 -0.2671
 1211TIP3    H125048   6.078   4.455  17.052 -0.0744 -0.5370  1.8076
 1211TIP3    H225049   6.023   4.560  17.146 -1.3791  1.8243 -1.4780
 1212TIP3   OH225050   3.338   1.945   4.067 -0.0989  0.0008  0.3988
 1212TIP3    H125051   3.426   1.979   4.050  0.4110 -1.1082  0.8021
 1212TIP3    H225052   3.284   1.987   4.000  0.5573  1.4344  0.7407
 1213TIP3   OH225053   1.381   1.045   0.516 -0.1161 -0.1657 -0.8191
 1213TIP3    H125054   1.419   1.129   0.539 -3.6083  1.3632 -0.3239
 1213TIP3    H225055   1.301   1.039   0.569  0.3964 -4.1120 -0.3050
 1214TIP3   OH225056   5.564   6.071   3.264 -0.6870  0.3144 -0.5221
 1214TIP3    H125057   5.562   6.046   3.356  0.7403 -2.1204 -1.0856
 1214TIP3    H225058   5.503   6.012   3.221  0.0135  0.1918 -1.3854
 1215TIP3   OH225059   2.571   0.160  11.194  0.2673 -0.1555 -0.0088
 1215TIP3    H125060   2.635   0.178  11.263  0.9386 -1.8654 -0.1531
 1215TIP3    H225061   2.499   0.116  11.240 -0.2966  0.7274 -0.0378
 1216TIP3   OH225062   3.475   5.151  12.153  0.1010 -0.1931 -0.7958
 1216TIP3    H125063   3.418   5.212  12.106 -2.5375 -2.9889 -1.3792
 1216TIP3    H225064   3.437   5.146  12.241  2.0076  1.1285  0.1382
 1217TIP3   OH225065   6.458   5.418  11.708  0.2288  0.1681 -0.2687
 1217TIP3    H125066   6.480   5.476  11.635  1.0365  0.9230  0.5534
 1217TIP3    H225067   6.542   5.400  11.751 -0.2021 -0.4537  0.3304
 1218TIP3   OH225068   6.025   0.345   0.020  0.1921  0.1644  0.0378
 1218TIP3    H125069   6.028   0.273   0.082 -0.2708  0.3343  0.2586
 1218TIP3    H225070   6.114   0.379   0.018  0.3155 -0.1494  0.2428
 1219TIP3   OH225071   1.501   5.576   5.431  0.2839 -0.2501  0.3079
 1219TIP3    H125072   1.582   5.530   5.452 -0.0625 -0.5067  1.1133
 1219TIP3    H225073   1.465   5.602   5.516 -0.4741 -0.1247 -0.0425
 1220TIP3   OH225074   1.729   0.009   6.458  0.7600  0.1928 -0.4665
 1220TIP3    H125075   1.815   0.049   6.467  1.6686 -1.8509  0.1989
 1220TIP3    H225076   1.746  -0.085   6.459 -1.6644 -0.2591  1.5951
 1221TIP3   OH225077   1.286   0.034  13.101 -0.1871 -0.1404 -0.5964
 1221TIP3    H125078   1.292   0.004  13.010  0.0422  0.9267 -0.9468
 1221TIP3    H225079   1.193   0.029  13.122 -0.1786 -0.8762 -0.7157
 1222TIP3   OH225080   6.647   5.535  14.025  0.4187 -0.1841  0.9161
 1222TIP3    H125081   6.695   5.565  13.949  1.6879 -0.6346  1.5280
 1222TIP3    H225082   6.651   5.609  14.087 -1.5899  0.6193  0.1266
 1223TIP3   OH225083   5.441   2.967  12.953  0.1062 -0.0027  0.6723
 1223TIP3    H125084   5.378   2.895  12.961 -0.3545  0.4345  1.0925
 1223TIP3    H225085   5.436   3.012  13.037  0.6020  0.3482  0.5154
 1224TIP3   OH225086   5.580   5.252   1.791  0.6653  0.3351  0.5196
 1224TIP3    H125087   5.635   5.330   1.797  0.8853  0.2753 -0.6084
 1224TIP3    H225088   5.603   5.212   1.707 -0.3889 -0.2329  0.4888
 1225TIP3   OH225089   5.384   1.162  13.935  0.1811 -0.4885 -0.4009
 1225TIP3    H125090   5.402   1.100  14.005 -1.5314 -1.2280 -0.5712
 1225TIP3    H225091   5.410   1.117  13.855  1.2201 -0.0272 -0.3255
 1226TIP3   OH225092   2.359   5.330  13.684  0.2163  0.3038  0.8346
 1226TIP3    H125093   2.369   5.346  13.590  1.3106 -3.0504  0.3432
 1226TIP3    H225094   2.265   5.338  13.699 -0.2602 -1.4714 -1.0186
 1227TIP3   OH225095   1.545   0.199   0.110 -0.1682  0.0117  0.7274
 1227TIP3    H125096   1.603   0.260   0.155  0.4843  0.4644 -0.6813
 1227TIP3    H225097   1.475   0.254   0.075  0.4738 -0.0033 -0.6282
 1228TIP3   OH225098   2.490   0.518   1.704 -0.2975 -0.0998  0.6595
 1228TIP3    H125099   2.569   0.528   1.757  0.7772 -0.1567 -0.9068
 1228TIP3    H225100   2.515   0.458   1.634 -1.5108  0.4486 -0.2677
 1229TIP3   OH225101   1.076   5.768  15.951  0.3044 -0.1147  0.1059
 1229TIP3    H125102   1.094   5.826  15.877 -0.0438 -0.4342 -0.2311
 1229TIP3    H225103   1.153   5.776  16.007 -0.0174  1.1634  0.3816
 1230TIP3   OH225104   1.553   4.389  15.943 -0.0392  0.3798  0.3879
 1230TIP3    H125105   1.648   4.383  15.956 -0.0558  0.2219  0.4358
 1230TIP3    H225106   1.544   4.429  15.856  0.0805 -0.9338 -0.2389
 1231TIP3   OH225107   3.187   2.496  16.209  0.7721 -0.4989 -0.4496
 1231TIP3    H125108   3.211   2.534  16.125 -0.9048 -0.3627 -0.8786
 1231TIP3    H225109   3.101   2.457  16.194 -0.2622  0.9139  1.6095
 1232TIP3   OH225110   0.345   4.906   0.571  0.1676  0.8487  0.1520
 1232TIP3    H125111   0.407   4.943   0.633  0.7723  1.4622 -0.8107
 1232TIP3    H225112   0.292   4.980   0.541  0.1102  0.6185 -0.3300
 1233TIP3   OH225113   0.276   4.957   2.166 -0.6839  0.3967  0.0809
 1233TIP3    H125114   0.269   4.900   2.243  3.7869  1.4609  1.4791
 1233TIP3    H225115   0.254   5.044   2.199  2.0585  1.0013  0.5107
 1234TIP3   OH225116   2.817   6.402   0.559  0.3959 -0.5500 -0.3738
 1234TIP3    H125117   2.766   6.464   0.611 -0.8115  0.0813 -2.2646
 1234TIP3    H225118   2.888   6.455   0.522  1.7593 -1.1739  1.2633
 1235TIP3   OH225119   4.367   2.772   5.298  0.2660  0.0682  0.5634
 1235TIP3    H125120   4.407   2.755   5.213  0.2918 -1.0934  0.8007
 1235TIP3    H225121   4.303   2.842   5.280 -0.1603 -0.5870 -0.5325
 1236TIP3   OH225122   3.012   5.679  11.988  0.2452  0.1564 -0.3592
 1236TIP3    H125123   3.092   5.629  12.004 -0.3783 -0.9629 -0.6689
 1236TIP3    H225124   3.040   5.770  11.989  0.8900  0.0154  3.5256
 1237TIP3   OH225125   6.094   4.162  12.559 -0.3092 -0.1584  0.1950
 1237TIP3    H125126   6.050   4.243  12.532  0.5605 -0.0828 -1.0635
 1237TIP3    H225127   6.180   4.191  12.591  0.8679 -0.7280 -2.2913
 1238TIP3   OH225128   5.779   4.674   3.341 -0.3360 -0.0880 -0.3591
 1238TIP3    H125129   5.721   4.748   3.358 -2.2055 -1.3166 -1.2630
 1238TIP3    H225130   5.758   4.611   3.410  0.4723 -0.2331 -0.2417
 1239TIP3   OH225131   1.590   2.882  16.242  0.0395  0.5308  0.1775
 1239TIP3    H125132   1.590   2.964  16.192  1.1619 -0.3722 -1.3648
 1239TIP3    H225133   1.579   2.909  16.333 -1.7885  2.2432 -0.5144
 1240TIP3   OH225134   0.796   1.095  13.441 -0.3476 -0.6530 -0.1893
 1240TIP3    H125135   0.791   1.026  13.375  1.8758 -1.5875  0.5700
 1240TIP3    H225136   0.799   1.048  13.524 -0.4557  0.4223  0.4319
 1241TIP3   OH225137   0.658   3.901  15.334 -0.1761 -0.2805 -0.0056
 1241TIP3    H125138   0.723   3.844  15.375 -0.1568  1.6753  2.8749
 1241TIP3    H225139   0.574   3.860  15.352 -0.1106  0.1797  1.4186
 1242TIP3   OH225140   2.219   0.037   5.250  0.6076  0.1346  0.4528
 1242TIP3    H125141   2.204   0.002   5.162 -1.2017  1.7857  0.0718
 1242TIP3    H225142   2.142   0.009   5.300  1.4056 -0.3969  1.3986
 1243TIP3   OH225143   2.783   1.113   6.026  0.5250 -0.3286 -0.0215
 1243TIP3    H125144   2.867   1.150   6.051  0.4580 -0.3632  0.2553
 1243TIP3    H225145   2.787   1.021   6.055  0.7230 -0.5645 -0.7815
 1244TIP3   OH225146   3.706   2.439  15.833  0.4682 -0.4322 -0.2625
 1244TIP3    H125147   3.656   2.381  15.775  0.5204  1.7893 -2.6399
 1244TIP3    H225148   3.640   2.482  15.887  0.3378 -1.8396  0.7150
 1245TIP3   OH225149   3.340   3.928  12.074  0.0370  0.2682 -0.5174
 1245TIP3    H125150   3.246   3.908  12.070  0.0381  0.2795 -0.5895
 1245TIP3    H225151   3.345   4.022  12.058  0.1446  0.0939 -1.5627
 1246TIP3   OH225152   1.145   6.067   2.710  0.2113  0.1923  0.3629
 1246TIP3    H125153   1.095   6.144   2.737  1.7200  0.9352  1.0685
 1246TIP3    H225154   1.223   6.102   2.667 -0.2086 -0.9665 -1.3725
 1247TIP3   OH225155   3.549   2.721   6.796 -0.0613 -0.1378 -0.0462
 1247TIP3    H125156   3.569   2.814   6.799  1.3876 -0.2839 -3.1275
 1247TIP3    H225157   3.635   2.678   6.794 -0.7040 -1.5770  1.6451
 1248TIP3   OH225158   4.505   2.442  14.429  0.0262 -0.5401  0.1318
 1248TIP3    H125159   4.455   2.488  14.497  0.2986  1.3278 -0.8956
 1248TIP3    H225160   4.465   2.471  14.346  2.6130  0.8001 -0.6972
 1249TIP3   OH225161   4.864   2.696   5.462  0.0555  0.1827  0.0562
 1249TIP3    H125162   4.848   2.645   5.383  1.6479  0.2995 -0.3637
 1249TIP3    H225163   4.883   2.631   5.529 -1.7055  0.0645  0.4547
 1250TIP3   OH225164   3.724   2.343  11.769  0.3712 -0.1499  0.4852
 1250TIP3    H125165   3.648   2.397  11.787 -0.6031 -1.1681 -0.4942
 1250TIP3    H225166   3.739   2.294  11.850 -1.5705 -1.7914 -0.0871
 1251TIP3   OH225167   4.729   5.154  14.016 -0.0072  0.1622 -1.0766
 1251TIP3    H125168   4.783   5.093  13.966  3.9636  2.8860 -0.3085
 1251TIP3    H225169   4.692   5.213  13.950 -0.0290 -0.1981 -1.3849
 1252TIP3   OH225170   5.469   0.710  11.626  0.9092  0.4089  0.2180
 1252TIP3    H125171   5.550   0.742  11.585  0.8075 -0.4780 -0.6805
 1252TIP3    H225172   5.404   0.716  11.556  1.0399 -2.4375 -0.1933
 1253TIP3   OH225173   1.233   1.272   1.731  0.3186  0.0915 -0.1837
 1253TIP3    H125174   1.141   1.267   1.708  0.4372 -0.9827 -0.4294
 1253TIP3    H225175   1.273   1.196   1.690  1.1904  0.1707  0.5003
 1254TIP3   OH225176   0.083   1.189  12.061  0.4920 -0.2850  0.9728
 1254TIP3    H125177   0.061   1.279  12.084 -1.6214 -0.0433 -1.7860
 1254TIP3    H225178   0.130   1.196  11.979 -0.3907 -1.7287  0.3214
 1255TIP3   OH225179   5.500   4.896  10.674  0.2788 -0.0279  0.8491
 1255TIP3    H125180   5.413   4.863  10.697  0.5752 -0.5236  1.2574
 1255TIP3    H225181   5.552   4.885  10.754  0.7586  0.1289  0.5602
 1256TIP3   OH225182   1.823   3.253   6.138  0.0429 -0.0945 -0.0069
 1256TIP3    H125183   1.785   3.340   6.154 -1.3524 -1.0003  1.7454
 1256TIP3    H225184   1.754   3.206   6.091  1.4686  0.2765 -2.5706
 1257TIP3   OH225185   1.105   3.259   2.119  0.5629  0.2058 -0.3441
 1257TIP3    H125186   1.078   3.248   2.028 -1.2018  1.5998 -0.0045
 1257TIP3    H225187   1.137   3.173   2.145  1.3788 -0.1154 -2.3780
 1258TIP3   OH225188   5.325   3.640   3.910  0.0482 -0.1728  0.3226
 1258TIP3    H125189   5.369   3.722   3.890 -0.4088 -0.0224 -0.0733
 1258TIP3    H225190   5.394   3.574   3.901  0.3217  0.1207  0.2470
 1259TIP3   OH225191   6.277   2.423   3.014 -0.2330  0.4414  0.2099
 1259TIP3    H125192   6.212   2.395   2.949 -0.1940  1.0663 -0.1049
 1259TIP3    H225193   6.289   2.516   2.997 -0.7996  0.7893  1.6205
 1260TIP3   OH225194   1.482   2.945   1.949 -0.1419  0.2546  0.0015
 1260TIP3    H125195   1.552   2.884   1.928  1.8847  2.6606 -0.5183
 1260TIP3    H225196   1.468   2.934   2.043  2.2787  1.0255  0.4948
 1261TIP3   OH225197   2.805   2.390   0.677 -0.8884  0.3479  0.5237
 1261TIP3    H125198   2.754   2.318   0.639  0.0246  0.2779 -0.5867
 1261TIP3    H225199   2.845   2.353   0.756 -0.9124 -0.1850  0.2855
 1262TIP3   OH225200   4.326   3.987   3.262 -0.3177  0.5601  0.0623
 1262TIP3    H125201   4.267   3.924   3.219  1.6247 -0.3519 -1.3496
 1262TIP3    H225202   4.324   4.064   3.205  1.0909 -0.0814 -0.8688
 1263TIP3   OH225203   5.160   4.242   3.774  0.0756  0.5957  0.7349
 1263TIP3    H125204   5.156   4.286   3.689 -0.0413  0.5174  0.6989
 1263TIP3    H225205   5.069   4.241   3.803  0.1551  0.8824  0.9943
 1264TIP3   OH225206   5.253   0.570  16.886  0.4236  0.2084 -0.3701
 1264TIP3    H125207   5.320   0.508  16.856 -0.0779  0.3215 -1.7819
 1264TIP3    H225208   5.249   0.636  16.817 -2.0212 -0.4882 -0.9284
 1265TIP3   OH225209   3.678   4.656  15.097  0.2928 -0.6994 -0.5600
 1265TIP3    H125210   3.667   4.655  15.002  1.3615 -0.3490 -0.6936
 1265TIP3    H225211   3.697   4.565  15.120  1.0442 -0.6124 -0.8140
 1266TIP3   OH225212   3.740   5.115  13.344  0.2661  0.1839 -0.3795
 1266TIP3    H125213   3.652   5.149  13.330  0.0705  0.2534  0.9150
 1266TIP3    H225214   3.773   5.094  13.257  0.1347  3.0281 -1.1510
 1267TIP3   OH225215   6.484   6.041   4.181  0.1895  0.7706 -0.7505
 1267TIP3    H125216   6.575   6.011   4.180 -0.1308 -0.2494 -2.1882
 1267TIP3    H225217   6.475   6.092   4.100 -1.4808 -2.3320 -2.6215
 1268TIP3   OH225218   6.437   4.918   3.295  0.0270 -0.2614 -0.7095
 1268TIP3    H125219   6.473   4.989   3.347 -0.3573  0.3159 -1.2174
 1268TIP3    H225220   6.425   4.845   3.356  1.9658 -0.4401 -0.5220
 1269TIP3   OH225221   3.889   6.324   0.068  0.0376  0.6187 -0.5685
 1269TIP3    H125222   3.881   6.258  -0.001 -3.7017 -0.9371  1.1882
 1269TIP3    H225223   3.824   6.390   0.045 -1.4511 -0.0541  1.5233
 1270TIP3   OH225224   4.347   2.403  11.399 -0.2056 -0.1756  0.6224
 1270TIP3    H125225   4.399   2.322  11.406  1.5031  0.9833  1.8999
 1270TIP3    H225226   4.288   2.400  11.474 -0.3894 -0.4004  0.4695
 1271TIP3   OH225227   4.575   4.186   0.182  0.3947  0.1190 -0.4558
 1271TIP3    H125228   4.624   4.113   0.220 -0.1920  0.4233  0.9121
 1271TIP3    H225229   4.521   4.146   0.114  1.7907 -0.3681 -1.2790
 1272TIP3   OH225230   2.893   6.641  13.067  0.0727 -0.5341  0.1389
 1272TIP3    H125231   2.830   6.569  13.060  0.1743 -0.6674  0.6031
 1272TIP3    H225232   2.935   6.628  13.151  0.4047 -0.1809  0.0278
 1273TIP3   OH225233   5.252   5.961   0.320  0.1012 -0.3440  0.3780
 1273TIP3    H125234   5.160   5.939   0.328 -0.3967  1.3031 -0.6248
 1273TIP3    H225235   5.269   5.964   0.226  1.2416 -0.8763  0.5519
 1274TIP3   OH225236   0.051   0.098  11.410  0.2119  0.1216 -0.3239
 1274TIP3    H125237   0.100   0.056  11.339  0.7489 -1.6361  1.0362
 1274TIP3    H225238  -0.039   0.071  11.395  0.5707 -1.7399  0.6244
 1275TIP3   OH225239   1.462   5.323  13.390  0.1821 -0.7105 -0.3639
 1275TIP3    H125240   1.537   5.338  13.333 -0.6327  0.0103 -1.2515
 1275TIP3    H225241   1.387   5.356  13.341 -0.5185  0.0340  1.1712
 1276TIP3   OH225242   0.920   6.515   4.489 -0.0193  0.4274 -0.1812
 1276TIP3    H125243   0.918   6.470   4.404  0.7026 -0.6405  0.3605
 1276TIP3    H225244   0.833   6.500   4.526 -0.7755  1.9985 -1.2906
 1277TIP3   OH225245   5.505   0.574  14.070  0.1359  0.1961 -0.5245
 1277TIP3    H125246   5.576   0.606  14.126 -0.8570 -0.4066  1.1128
 1277TIP3    H225247   5.425   0.605  14.112 -0.6330 -0.2541 -1.6255
 1278TIP3   OH225248   0.364   5.961  13.164  0.0137  0.8583  0.0686
 1278TIP3    H125249   0.448   5.918  13.151 -0.5428 -0.9065  2.1278
 1278TIP3    H225250   0.380   6.027  13.231 -0.5247 -0.4095  1.4690
 1279TIP3   OH225251   4.137   0.893  15.480  0.3513  0.1593  0.5293
 1279TIP3    H125252   4.168   0.814  15.524  0.7528 -0.3259 -0.5917
 1279TIP3    H225253   4.161   0.964  15.538  1.7049 -0.3902  0.6538
 1280TIP3   OH225254   6.475   6.104   1.221 -0.2326 -0.0192  0.5907
 1280TIP3    H125255   6.397   6.058   1.188  0.5706  0.1216 -1.5509
 1280TIP3    H225256   6.478   6.185   1.171  1.7257 -0.3738  0.0891
 1281TIP3   OH225257   1.530   1.628   1.909 -0.0662  0.2360  0.0278
 1281TIP3    H125258   1.623   1.644   1.893 -0.4693  0.2546 -2.6005
 1281TIP3    H225259   1.511   1.674   1.990  1.5528  2.8273 -1.0056
 1282TIP3   OH225260   5.314   2.309   0.381 -0.1529  0.3565 -0.4208
 1282TIP3    H125261   5.394   2.258   0.366 -0.6115 -1.1355  1.8722
 1282TIP3    H225262   5.278   2.323   0.294  1.1139 -1.4424 -1.2762
 1283TIP3   OH225263   5.125   0.290  13.025 -0.3066  0.6244 -0.1048
 1283TIP3    H125264   5.213   0.312  12.995 -0.3071  0.2118 -0.4227
 1283TIP3    H225265   5.133   0.202  13.061 -0.3443  1.0548  0.9764
 1284TIP3   OH225266   4.248   2.567  11.888 -0.0598 -0.3128 -0.6069
 1284TIP3    H125267   4.223   2.650  11.847  0.0614  1.3263  2.5042
 1284TIP3    H225268   4.342   2.576  11.904  0.0361 -1.2425 -0.6142
 1285TIP3   OH225269   3.985   2.161   2.687  0.0772 -0.3436  0.1170
 1285TIP3    H125270   3.948   2.248   2.701 -0.5393 -0.9116  2.1792
 1285TIP3    H225271   3.986   2.121   2.774  2.3557 -1.6190 -0.4540
 1286TIP3   OH225272   2.149   2.113  14.101 -0.5111 -0.4024 -0.7298
 1286TIP3    H125273   2.079   2.050  14.121  1.7451 -1.8231  3.3034
 1286TIP3    H225274   2.197   2.072  14.030 -1.3302 -1.4099 -0.7267
 1287TIP3   OH225275   4.238   1.676  14.925 -0.1434 -0.6310  0.4701
 1287TIP3    H125276   4.175   1.690  14.854 -0.4389  1.1833  1.0415
 1287TIP3    H225277   4.238   1.582  14.939 -0.6829 -0.9358 -1.3851
 1288TIP3   OH225278   3.639   5.272   5.870 -0.2494 -0.1956 -0.7512
 1288TIP3    H125279   3.684   5.354   5.854  0.1988 -0.3516 -0.2965
 1288TIP3    H225280   3.635   5.265   5.966 -1.4309 -0.0728 -0.7765
 1289TIP3   OH225281   2.970   4.209   3.460  0.5358 -0.1076 -0.5411
 1289TIP3    H125282   2.906   4.279   3.449  1.0981  0.4648 -0.1745
 1289TIP3    H225283   2.999   4.188   3.371  1.1258  0.8341 -0.5756
 1290TIP3   OH225284   5.790   4.878  13.185  0.3086 -0.9760 -0.2981
 1290TIP3    H125285   5.836   4.960  13.204 -0.6820 -0.3141 -0.7242
 1290TIP3    H225286   5.812   4.821  13.259 -2.2745  1.0661  2.1647
 1291TIP3   OH225287   6.043   6.136   4.059  0.0893 -0.2512  0.4083
 1291TIP3    H125288   5.973   6.187   4.101  0.6242  0.9373 -0.1246
 1291TIP3    H225289   6.103   6.115   4.131 -0.8863 -1.4547  0.9101
 1292TIP3   OH225290   2.933   2.697   3.043  0.5144  0.1293  0.1005
 1292TIP3    H125291   2.841   2.673   3.035 -0.1582  2.5962 -0.0721
 1292TIP3    H225292   2.956   2.732   2.958  0.8172  2.0741  0.9556
 1293TIP3   OH225293   5.630   4.601  16.953 -0.1323  0.2087  0.2341
 1293TIP3    H125294   5.686   4.533  16.914 -1.5416 -0.3757 -0.7965
 1293TIP3    H225295   5.636   4.675  16.893 -1.5427 -0.3537 -0.6452
 1294TIP3   OH225296   4.423   2.371  15.950  0.1569  0.9983  0.6065
 1294TIP3    H125297   4.468   2.399  15.870 -0.0321 -1.4598 -0.4142
 1294TIP3    H225298   4.494   2.351  16.012  0.4258 -0.2807 -0.0920
 1295TIP3   OH225299   3.587   0.454  14.015  0.2113 -0.2729 -0.0958
 1295TIP3    H125300   3.609   0.541  14.048 -0.7664 -0.3216  0.7030
 1295TIP3    H225301   3.602   0.460  13.921 -1.1133  1.1558 -0.2369
 1296TIP3   OH225302   4.300   3.256  13.277  0.6254 -0.5695 -0.3342
 1296TIP3    H125303   4.277   3.334  13.328 -1.4851 -0.7185 -1.0013
 1296TIP3    H225304   4.324   3.290  13.191  0.1065 -0.6182 -0.5004
 1297TIP3   OH225305   1.624   4.838  16.054 -0.0838 -0.4668  0.3841
 1297TIP3    H125306   1.530   4.822  16.062 -0.0468 -0.6467  0.4618
 1297TIP3    H225307   1.665   4.775  16.113  0.0262  0.5607  1.4168
 1298TIP3   OH225308   2.055   3.298  11.662 -0.2260  0.8086 -0.4322
 1298TIP3    H125309   2.015   3.385  11.671  0.7378  1.4160 -1.8127
 1298TIP3    H225310   2.148   3.313  11.676  0.0810  0.1782 -1.6885
 1299TIP3   OH225311   4.914   3.966   5.131  0.0108  0.3252  0.2463
 1299TIP3    H125312   4.871   3.993   5.212  0.9413  0.9262  0.5433
 1299TIP3    H225313   4.898   3.872   5.126 -0.5752  0.3880  0.8093
 1300TIP3   OH225314   5.182   4.868  14.984 -0.4296  0.3639  0.3610
 1300TIP3    H125315   5.260   4.818  14.958  0.6866  1.8724  0.6871
 1300TIP3    H225316   5.189   4.875  15.079 -1.9821 -1.0932  0.6001
 1301TIP3   OH225317   0.717   6.323  15.163  0.6057  0.2421 -0.6787
 1301TIP3    H125318   0.784   6.364  15.109  2.5590 -0.4981  1.1276
 1301TIP3    H225319   0.739   6.349  15.253 -1.1274 -0.5787  0.0148
 1302TIP3   OH225320   5.989   3.649   3.676  0.2345 -0.1675  0.3238
 1302TIP3    H125321   5.971   3.582   3.742  1.0799 -0.1189  0.6165
 1302TIP3    H225322   6.067   3.694   3.709  0.0544  0.5289 -0.1990
 1303TIP3   OH225323   2.665   0.669   3.407 -0.0391  0.0650 -0.1427
 1303TIP3    H125324   2.664   0.731   3.480 -2.5720 -1.1709  0.9279
 1303TIP3    H225325   2.603   0.706   3.344 -0.0941 -0.3811 -0.3517
 1304TIP3   OH225326   0.385   3.623  13.673  0.0245 -0.0197 -0.1499
 1304TIP3    H125327   0.472   3.621  13.714 -1.0176  0.3093  2.1481
 1304TIP3    H225328   0.343   3.700  13.711 -0.8565  0.5039 -2.1569
 1305TIP3   OH225329   1.433   4.294   0.320  0.2468  0.1712 -1.0547
 1305TIP3    H125330   1.415   4.329   0.407 -2.6314 -0.6305 -1.2648
 1305TIP3    H225331   1.517   4.250   0.328  1.6614  2.9989  0.4360
 1306TIP3   OH225332   1.206   0.120  12.640 -0.4880 -0.1631 -0.0409
 1306TIP3    H125333   1.116   0.101  12.613 -0.4803 -0.3415  0.0577
 1306TIP3    H225334   1.224   0.055  12.708 -0.3695  0.0294  0.1097
 1307TIP3   OH225335   2.300   1.868   4.333  0.0243 -0.6975  0.1254
 1307TIP3    H125336   2.378   1.813   4.321  0.8340  0.4369  0.1052
 1307TIP3    H225337   2.230   1.806   4.352  0.5574 -1.8767 -1.6148
 1308TIP3   OH225338   4.376   5.236  16.308 -0.5024  0.4052 -0.1424
 1308TIP3    H125339   4.407   5.321  16.280 -1.7952  0.4733 -1.4271
 1308TIP3    H225340   4.373   5.241  16.404  0.5645  1.3809 -0.1664
 1309TIP3   OH225341   2.790   0.452  17.073  0.2370 -0.0185 -0.0639
 1309TIP3    H125342   2.717   0.513  17.064  0.7722  0.4449 -1.3653
 1309TIP3    H225343   2.749   0.366  17.071 -0.4500  0.2709  1.0162
 1310TIP3   OH225344   3.937   2.345  11.569 -0.2807  0.0209 -0.3354
 1310TIP3    H125345   3.881   2.356  11.646  1.2670  0.2950  0.7551
 1310TIP3    H225346   4.025   2.365  11.599  0.3469  0.1867 -2.1972
 1311TIP3   OH225347   2.571   1.675  14.417  0.5569  0.9238 -0.6711
 1311TIP3    H125348   2.596   1.601  14.472 -1.8439  1.3917  1.1635
 1311TIP3    H225349   2.580   1.643  14.328  1.7240 -0.8343  0.0526
 1312TIP3   OH225350   0.151   0.109  12.414  0.2247 -1.0265  0.1646
 1312TIP3    H125351   0.220   0.091  12.349  1.2254  0.3647  0.8134
 1312TIP3    H225352   0.176   0.057  12.490  0.0926 -1.1790  0.1040
 1313TIP3   OH225353   2.112   1.009  12.092 -0.2696 -0.9741  0.1540
 1313TIP3    H125354   2.165   1.075  12.047  1.8850 -2.3806  0.5558
 1313TIP3    H225355   2.123   1.029  12.185 -1.5998 -0.4171  0.1944
 1314TIP3   OH225356   6.637   1.423  15.013  0.2500  0.6712 -0.2440
 1314TIP3    H125357   6.657   1.476  14.936 -0.5722  0.8944 -0.3060
 1314TIP3    H225358   6.583   1.351  14.980 -0.4894  1.0226  0.1924
 1315TIP3   OH225359   1.889   4.116  11.482 -1.0625 -0.0129  0.2493
 1315TIP3    H125360   1.984   4.119  11.474 -0.8691 -0.1227  2.2379
 1315TIP3    H225361   1.872   4.131  11.575 -2.8781 -1.9875  0.2891
 1316TIP3   OH225362   1.592   4.578   6.415 -0.0817 -0.1498  0.5235
 1316TIP3    H125363   1.580   4.484   6.432 -0.6048 -0.0282  0.8307
 1316TIP3    H225364   1.686   4.587   6.398  0.6506 -0.1639  4.0917
 1317TIP3   OH225365   1.527   1.877  15.420  0.1375  0.6514 -0.3974
 1317TIP3    H125366   1.592   1.864  15.490  1.0043  1.5841 -1.0065
 1317TIP3    H225367   1.454   1.921  15.464 -0.1567 -0.5498  0.3299
 1318TIP3   OH225368   6.775   2.353  15.369  0.3832 -0.0082 -0.4815
 1318TIP3    H125369   6.731   2.433  15.397  0.2169  0.1674 -1.2292
 1318TIP3    H225370   6.745   2.286  15.430 -0.3009  0.2797 -0.4990
 1319TIP3   OH225371   2.650   0.832   3.635 -0.4646 -0.4093 -0.1062
 1319TIP3    H125372   2.633   0.801   3.723  1.5221 -0.0050  0.4545
 1319TIP3    H225373   2.576   0.889   3.614 -0.2038  0.6938  1.8920
 1320TIP3   OH225374   4.473   2.573   1.563 -0.6696 -0.4930 -0.0939
 1320TIP3    H125375   4.531   2.510   1.606 -2.2956 -0.9180  1.5651
 1320TIP3    H225376   4.395   2.523   1.541 -2.0925  0.9385  1.4817
 1321TIP3   OH225377   0.425   3.153   6.075  0.2430  0.2603  0.1524
 1321TIP3    H125378   0.473   3.173   5.995  0.0288  1.5876  0.3384
 1321TIP3    H225379   0.453   3.220   6.137 -0.3492 -0.1455  0.8722
 1322TIP3   OH225380   0.331   6.578  15.616 -0.4897 -0.3257 -0.6101
 1322TIP3    H125381   0.307   6.521  15.543 -0.3895  0.5436 -1.3403
 1322TIP3    H225382   0.353   6.662  15.574 -0.5833  0.2272  0.4308
 1323TIP3   OH225383   4.098   4.368  11.191 -0.0079  0.1130 -0.1895
 1323TIP3    H125384   4.066   4.394  11.104  0.6947  0.7968 -0.2485
 1323TIP3    H225385   4.034   4.405  11.252  0.2540  0.8372 -0.3476
 1324TIP3   OH225386   5.876   2.644  11.419 -0.1540  0.5843 -0.3626
 1324TIP3    H125387   5.958   2.637  11.468  0.7351  0.9048 -1.7850
 1324TIP3    H225388   5.857   2.738  11.418 -0.6681  0.4925  0.1436
 1325TIP3   OH225389   5.559   1.199   5.265  0.0235  0.0095 -0.2121
 1325TIP3    H125390   5.485   1.216   5.323  1.2563  0.6328  1.2430
 1325TIP3    H225391   5.625   1.160   5.322  1.3146  0.7575 -1.1599
 1326TIP3   OH225392   3.053   1.467  16.938  0.4383  0.0124 -0.1056
 1326TIP3    H125393   3.123   1.482  16.874 -1.4894  3.2161 -1.6153
 1326TIP3    H225394   3.050   1.547  16.990 -1.3864 -0.5129  0.6405
 1327TIP3   OH225395   4.560   6.298   1.090  0.3409  0.1758 -0.8319
 1327TIP3    H125396   4.616   6.344   1.028  1.6027  0.5497  0.5567
 1327TIP3    H225397   4.480   6.280   1.041  0.7363  1.7590 -2.1176
 1328TIP3   OH225398   5.695   1.384  10.548 -0.3168  0.3705 -0.8086
 1328TIP3    H125399   5.761   1.367  10.481  0.1892 -0.3636 -0.1331
 1328TIP3    H225400   5.629   1.317  10.535 -0.5950  0.6871 -1.0463
 1329TIP3   OH225401   2.260   6.670   0.983  0.1903  0.0780  0.0823
 1329TIP3    H125402   2.289   6.593   1.032 -1.3917 -0.4181  0.2720
 1329TIP3    H225403   2.187   6.638   0.929  1.0854  0.9006 -1.6615
 1330TIP3   OH225404   5.940   1.782   2.613 -0.3313 -0.4766  0.1816
 1330TIP3    H125405   5.875   1.845   2.585 -0.7025 -0.6534  0.6484
 1330TIP3    H225406   6.009   1.788   2.547 -0.4584  0.2647  0.1124
 1331TIP3   OH225407   1.844   5.856  13.021 -0.4877 -0.1146 -0.5511
 1331TIP3    H125408   1.868   5.930  13.076  2.2604 -0.9898 -0.4874
 1331TIP3    H225409   1.803   5.793  13.081 -0.0764  0.0957 -0.0527
 1332TIP3   OH225410   2.007   2.610  13.668  0.1311  0.4611  0.5267
 1332TIP3    H125411   1.929   2.648  13.629 -0.1610 -1.0164 -0.3528
 1332TIP3    H225412   1.980   2.522  13.695  1.2671  0.2366  0.9643
 1333TIP3   OH225413   3.801   0.004   1.512 -0.3039  0.3647 -0.5352
 1333TIP3    H125414   3.742   0.073   1.480  0.2355  0.8279 -0.5442
 1333TIP3    H225415   3.784   0.000   1.606 -0.0383  0.8072 -0.4652
 1334TIP3   OH225416   4.692   3.954   0.297  0.2185 -0.2293  0.6621
 1334TIP3    H125417   4.702   3.976   0.390  0.8965 -2.1321  1.0574
 1334TIP3    H225418   4.781   3.934   0.268  0.0233  0.4769 -0.4340
 1335TIP3   OH225419   0.806   4.626   5.517 -0.7352  0.0775  0.5209
 1335TIP3    H125420   0.789   4.639   5.423  0.5149  2.2663  0.5540
 1335TIP3    H225421   0.895   4.660   5.530 -0.0479 -2.2234  2.1106
 1336TIP3   OH225422   5.131   3.719  17.190  0.0306 -0.1814 -0.0988
 1336TIP3    H125423   5.077   3.644  17.215 -0.7754  0.5872  0.4598
 1336TIP3    H225424   5.221   3.686  17.195 -0.3146 -1.0746  0.2849
 1337TIP3   OH225425   2.632   1.219   1.958 -0.1196  0.6608  0.0884
 1337TIP3    H125426   2.601   1.142   1.911  0.7129 -1.0017  2.1916
 1337TIP3    H225427   2.552   1.270   1.976 -0.6571  0.3793 -1.3985
 1338TIP3   OH225428   0.526   0.616   3.037 -0.0084 -0.1628  0.1685
 1338TIP3    H125429   0.543   0.523   3.051 -0.9683 -0.5767 -1.2900
 1338TIP3    H225430   0.438   0.630   3.070 -0.7901 -0.3171 -1.7567
 1339TIP3   OH225431   4.829   3.286   4.585 -0.0723 -0.4341 -0.0420
 1339TIP3    H125432   4.757   3.284   4.522  0.4493 -1.7290 -0.6076
 1339TIP3    H225433   4.848   3.194   4.603  1.0413 -0.0968  0.5593
 1340TIP3   OH225434   4.250   4.310   2.439  0.1515 -0.1139 -0.2453
 1340TIP3    H125435   4.293   4.224   2.436 -1.7115 -1.0896  0.0636
 1340TIP3    H225436   4.210   4.313   2.526  1.3864  1.6642  0.2663
 1341TIP3   OH225437   6.225   1.945   2.164 -0.0539  0.3321 -0.3990
 1341TIP3    H125438   6.316   1.960   2.189 -0.2819  1.5761 -0.2865
 1341TIP3    H225439   6.211   2.004   2.090 -0.4926 -0.5473 -1.0226
 1342TIP3   OH225440   2.097   5.331   2.848  1.2386  0.1449 -0.0915
 1342TIP3    H125441   2.175   5.341   2.902  1.6770  0.6611 -0.8251
 1342TIP3    H225442   2.081   5.418   2.812  0.3469  0.0324  0.0241
 1343TIP3   OH225443   0.837   4.970   3.757 -0.2175  0.7445 -0.0036
 1343TIP3    H125444   0.927   4.953   3.783 -0.5530 -1.4533 -0.1508
 1343TIP3    H225445   0.786   4.965   3.838 -0.1695  2.3284  0.1312
 1344TIP3   OH225446   2.662   2.045  11.217  0.7031 -0.2607 -0.8655
 1344TIP3    H125447   2.572   2.022  11.194  0.1603 -0.6323  1.5588
 1344TIP3    H225448   2.715   1.996  11.154 -0.7577  0.2701 -2.5821
 1345TIP3   OH225449   0.272   1.699  12.726 -0.2845 -0.2749 -0.3518
 1345TIP3    H125450   0.284   1.789  12.756 -0.9245 -0.7204  1.2808
 1345TIP3    H225451   0.246   1.708  12.634  2.1040  1.0895 -0.9525
 1346TIP3   OH225452   6.322   3.997  14.495  0.1194 -0.3087  0.0292
 1346TIP3    H125453   6.403   4.006  14.444 -0.5777  0.3252 -0.9952
 1346TIP3    H225454   6.265   3.942  14.441  0.2957 -1.7679  1.2965
 1347TIP3   OH225455   0.881   5.075  13.986 -0.1973 -0.1660  0.1273
 1347TIP3    H125456   0.864   5.000  14.042 -0.2017  0.2785  0.7280
 1347TIP3    H225457   0.972   5.099  14.004 -0.0699 -0.2784 -0.3608
 1348TIP3   OH225458   0.526   5.969   3.484 -1.1077  0.0706 -0.2118
 1348TIP3    H125459   0.589   5.897   3.483 -0.8233  0.3124  0.1112
 1348TIP3    H225460   0.444   5.930   3.514 -1.4897 -0.5528 -2.0018
 1349TIP3   OH225461   0.352   5.197   1.599  0.0352 -0.2172 -0.3370
 1349TIP3    H125462   0.336   5.154   1.684 -1.7051  0.6491 -0.1861
 1349TIP3    H225463   0.333   5.289   1.616 -0.3349 -0.0398 -1.6669
 1350TIP3   OH225464   1.001   5.450   3.556  0.1116 -0.3118 -0.5065
 1350TIP3    H125465   1.084   5.421   3.520  0.1392 -0.6478 -0.1732
 1350TIP3    H225466   1.018   5.538   3.590  0.2782 -0.3040 -0.6122
 1351TIP3   OH225467   5.136   4.823   5.698  0.0715  0.2528 -0.0316
 1351TIP3    H125468   5.083   4.831   5.777  1.0732 -0.4781  0.7269
 1351TIP3    H225469   5.184   4.741   5.708 -0.1832 -0.1232 -1.6450
 1352TIP3   OH225470   4.226   0.704  15.666  0.1279  0.0766 -0.2790
 1352TIP3    H125471   4.294   0.637  15.672 -0.7251 -0.6994  1.4782
 1352TIP3    H225472   4.151   0.658  15.628 -0.7749 -0.2896  1.8312
 1353TIP3   OH225473   1.731   3.702   5.235  0.1526 -0.4516 -0.1098
 1353TIP3    H125474   1.782   3.651   5.298 -0.3918  0.3635  1.0002
 1353TIP3    H225475   1.752   3.793   5.256  0.8858 -0.1968 -1.8864
 1354TIP3   OH225476   0.054   0.523  17.056  0.0242 -0.0043  0.2181
 1354TIP3    H125477   0.099   0.441  17.035 -0.8105 -0.6098  0.7714
 1354TIP3    H225478   0.036   0.563  16.971  0.5596 -0.3301 -0.0507
 1355TIP3   OH225479   1.205   0.983  13.614  0.1786  0.1542  0.2267
 1355TIP3    H125480   1.147   1.020  13.681 -0.3600 -0.8411  0.3237
 1355TIP3    H225481   1.241   0.904  13.655  0.4063 -0.0655 -0.3907
 1356TIP3   OH225482   0.921   5.203   1.137  0.1584  0.0986  0.4754
 1356TIP3    H125483   0.836   5.210   1.180 -0.1317  3.4933 -0.4974
 1356TIP3    H225484   0.908   5.138   1.068 -0.8000 -1.5589  2.1815
 1357TIP3   OH225485   3.348   6.563  15.440 -0.2226  0.1770 -0.3031
 1357TIP3    H125486   3.379   6.572  15.530 -1.2078  1.8989 -0.0972
 1357TIP3    H225487   3.412   6.612  15.387 -1.1162  1.5186 -0.1835
 1358TIP3   OH225488   6.301   2.274   0.284  0.1019  0.2170 -0.6847
 1358TIP3    H125489   6.393   2.272   0.257  0.3145  0.6247 -0.0024
 1358TIP3    H225490   6.258   2.330   0.220  0.3378  0.0584 -0.9809
 1359TIP3   OH225491   2.771   0.167  16.646  0.3427  0.0052  0.4016
 1359TIP3    H125492   2.814   0.148  16.729  0.5490 -2.9658 -0.3169
 1359TIP3    H225493   2.695   0.220  16.670  0.3268 -0.9007  2.5000
 1360TIP3   OH225494   1.830   6.686  13.670  0.0878 -0.9596 -0.0782
 1360TIP3    H125495   1.919   6.710  13.698  0.3215  1.4708 -2.6808
 1360TIP3    H225496   1.844   6.631  13.593 -0.6409 -1.8048  0.3968
 1361TIP3   OH225497   5.325   1.182   0.328  0.6031  0.4089  0.4555
 1361TIP3    H125498   5.395   1.223   0.279  0.5066 -1.0481 -0.9567
 1361TIP3    H225499   5.328   1.090   0.302 -1.4820  0.2225  0.7584
 1362TIP3   OH225500   0.744   1.245  12.703 -0.7154 -0.6561  0.7836
 1362TIP3    H125501   0.776   1.164  12.661 -2.4749 -1.1980  0.4528
 1362TIP3    H225502   0.760   1.231  12.796  2.5173  0.2376  0.4388
 1363TIP3   OH225503   2.897   0.603   0.668 -0.3676 -0.0938 -1.0648
 1363TIP3    H125504   2.959   0.652   0.722 -0.7765 -0.6520 -0.0672
 1363TIP3    H225505   2.815   0.652   0.675 -1.2776 -1.8581  1.4373
 1364TIP3   OH225506   6.741   1.183   2.880  0.2140 -0.0818 -0.7318
 1364TIP3    H125507   6.707   1.173   2.790  0.3820 -1.3977 -0.6555
 1364TIP3    H225508   6.825   1.138   2.879 -0.8482 -2.1856  0.7034
 1365TIP3   OH225509   5.124   4.043  16.147  0.0157  0.2823 -0.4393
 1365TIP3    H125510   5.070   4.020  16.072 -0.7853 -0.8129  0.4680
 1365TIP3    H225511   5.063   4.078  16.211  0.2927 -1.4023  0.7808
 1366TIP3   OH225512   0.899   3.536   0.226 -0.2422 -0.2245 -0.0395
 1366TIP3    H125513   0.879   3.502   0.314  1.9494  0.7019  0.8479
 1366TIP3    H225514   0.819   3.580   0.199 -0.4380  0.8605  2.1804
 1367TIP3   OH225515   1.161   2.015  14.414 -0.0266  0.2509  1.1929
 1367TIP3    H125516   1.118   1.965  14.483 -0.0307 -0.2461  0.8283
 1367TIP3    H225517   1.108   2.095  14.406 -0.6737 -0.1930  0.9993
 1368TIP3   OH225518   1.990   2.111  16.781  0.8809 -0.0336 -0.1464
 1368TIP3    H125519   1.928   2.049  16.742  0.3244  0.5733 -0.2440
 1368TIP3    H225520   2.074   2.064  16.781  0.0944 -1.4753  1.4952
 1369TIP3   OH225521   1.530   1.409  14.840  0.4486 -0.3664  0.5697
 1369TIP3    H125522   1.610   1.433  14.887 -0.7174  0.9405  1.9487
 1369TIP3    H225523   1.488   1.343  14.896  0.2498 -0.5579  0.1932
 1370TIP3   OH225524   0.722   6.612  14.997  0.2480  0.2812 -0.5325
 1370TIP3    H125525   0.701   6.538  14.940 -0.3300 -0.1992  0.2998
 1370TIP3    H225526   0.658   6.679  14.974 -1.3784 -0.7048  1.0805
 1371TIP3   OH225527   4.756   3.947  16.236 -0.4506  0.5389  0.1067
 1371TIP3    H125528   4.660   3.949  16.233 -0.5073 -0.8006  0.6654
 1371TIP3    H225529   4.777   3.889  16.309  0.7934  0.8348  0.0027
 1372TIP3   OH225530   3.504   1.849  15.555  0.5954  0.0132 -0.3992
 1372TIP3    H125531   3.429   1.793  15.539  0.4752  0.2111 -0.5337
 1372TIP3    H225532   3.466   1.930  15.590  0.7021  0.3331 -1.0310
 1373TIP3   OH225533   3.791   0.158   5.355  0.0779 -0.0541  0.2831
 1373TIP3    H125534   3.797   0.248   5.323  2.2623 -0.6771 -1.2031
 1373TIP3    H225535   3.743   0.111   5.287  0.2547 -0.3238  0.3416
 1374TIP3   OH225536   2.550   5.665   1.005 -0.1280 -0.2993  0.1927
 1374TIP3    H125537   2.599   5.598   0.958  0.1408 -1.2842  1.8417
 1374TIP3    H225538   2.526   5.624   1.088 -1.4750  1.0618  0.4997
 1375TIP3   OH225539   6.437   2.772   2.308  0.0666 -0.2224 -0.0118
 1375TIP3    H125540   6.522   2.747   2.271 -0.5567  0.9551 -2.3167
 1375TIP3    H225541   6.446   2.865   2.327 -0.9566  0.1155 -1.0741
 1376TIP3   OH225542   2.509   3.297   3.317  0.3828 -0.4399  0.1431
 1376TIP3    H125543   2.433   3.356   3.314 -0.0154 -0.9625 -0.0715
 1376TIP3    H225544   2.501   3.243   3.239  0.2734 -1.3656  0.7888
 1377TIP3   OH225545   4.957   3.003  11.876  0.1836 -0.1083  0.1365
 1377TIP3    H125546   4.996   2.917  11.865  0.5651  0.1039 -0.1631
 1377TIP3    H225547   4.962   3.043  11.789 -0.5219 -0.0052  0.1374
 1378TIP3   OH225548   3.534   6.686  12.344 -0.3918 -0.4144 -0.0757
 1378TIP3    H125549   3.617   6.639  12.329 -0.1385  0.2756 -0.8714
 1378TIP3    H225550   3.517   6.675  12.437 -0.2730 -2.0024 -0.2209
 1379TIP3   OH225551   2.806   4.426  13.362 -0.5332 -0.6551 -0.0031
 1379TIP3    H125552   2.714   4.412  13.385 -0.9176  1.4996 -0.1877
 1379TIP3    H225553   2.809   4.417  13.267 -0.3612 -1.7147  0.0974
 1380TIP3   OH225554   4.237   1.730   0.647 -0.3485 -0.3745 -0.4977
 1380TIP3    H125555   4.286   1.716   0.728 -0.6035 -1.5428 -0.5438
 1380TIP3    H225556   4.180   1.654   0.640 -2.6117  1.2248 -0.1458
 1381TIP3   OH225557   4.085   2.201   1.811 -0.4365  0.2388  0.5169
 1381TIP3    H125558   4.027   2.238   1.878 -0.5604  0.9534  0.0279
 1381TIP3    H225559   4.140   2.138   1.858 -1.1135  0.0975  1.1198
 1382TIP3   OH225560   2.263   4.800   5.945 -0.0155  0.1946 -0.2355
 1382TIP3    H125561   2.236   4.722   5.993 -0.3585  0.2966 -0.2641
 1382TIP3    H225562   2.294   4.768   5.861 -1.8012  0.2583 -0.9211
 1383TIP3   OH225563   6.343   3.184  14.688  0.3601  0.3995 -0.1135
 1383TIP3    H125564   6.347   3.108  14.745 -2.1135 -0.9434 -1.6612
 1383TIP3    H225565   6.266   3.232  14.716  1.5310  2.0333  0.4150
 1384TIP3   OH225566   2.975   3.328   1.308  0.0436 -0.0111 -0.3995
 1384TIP3    H125567   3.041   3.367   1.251 -1.1859 -1.8888 -3.2306
 1384TIP3    H225568   3.002   3.237   1.318 -0.7568 -0.1609  0.5231
 1385TIP3   OH225569   4.287   6.369   4.628  0.0294  0.1315 -0.0400
 1385TIP3    H125570   4.359   6.351   4.689 -1.1035  1.3566  1.7274
 1385TIP3    H225571   4.219   6.306   4.653  0.5738 -1.2297 -1.9078
 1386TIP3   OH225572   1.683   3.890  12.456  0.2502 -0.0986 -0.2658
 1386TIP3    H125573   1.740   3.853  12.388  0.5527 -1.3840  0.6780
 1386TIP3    H225574   1.625   3.949  12.408  1.9370  0.7503 -1.3514
 1387TIP3   OH225575   4.332   6.469  10.990 -0.2550  0.1564 -0.0159
 1387TIP3    H125576   4.330   6.515  10.906 -0.2017 -0.6433 -0.4615
 1387TIP3    H225577   4.240   6.445  11.006 -0.2878  0.4430  0.2361
 1388TIP3   OH225578   2.034   3.208   5.226  0.0271  0.2834 -0.1840
 1388TIP3    H125579   2.108   3.151   5.204 -1.0194 -1.3661  0.5036
 1388TIP3    H225580   2.046   3.285   5.171  0.8587 -1.0778 -1.9492
 1389TIP3   OH225581   1.087   2.782  14.126 -0.1361  0.1309 -0.0453
 1389TIP3    H125582   1.149   2.830  14.181 -0.9935 -0.6682  1.6374
 1389TIP3    H225583   1.138   2.709  14.091  0.2073  0.2012  0.3092
 1390TIP3   OH225584   0.177   2.988  16.327  0.1315 -0.6723  0.6224
 1390TIP3    H125585   0.251   3.030  16.370  1.4319  1.4091 -3.3365
 1390TIP3    H225586   0.102   3.004  16.384  1.3680  3.6284  1.1725
 1391TIP3   OH225587   4.568   1.824   3.031  0.0208  0.2194 -0.1164
 1391TIP3    H125588   4.566   1.842   2.937 -0.0321 -0.7290 -0.3051
 1391TIP3    H225589   4.656   1.848   3.059  1.0118 -2.2442 -0.9845
 1392TIP3   OH225590   0.879   0.193  12.340 -0.2602  0.3316 -0.4225
 1392TIP3    H125591   0.853   0.107  12.374  0.5531  0.3344  0.2315
 1392TIP3    H225592   0.801   0.226  12.296 -0.5847 -0.7425 -0.6718
 1393TIP3   OH225593   0.300   5.595   0.602 -0.1881 -0.3167 -0.0598
 1393TIP3    H125594   0.332   5.646   0.676 -0.6246  1.1297 -0.8513
 1393TIP3    H225595   0.207   5.615   0.598 -0.3520 -1.1291 -0.4314
 1394TIP3   OH225596   6.054   5.286  14.493  0.1255  0.2244  0.5397
 1394TIP3    H125597   6.004   5.303  14.573 -0.1317  1.0165  0.2177
 1394TIP3    H225598   6.031   5.196  14.469  0.8472 -0.3153  1.8062
 1395TIP3   OH225599   1.673   1.118  12.102 -0.1133 -0.1427  0.5683
 1395TIP3    H125600   1.651   1.198  12.053  0.5597  0.6768  1.5868
 1395TIP3    H225601   1.702   1.149  12.187 -1.5962 -1.5943  1.6248
 1396TIP3   OH225602   2.245   1.926  12.221 -0.6640  0.0013  0.2138
 1396TIP3    H125603   2.205   2.012  12.231 -0.8550 -0.3095  2.4464
 1396TIP3    H225604   2.340   1.943  12.224 -0.7013  0.0273  2.0813
 1397TIP3   OH225605   6.570   5.579  11.514  0.4897  0.1574 -0.0726
 1397TIP3    H125606   6.634   5.639  11.552 -0.5566  0.2434  1.5803
 1397TIP3    H225607   6.530   5.629  11.443  1.2676  0.5792 -0.2228
 1398TIP3   OH225608   4.869   1.859  14.639  0.5911 -0.4771 -0.4663
 1398TIP3    H125609   4.839   1.930  14.696  1.4896  0.6637 -1.3970
 1398TIP3    H225610   4.908   1.795  14.699 -0.4564 -0.3110  0.4059
 1399TIP3   OH225611   2.620   4.165   4.293 -0.2301  0.8690 -0.2254
 1399TIP3    H125612   2.658   4.239   4.341  0.4226 -0.1331  0.8332
 1399TIP3    H225613   2.532   4.156   4.330 -0.1933  0.9179 -0.1243
 1400TIP3   OH225614   0.207   0.375  13.886  0.0385 -0.2836  0.2790
 1400TIP3    H125615   0.112   0.368  13.899 -0.1789  1.9366 -0.0309
 1400TIP3    H225616   0.218   0.443  13.820  1.7784 -1.9009 -1.1557
 1401TIP3   OH225617   2.747   1.679   2.423  0.0915  0.3942 -0.0664
 1401TIP3    H125618   2.795   1.600   2.449  1.4577  0.5884 -1.9143
 1401TIP3    H225619   2.670   1.646   2.377 -0.2563  0.1273  0.6905
 1402TIP3   OH225620   0.800   5.059  11.951 -0.3883 -0.4011  0.0516
 1402TIP3    H125621   0.824   4.977  11.994  0.3162 -0.6210 -0.7563
 1402TIP3    H225622   0.709   5.074  11.978 -0.5903 -1.5610  0.0278
 1403TIP3   OH225623   2.342   2.713   0.744 -0.3912  0.1602 -0.2075
 1403TIP3    H125624   2.425   2.670   0.727 -0.7244 -1.7066  2.4028
 1403TIP3    H225625   2.305   2.731   0.658  1.3304 -1.7741 -1.3820
 1404TIP3   OH225626   0.045   4.692   3.549  0.0281  0.0473 -0.3147
 1404TIP3    H125627   0.035   4.602   3.581 -0.8076  0.6658  1.2107
 1404TIP3    H225628   0.139   4.708   3.553  0.0821 -0.4217  0.3303
 1405TIP3   OH225629   4.472   0.540   4.982 -0.1457  0.0093  0.5223
 1405TIP3    H125630   4.513   0.465   4.940 -1.7902 -0.1054 -0.9508
 1405TIP3    H225631   4.399   0.503   5.032  0.5638  0.3672  1.8331
 1406TIP3   OH225632   1.624   5.081   2.089  0.3119  0.1141  0.2477
 1406TIP3    H125633   1.594   4.991   2.080  0.7867 -0.0192 -0.0244
 1406TIP3    H225634   1.543   5.132   2.100 -0.0326 -0.2261 -0.6124
 1407TIP3   OH225635   1.344   5.862   4.251  0.2937 -0.8936  0.1704
 1407TIP3    H125636   1.284   5.923   4.294  1.7157  1.3186 -0.8513
 1407TIP3    H225637   1.351   5.788   4.312 -1.4424 -0.0060  1.4836
 1408TIP3   OH225638   2.109   4.157   3.441 -0.3302  0.0470  0.1058
 1408TIP3    H125639   2.092   4.204   3.523  1.7799 -0.2409  0.7415
 1408TIP3    H225640   2.204   4.163   3.429 -0.3103 -2.0795 -1.0129
 1409TIP3   OH225641   4.272   2.845  15.666 -0.0219 -0.3325 -0.3514
 1409TIP3    H125642   4.261   2.888  15.581 -2.6677  1.0578  0.6147
 1409TIP3    H225643   4.223   2.900  15.727  1.8342 -1.3083  2.0834
 1410TIP3   OH225644   2.588   1.423   5.094  0.4992 -0.2881 -0.3420
 1410TIP3    H125645   2.680   1.400   5.086  0.5588  0.3309 -1.5649
 1410TIP3    H225646   2.547   1.391   5.013 -0.3010 -0.3027  0.0589
 1411TIP3   OH225647   5.700   6.405   4.354  0.1580  0.0622  0.3691
 1411TIP3    H125648   5.718   6.481   4.409 -0.2715 -0.6584  1.5266
 1411TIP3    H225649   5.748   6.333   4.395 -0.4007 -0.5477 -0.0174
 1412TIP3   OH225650   0.619   6.070  13.864  0.0805  0.2892 -0.0851
 1412TIP3    H125651   0.713   6.049  13.866 -0.5874 -3.4963 -2.7414
 1412TIP3    H225652   0.614   6.149  13.811  1.6359 -0.5602 -1.5558
 1413TIP3   OH225653   4.520   2.940   2.043  0.0877  0.7206  0.1645
 1413TIP3    H125654   4.516   2.844   2.047 -0.6034  0.7184 -0.4915
 1413TIP3    H225655   4.537   2.967   2.133  0.8178 -0.0455  0.2634
 1414TIP3   OH225656   3.803   1.484  12.542  0.2394 -0.1000  0.7022
 1414TIP3    H125657   3.711   1.471  12.564 -0.2022  2.3920  0.5492
 1414TIP3    H225658   3.830   1.402  12.501 -1.7271 -1.0922  1.3101
 1415TIP3   OH225659   1.168   3.932  11.024 -0.3144 -0.0431  0.0248
 1415TIP3    H125660   1.169   4.002  10.960 -0.5262  1.0242  1.1700
 1415TIP3    H225661   1.131   3.972  11.103  1.4230 -0.9002  1.3014
 1416TIP3   OH225662   0.528   5.209  17.072 -0.4205 -0.2947 -0.1313
 1416TIP3    H125663   0.493   5.148  17.008  0.5513 -1.1093  0.0957
 1416TIP3    H225664   0.535   5.292  17.024 -0.8326 -0.5973 -0.7222
 1417TIP3   OH225665   2.687   0.398   6.051 -0.5074 -0.1895  1.0232
 1417TIP3    H125666   2.609   0.355   6.085 -1.8755  0.6244 -1.0019
 1417TIP3    H225667   2.667   0.491   6.054 -0.3730 -0.0563 -1.2299
 1418TIP3   OH225668   2.629   4.755   5.863  0.5686 -0.3428 -0.7855
 1418TIP3    H125669   2.649   4.688   5.929  1.9273  0.3449 -0.4856
 1418TIP3    H225670   2.620   4.836   5.912 -1.7518 -0.3883 -1.0767
 1419TIP3   OH225671   3.498   6.604   2.756  0.0664  0.0687 -0.3512
 1419TIP3    H125672   3.578   6.555   2.737 -0.0372 -0.3374  0.2793
 1419TIP3    H225673   3.525   6.671   2.819  0.4485  1.5417 -2.0308
 1420TIP3   OH225674   3.077   4.500   6.200 -0.6017 -0.6671 -0.3038
 1420TIP3    H125675   3.048   4.408   6.196 -0.0680 -0.8103 -0.9992
 1420TIP3    H225676   3.026   4.538   6.272 -1.5520 -1.2535 -0.6506
 1421TIP3   OH225677   1.068   3.910  11.850  0.0587  0.4891 -0.5976
 1421TIP3    H125678   1.029   3.825  11.872  0.4521  0.6526  0.7756
 1421TIP3    H225679   1.155   3.888  11.818 -0.4709  0.2577 -1.9182
 1422TIP3   OH225680   1.202   5.778   0.927  0.1195 -0.0285  0.4373
 1422TIP3    H125681   1.296   5.790   0.912 -0.2114  1.0405 -0.8539
 1422TIP3    H225682   1.197   5.741   1.015  1.7718 -0.5284  0.3457
 1423TIP3   OH225683   1.739   3.982   4.064 -0.0470  0.6351  0.0232
 1423TIP3    H125684   1.657   3.999   4.111 -0.2731  1.2384 -0.5803
 1423TIP3    H225685   1.758   4.064   4.019  0.3905  0.1944 -0.6012
 1424TIP3   OH225686   0.057   3.438  15.432 -0.1083 -0.6753 -0.6747
 1424TIP3    H125687  -0.025   3.477  15.461 -2.2561 -2.7779 -3.6245
 1424TIP3    H225688   0.064   3.463  15.339  2.3880 -0.9159 -0.6019
 1425TIP3   OH225689   4.235   4.284   6.162 -0.1808 -0.4312  0.0059
 1425TIP3    H125690   4.294   4.338   6.111 -0.9851 -0.6778 -1.2128
 1425TIP3    H225691   4.156   4.276   6.108 -1.6641  0.5957  1.9404
 1426TIP3   OH225692   3.781   2.483   4.679  0.2764  0.3746  0.1133
 1426TIP3    H125693   3.807   2.461   4.590 -0.2640  1.6188 -0.3500
 1426TIP3    H225694   3.860   2.465   4.731  0.8482  0.4340 -0.7216
 1427TIP3   OH225695   6.487   5.179   2.370  0.9998 -0.3128 -0.2599
 1427TIP3    H125696   6.528   5.169   2.456  0.5332  0.4223  0.0486
 1427TIP3    H225697   6.409   5.123   2.373  0.3433  0.6203  0.2091
 1428TIP3   OH225698   2.520   1.572   1.047 -0.3384 -0.7515 -0.1152
 1428TIP3    H125699   2.471   1.513   1.104  0.1784  0.7542  1.9555
 1428TIP3    H225700   2.467   1.579   0.968 -1.8764 -1.6125  0.8274
 1429TIP3   OH225701   3.168   3.048  16.049 -0.2765  0.6317  0.3917
 1429TIP3    H125702   3.109   3.122  16.040 -0.7264  0.5127  2.0912
 1429TIP3    H225703   3.224   3.051  15.971 -2.4061  0.8289 -1.1657
 1430TIP3   OH225704   5.256   4.246   4.040  0.2368 -0.1058  0.3902
 1430TIP3    H125705   5.219   4.166   4.076 -0.5683 -0.6870 -1.6881
 1430TIP3    H225706   5.236   4.242   3.946  2.0758  1.4807 -0.0949
 1431TIP3   OH225707   3.263   5.127  15.586 -0.3844  0.6443 -0.3466
 1431TIP3    H125708   3.246   5.158  15.675 -0.6429 -0.5238  0.0236
 1431TIP3    H225709   3.181   5.144  15.539 -0.8698 -0.3590  0.1133
 1432TIP3   OH225710   4.439   0.052   4.809  0.2751  0.0373 -0.0844
 1432TIP3    H125711   4.442   0.045   4.905 -1.7730 -1.7853 -0.1188
 1432TIP3    H225712   4.359   0.100   4.791  1.8548  2.4860 -0.8557
 1433TIP3   OH225713   1.267   1.560  16.182 -0.1485 -0.5181  0.6776
 1433TIP3    H125714   1.341   1.570  16.122 -0.3225 -0.5095  0.4573
 1433TIP3    H225715   1.202   1.510  16.131  0.4714 -2.2455  1.5410
 1434TIP3   OH225716   5.819   3.542  14.716  0.5710 -0.0343  0.0946
 1434TIP3    H125717   5.835   3.574  14.627 -0.7306  0.9318  0.1974
 1434TIP3    H225718   5.724   3.539  14.724  0.6465 -3.1123  0.3997
 1435TIP3   OH225719   3.992   5.614   0.860 -0.1761  0.0545 -0.2547
 1435TIP3    H125720   3.958   5.670   0.930  0.3985 -0.4933  0.4845
 1435TIP3    H225721   4.072   5.658   0.832  1.3269 -1.3419  1.6614
 1436TIP3   OH225722   6.154   5.704   3.459  0.1676 -0.0223 -0.2640
 1436TIP3    H125723   6.092   5.738   3.523 -0.8263 -0.5193 -0.9562
 1436TIP3    H225724   6.100   5.667   3.389  1.2315 -1.2325 -0.4708
 1437TIP3   OH225725   5.691   1.496  11.254  0.1305 -0.3065  0.0116
 1437TIP3    H125726   5.699   1.558  11.326  1.5071  1.2937 -1.5038
 1437TIP3    H225727   5.598   1.473  11.253  0.0419 -0.1346  2.1068
 1438TIP3   OH225728   4.778   5.800   4.525  0.3007  0.2062  0.0815
 1438TIP3    H125729   4.851   5.862   4.526  1.9327 -1.6535 -0.0255
 1438TIP3    H225730   4.700   5.854   4.513  1.6746  2.2197  0.0303
 1439TIP3   OH225731   1.883   2.403  12.727 -0.1518  0.2745 -0.2224
 1439TIP3    H125732   1.859   2.315  12.696 -0.7934  0.5619 -0.5303
 1439TIP3    H225733   1.956   2.429  12.670 -0.3695  0.2007 -0.5344
 1440TIP3   OH225734   3.429   6.723  16.508 -0.2152 -0.1716  0.0972
 1440TIP3    H125735   3.344   6.678  16.513 -0.3218  0.0184  0.0118
 1440TIP3    H225736   3.420   6.797  16.569  0.1754 -0.6182  0.7051
 1441TIP3   OH225737   2.525   3.201   2.960 -0.3204 -1.1012 -0.0075
 1441TIP3    H125738   2.549   3.160   3.042 -0.0660  2.0325  1.5731
 1441TIP3    H225739   2.599   3.183   2.901  0.8042 -0.9793  1.3486
 1442TIP3   OH225740   4.771   6.443   5.984 -0.1332 -0.1218 -0.1330
 1442TIP3    H125741   4.727   6.513   5.935  0.6662 -0.6801 -1.6922
 1442TIP3    H225742   4.864   6.458   5.969  0.1737  0.2724  2.0598
 1443TIP3   OH225743   6.010   3.897  15.868 -0.4009 -0.1223  0.2468
 1443TIP3    H125744   5.983   3.933  15.784 -1.2320  2.1947  1.4548
 1443TIP3    H225745   5.961   3.815  15.877  0.0007 -0.5856 -1.6724
 1444TIP3   OH225746   4.609   6.243  10.253  0.2644 -0.3438 -0.0825
 1444TIP3    H125747   4.563   6.187  10.315  2.3682 -0.4514  1.4341
 1444TIP3    H225748   4.540   6.290  10.207 -1.3246  0.3945  2.9593
 1445TIP3   OH225749   4.429   1.329  11.737 -0.0179 -0.6417 -0.1632
 1445TIP3    H125750   4.378   1.260  11.695 -0.4957 -0.4714  0.1339
 1445TIP3    H225751   4.364   1.386  11.778  0.2790  0.8062 -1.6487
 1446TIP3   OH225752   2.873   3.371   5.286  0.8589  0.1017  0.1741
 1446TIP3    H125753   2.839   3.394   5.199 -0.4736 -0.1597  0.6078
 1446TIP3    H225754   2.942   3.435   5.303  1.9177 -0.5308 -1.5581
 1447TIP3   OH225755   5.753   2.271   4.280  0.0608  0.1535 -0.1554
 1447TIP3    H125756   5.804   2.191   4.288  0.2711  0.3637  0.6497
 1447TIP3    H225757   5.794   2.332   4.341 -1.3577  0.2013  0.7776
 1448TIP3   OH225758   2.590   3.603  12.456 -0.7957  0.3760  0.0921
 1448TIP3    H125759   2.565   3.693  12.436 -0.1761  0.6452  0.5052
 1448TIP3    H225760   2.661   3.583  12.395 -2.0635 -0.4195 -1.1481
 1449TIP3   OH225761   4.850   4.737  16.505  0.1180 -0.0956 -0.4128
 1449TIP3    H125762   4.809   4.663  16.461  0.6911 -0.5654 -0.1620
 1449TIP3    H225763   4.830   4.812  16.449 -0.3806 -0.4545 -0.7185
 1450TIP3   OH225764   0.059   4.988   1.124  0.5908  0.1601  0.0133
 1450TIP3    H125765   0.008   4.922   1.172  0.4202 -1.2370 -2.0322
 1450TIP3    H225766   0.086   5.050   1.191  0.4852 -1.8202  1.9649
 1451TIP3   OH225767   4.734   6.004   2.721 -0.1233  0.3875  0.7289
 1451TIP3    H125768   4.691   6.043   2.645 -0.3662  0.7822  1.0640
 1451TIP3    H225769   4.755   6.079   2.777 -0.2700  0.0681  1.2136
 1452TIP3   OH225770   3.782   0.821   4.114 -0.0246  0.0927 -0.1922
 1452TIP3    H125771   3.825   0.741   4.145  3.7427  2.4412  1.0015
 1452TIP3    H225772   3.720   0.844   4.183 -0.0511 -0.9820  0.1499
 1453TIP3   OH225773   2.993   2.586  13.821  0.0523  0.2273 -0.1947
 1453TIP3    H125774   2.969   2.610  13.910  0.5400 -0.0955  0.0233
 1453TIP3    H225775   3.018   2.494  13.826  0.3576  0.2825 -0.6061
 1454TIP3   OH225776   2.264   5.753  16.590  0.4640 -0.1932  0.0376
 1454TIP3    H125777   2.193   5.707  16.636 -0.9167  1.9485  0.1131
 1454TIP3    H225778   2.225   5.778  16.506  0.4176  2.8407  0.9072
 1455TIP3   OH225779   4.839   6.054   0.354  0.3474 -0.3874  0.0422
 1455TIP3    H125780   4.766   6.020   0.405  0.3840 -1.1600 -0.4076
 1455TIP3    H225781   4.799   6.088   0.274  0.3868 -0.0086  0.1832
 1456TIP3   OH225782   3.372   6.735   5.179  0.0570 -0.3985 -0.1768
 1456TIP3    H125783   3.277   6.746   5.179  0.2413  1.4602 -2.5639
 1456TIP3    H225784   3.392   6.708   5.269 -2.5987  0.2414  0.6669
 1457TIP3   OH225785   3.256   5.192   1.980  0.2235  0.5253  0.1046
 1457TIP3    H125786   3.258   5.198   2.076  1.2546  0.6401  0.0783
 1457TIP3    H225787   3.332   5.138   1.958 -0.9528 -0.8830 -0.5474
 1458TIP3   OH225788   6.694   0.118   2.395  0.3590 -0.5153 -0.0388
 1458TIP3    H125789   6.721   0.162   2.314 -1.6833 -0.5695 -0.7924
 1458TIP3    H225790   6.609   0.157   2.416  1.1868  0.0260  2.5150
 1459TIP3   OH225791   3.019   3.552  11.991  0.1206  0.0255  0.3958
 1459TIP3    H125792   3.043   3.463  11.967  0.0405 -0.5453  2.3308
 1459TIP3    H225793   2.929   3.562  11.958 -0.3975 -1.1168  1.3993
 1460TIP3   OH225794   6.484   4.058   2.699  0.1215 -0.4450  0.5341
 1460TIP3    H125795   6.538   4.042   2.621 -1.8303 -0.3173 -0.8997
 1460TIP3    H225796   6.463   3.971   2.732  0.7798 -0.5075  0.7868
 1461TIP3   OH225797   5.233   6.172   4.312 -0.1107 -0.2505  0.5421
 1461TIP3    H125798   5.295   6.101   4.295  0.9121  0.4452  1.2773
 1461TIP3    H225799   5.288   6.247   4.334 -1.1657  0.8601 -0.5104
 1462TIP3   OH225800   1.836   2.474  12.002  0.2580  0.2872  0.2995
 1462TIP3    H125801   1.837   2.511  12.090  0.7140  2.7995 -0.7359
 1462TIP3    H225802   1.753   2.426  11.997  1.4765 -2.2690  3.0133
 1463TIP3   OH225803   1.885   4.958  12.774 -0.2688 -0.2279 -0.7976
 1463TIP3    H125804   1.869   4.866  12.795  0.4119 -0.0862  0.4243
 1463TIP3    H225805   1.799   4.993  12.753 -0.5162 -1.1706 -1.3959
 1464TIP3   OH225806   2.998   6.167  12.649  0.0459 -0.8781  0.7679
 1464TIP3    H125807   2.964   6.150  12.562  0.9791 -0.1331  0.2513
 1464TIP3    H225808   3.037   6.085  12.677  0.0381 -1.0254  0.3463
 1465TIP3   OH225809   1.043   1.126  13.826 -0.0367  0.8191 -0.4478
 1465TIP3    H125810   0.955   1.098  13.852 -0.2821  2.2978  0.3657
 1465TIP3    H225811   1.098   1.101  13.900  0.3752 -0.7230 -1.2413
 1466TIP3   OH225812   3.837   3.457  16.802  0.0638  0.5799  0.2083
 1466TIP3    H125813   3.920   3.429  16.764 -0.5074 -1.7556  0.6009
 1466TIP3    H225814   3.861   3.500  16.884  1.0226  1.8181 -0.7211
 1467TIP3   OH225815   1.290   2.730  11.481  0.8077 -0.2811 -0.7394
 1467TIP3    H125816   1.327   2.739  11.393  2.6274 -0.0350  0.0384
 1467TIP3    H225817   1.352   2.774  11.538 -0.3892 -0.3912  0.6869
 1468TIP3   OH225818   2.292   6.653  13.557 -0.2630 -0.5919 -0.5273
 1468TIP3    H125819   2.218   6.593  13.561 -0.2205 -0.5426  1.8501
 1468TIP3    H225820   2.291   6.688  13.468 -2.1902 -1.7207 -0.9610
 1469TIP3   OH225821   3.823   2.113  13.141  0.3243  0.0986  0.3343
 1469TIP3    H125822   3.731   2.101  13.165  0.4248  0.8441  1.1069
 1469TIP3    H225823   3.822   2.188  13.081  0.3709 -0.2105 -0.0548
 1470TIP3   OH225824   0.203   3.082  16.681  0.0193 -0.0654  0.0097
 1470TIP3    H125825   0.121   3.131  16.680 -0.0165 -0.1018  0.6697
 1470TIP3    H225826   0.254   3.118  16.609 -0.7591 -0.3506 -0.6869
 1471TIP3   OH225827   2.304   4.995  15.041  0.0234 -0.1770 -0.0953
 1471TIP3    H125828   2.258   4.921  15.082 -0.3647  1.1721  1.9867
 1471TIP3    H225829   2.244   5.069  15.052  1.2146  0.8531 -0.4683
 1472TIP3   OH225830   2.784   2.928   1.165 -0.3952  0.0378  0.1534
 1472TIP3    H125831   2.772   3.023   1.174 -0.7257 -0.0077  0.2015
 1472TIP3    H225832   2.713   2.890   1.218  0.8078 -0.2351  1.5936
 1473TIP3   OH225833   4.652   0.013   3.305  0.5151 -0.1977  0.4471
 1473TIP3    H125834   4.650  -0.074   3.343  1.0879 -1.1866 -1.6901
 1473TIP3    H225835   4.742   0.024   3.275 -0.1538  0.0945 -1.5422
 1474TIP3   OH225836   4.615   0.954   6.474 -0.4422 -0.6684 -0.2143
 1474TIP3    H125837   4.704   0.985   6.489 -1.5603  2.8962 -0.5124
 1474TIP3    H225838   4.559   1.024   6.506 -3.1088 -1.1169 -3.5302
 1475TIP3   OH225839   2.845   0.062  15.122 -0.0086  0.3604  0.0305
 1475TIP3    H125840   2.935   0.033  15.111 -0.0135  0.6451 -0.7615
 1475TIP3    H225841   2.803  -0.007  15.172  1.2827  1.3446  2.5812
 1476TIP3   OH225842   2.376   4.149   4.421 -0.1719 -0.1783  0.1037
 1476TIP3    H125843   2.389   4.238   4.453  0.3537 -0.7555  1.5199
 1476TIP3    H225844   2.326   4.106   4.490 -0.7838 -0.8699 -0.7615
 1477TIP3   OH225845   4.869   6.024   2.077 -0.1577 -0.0596  0.3078
 1477TIP3    H125846   4.780   6.052   2.098  0.2199  1.7089 -0.3491
 1477TIP3    H225847   4.858   5.940   2.033 -1.5184  0.2032  0.1237
 1478TIP3   OH225848   0.425   3.392  14.921  0.0988  0.2348 -0.2503
 1478TIP3    H125849   0.426   3.338  14.841  1.4112  0.4008 -0.3635
 1478TIP3    H225850   0.470   3.472  14.896  2.5690 -0.6126  1.2483
 1479TIP3   OH225851   4.975   6.165   1.671 -0.2692 -0.4701  0.4451
 1479TIP3    H125852   5.014   6.251   1.689 -0.9032 -0.1465  0.2733
 1479TIP3    H225853   4.968   6.161   1.576  0.5909 -1.0860  0.4010
 1480TIP3   OH225854   1.492   0.086  13.283 -0.1380 -0.2045  0.8136
 1480TIP3    H125855   1.423   0.065  13.220 -2.4737 -0.3724  3.3238
 1480TIP3    H225856   1.537   0.162  13.247 -1.7799  0.0241 -0.7597
 1481TIP3   OH225857   0.686   5.869   2.779 -0.1205  0.6326  0.3503
 1481TIP3    H125858   0.667   5.928   2.706 -0.6959 -0.4559 -0.4087
 1481TIP3    H225859   0.771   5.831   2.756 -0.0942  0.6193  0.4705
 1482TIP3   OH225860   4.149   1.318   0.323  0.0507  0.1178  0.2031
 1482TIP3    H125861   4.172   1.328   0.230  1.0663 -0.4613  0.3913
 1482TIP3    H225862   4.199   1.386   0.368 -2.1445  1.8795  0.0942
 1483TIP3   OH225863   2.590   0.301   1.506 -0.6489  0.5334  0.2111
 1483TIP3    H125864   2.634   0.306   1.590  0.8624 -1.1312 -0.4498
 1483TIP3    H225865   2.596   0.209   1.481 -1.8092  0.8514 -1.3236
 1484TIP3   OH225866   5.157   2.837   2.490  0.1049  0.0681  0.0936
 1484TIP3    H125867   5.148   2.746   2.517 -0.4118  0.3722  0.9831
 1484TIP3    H225868   5.225   2.873   2.547 -1.5197  0.9133  1.5436
 1485TIP3   OH225869   1.818   2.736   3.170  0.5983 -0.5860  0.4862
 1485TIP3    H125870   1.740   2.789   3.152 -0.2587 -1.9780  0.0592
 1485TIP3    H225871   1.855   2.773   3.250 -0.4618  0.1228  0.6461
 1486TIP3   OH225872   4.016   5.267  16.176 -0.5381 -0.1701 -0.0892
 1486TIP3    H125873   4.026   5.273  16.081  0.4440 -0.2731 -0.0036
 1486TIP3    H225874   4.035   5.175  16.196  0.9605  0.2363  0.3896
 1487TIP3   OH225875   5.778   3.022   5.166 -0.3248 -0.4766 -0.0169
 1487TIP3    H125876   5.824   2.978   5.095 -0.9817 -1.3882  0.1200
 1487TIP3    H225877   5.710   2.961   5.194 -1.1119  0.5253  0.3281
 1488TIP3   OH225878   1.910   6.292   6.587 -0.5622  0.1201  0.2965
 1488TIP3    H125879   1.875   6.303   6.675  1.1000 -1.0818  1.1460
 1488TIP3    H225880   1.907   6.197   6.572 -0.1357  0.2463 -0.6393
 1489TIP3   OH225881   3.307   6.588   1.863 -0.1900 -0.4107  0.4018
 1489TIP3    H125882   3.326   6.627   1.778 -1.4954  0.2159  0.3832
 1489TIP3    H225883   3.346   6.500   1.859  1.2172  0.2333 -0.2084
 1490TIP3   OH225884   5.727   4.868  14.127 -0.2737 -0.4330 -0.9311
 1490TIP3    H125885   5.639   4.870  14.165  0.6566 -0.8615  1.3219
 1490TIP3    H225886   5.761   4.782  14.150  0.8738 -0.1328 -1.4795
 1491TIP3   OH225887   5.853   0.694   1.187  0.3304  0.1729  0.1768
 1491TIP3    H125888   5.758   0.708   1.189  0.1002 -1.1124 -0.5449
 1491TIP3    H225889   5.890   0.773   1.225 -1.0376  0.6878  0.4826
 1492TIP3   OH225890   4.403   0.405   4.512 -0.2391 -0.1020 -0.1413
 1492TIP3    H125891   4.409   0.347   4.436 -1.5915 -1.0366  0.4494
 1492TIP3    H225892   4.492   0.407   4.548  0.0079 -1.0790 -0.6917
 1493TIP3   OH225893   5.104   6.565   2.773 -0.1987 -0.2103  0.1304
 1493TIP3    H125894   5.012   6.553   2.753 -0.0040 -0.0227 -0.9050
 1493TIP3    H225895   5.144   6.592   2.690  0.6134  0.6474  0.7881
 1494TIP3   OH225896   0.565   5.248   2.371 -0.3338  0.1377 -0.7360
 1494TIP3    H125897   0.484   5.197   2.370 -1.3905  1.7436 -0.9523
 1494TIP3    H225898   0.547   5.318   2.434  1.1227  0.1593 -0.3357
 1495TIP3   OH225899   6.122   0.097  16.344  0.3817 -0.3805 -0.2347
 1495TIP3    H125900   6.034   0.075  16.375 -0.5648  1.3826 -1.5445
 1495TIP3    H225901   6.149   0.171  16.399  0.9611 -0.7855  0.0287
 1496TIP3   OH225902   6.545   1.696   0.987 -0.6544  0.2609 -0.0256
 1496TIP3    H125903   6.514   1.623   0.935  1.0203 -1.3641  1.1960
 1496TIP3    H225904   6.548   1.770   0.926  0.1358 -1.3230 -1.9230
 1497TIP3   OH225905   0.386   3.739   1.400  0.1361 -0.5453  0.5351
 1497TIP3    H125906   0.415   3.746   1.309 -1.8759  1.8445  0.0194
 1497TIP3    H225907   0.306   3.688   1.397 -1.3703  1.7404  0.5869
 1498TIP3   OH225908   6.620   1.990   1.521  0.5214 -0.3675 -0.1473
 1498TIP3    H125909   6.627   1.903   1.560 -0.0090 -0.4450 -0.2086
 1498TIP3    H225910   6.684   1.990   1.450 -0.9124 -1.4602 -1.4930
 1499TIP3   OH225911   1.963   5.120  15.410  0.5107  0.2415  0.3764
 1499TIP3    H125912   2.050   5.082  15.396  0.3608 -0.2360  0.7157
 1499TIP3    H225913   1.959   5.135  15.504  0.5989  1.1854  0.2328
 1500TIP3   OH225914   3.512   2.967   3.937  0.3128  0.2441  0.5396
 1500TIP3    H125915   3.574   3.029   3.898  0.1627 -1.0427 -1.7891
 1500TIP3    H225916   3.429   3.015   3.942  0.6040  0.7711  0.2873
 1501TIP3   OH225917   6.128   1.607  13.403  0.0999 -0.2688 -0.0745
 1501TIP3    H125918   6.120   1.523  13.448  2.3809  0.9799  2.8761
 1501TIP3    H225919   6.218   1.610  13.371  0.5512  1.6236  1.2299
 1502TIP3   OH225920   4.903   2.475   4.644  0.1948  0.3881  0.1044
 1502TIP3    H125921   4.938   2.404   4.698 -0.0353  0.1899 -0.0071
 1502TIP3    H225922   4.911   2.553   4.699 -0.2020  0.1571  0.4913
 1503TIP3   OH225923   2.635   0.377   2.243 -0.2628 -0.7303 -0.0685
 1503TIP3    H125924   2.711   0.328   2.273  0.1532 -0.0063  0.0599
 1503TIP3    H225925   2.670   0.442   2.182 -0.7512 -0.2765  0.1309
 1504TIP3   OH225926   2.790   2.036  16.955  0.8862 -0.2200  0.2321
 1504TIP3    H125927   2.815   1.952  16.994  0.8164 -0.0758  0.5868
 1504TIP3    H225928   2.846   2.044  16.878  0.8301 -0.6364  0.1467
 1505TIP3   OH225929   3.339   3.487  11.881  0.0135  0.1496  0.1989
 1505TIP3    H125930   3.294   3.570  11.891  0.2455  0.2884  0.0920
 1505TIP3    H225931   3.399   3.500  11.808 -2.4750 -1.2179 -2.1697
 1506TIP3   OH225932   3.778   5.742   3.127 -0.0386 -0.1164 -0.0191
 1506TIP3    H125933   3.856   5.729   3.074 -0.1129  0.1778 -0.2028
 1506TIP3    H225934   3.737   5.656   3.132 -0.0043 -0.1532 -0.3969
 1507TIP3   OH225935   4.453   3.975  10.538 -0.0104  0.5559 -0.2236
 1507TIP3    H125936   4.534   4.025  10.534 -0.3549  1.0347 -1.2867
 1507TIP3    H225937   4.390   4.026  10.488 -0.7026 -0.3149 -0.2607
 1508TIP3   OH225938   5.082   3.589  12.195  0.8465  0.5352 -0.3012
 1508TIP3    H125939   5.039   3.568  12.112  0.9404  0.6473 -0.3775
 1508TIP3    H225940   5.169   3.548  12.188 -0.1544 -1.8977  0.8705
 1509TIP3   OH225941   3.600   3.104   3.005 -0.0648  0.0413 -0.1927
 1509TIP3    H125942   3.689   3.128   2.980  0.4507 -2.0768 -0.5475
 1509TIP3    H225943   3.568   3.051   2.931 -1.6046  0.7625 -0.0651
 1510TIP3   OH225944   5.806   0.388  15.464  0.3566  0.0703 -0.1064
 1510TIP3    H125945   5.714   0.391  15.437  0.6186  0.0961 -1.0096
 1510TIP3    H225946   5.844   0.318  15.411  0.5601 -0.8315  1.1997
 1511TIP3   OH225947   3.891   5.762   1.061  0.1410  0.5232 -0.2765
 1511TIP3    H125948   3.941   5.735   1.138  1.4477  3.7090  0.0487
 1511TIP3    H225949   3.810   5.798   1.097  0.0811  0.6146 -0.5039
 1512TIP3   OH225950   1.970   6.450   3.989  0.2973  0.1001  0.1753
 1512TIP3    H125951   1.939   6.451   3.899  1.7339 -0.6988 -0.3534
 1512TIP3    H225952   2.041   6.514   3.991 -0.3282  0.7852  0.9748
 1513TIP3   OH225953   0.414   1.610   5.995  0.0030 -0.1973  0.0004
 1513TIP3    H125954   0.421   1.596   6.090 -0.8124 -0.9209 -0.0433
 1513TIP3    H225955   0.426   1.523   5.957  0.6928  0.1474 -0.5905
 1514TIP3   OH225956   2.187   6.199   4.822  0.0864  0.2444  0.7113
 1514TIP3    H125957   2.114   6.216   4.762  0.4996  0.9331  0.3907
 1514TIP3    H225958   2.264   6.230   4.775  0.5712 -0.3464  1.1093
 1515TIP3   OH225959   4.180   1.877  10.958  0.8261  0.4630  0.4750
 1515TIP3    H125960   4.156   1.939  10.888 -0.7443 -0.0222  0.5627
 1515TIP3    H225961   4.144   1.916  11.038 -0.0983 -0.5246  0.5433
 1516TIP3   OH225962   0.567   0.747  11.967 -0.7509  0.0296 -0.6152
 1516TIP3    H125963   0.555   0.662  11.925 -1.4598 -0.0876 -0.1826
 1516TIP3    H225964   0.585   0.807  11.894  2.4660 -0.9406 -0.7065
 1517TIP3   OH225965   2.684   2.458  12.877 -0.0915 -0.3825  0.2179
 1517TIP3    H125966   2.629   2.532  12.852 -0.9395 -1.2625 -0.5622
 1517TIP3    H225967   2.712   2.420  12.794 -0.4354 -1.5044  0.6075
 1518TIP3   OH225968   4.734   5.583   4.382  0.1200 -0.4806  0.1107
 1518TIP3    H125969   4.696   5.616   4.301  1.0087 -0.0148 -0.1191
 1518TIP3    H225970   4.771   5.660   4.425 -0.2792 -0.7342  0.9258
 1519TIP3   OH225971   3.499   0.108  12.958  0.1593 -0.2087 -0.4692
 1519TIP3    H125972   3.506   0.014  12.977 -2.1782 -0.2883  0.1264
 1519TIP3    H225973   3.423   0.115  12.901 -0.2006  1.4126  0.1976
 1520TIP3   OH225974   0.216   2.294  16.763  0.4427 -0.0799  0.3493
 1520TIP3    H125975   0.252   2.254  16.684 -1.0184  0.7527 -0.7740
 1520TIP3    H225976   0.208   2.221  16.825  3.2986 -0.4046  0.3949
 1521TIP3   OH225977   5.498   2.841   3.573 -0.3559 -0.2923  0.2364
 1521TIP3    H125978   5.413   2.879   3.594  0.2797  1.5306 -0.3662
 1521TIP3    H225979   5.507   2.766   3.632 -1.5509  0.6417  1.6221
 1522TIP3   OH225980   5.873   5.685  10.724  0.1482 -0.1561 -0.2275
 1522TIP3    H125981   5.944   5.621  10.717 -0.2554 -0.2840 -4.1358
 1522TIP3    H225982   5.800   5.646  10.675 -1.1797  1.9013  0.0323
 1523TIP3   OH225983   0.959   3.734  11.282  0.2432  0.3129 -0.2582
 1523TIP3    H125984   0.993   3.715  11.195 -0.5627  0.3543 -0.5874
 1523TIP3    H225985   0.902   3.810  11.270 -0.3401 -0.0478  0.1932
 1524TIP3   OH225986   3.061   1.425  15.001  0.1171 -0.4856 -0.8127
 1524TIP3    H125987   3.114   1.438  15.079 -1.0156 -0.1393 -0.0937
 1524TIP3    H225988   3.123   1.434  14.928  0.8793  0.8628 -0.0278
 1525TIP3   OH225989   0.084   3.798   2.260  0.4578  0.0279 -0.1610
 1525TIP3    H125990   0.118   3.802   2.349  1.5808 -1.4481 -0.5091
 1525TIP3    H225991   0.010   3.738   2.265  1.2132 -0.9267 -0.4392
 1526TIP3   OH225992   0.634   1.766  12.876 -1.0288  0.2304  0.3931
 1526TIP3    H125993   0.674   1.828  12.814  1.0933  0.0594  1.5226
 1526TIP3    H225994   0.593   1.700  12.821  2.1156 -0.7479 -0.9116
 1527TIP3   OH225995   0.669   4.920   2.535 -0.3488 -0.1735  0.2553
 1527TIP3    H125996   0.627   4.861   2.473 -1.1649 -0.3503  0.9830
 1527TIP3    H225997   0.727   4.974   2.480 -0.1760 -1.1123 -0.5074
 1528TIP3   OH225998   2.761   2.227  12.434 -0.0201  0.1390  0.0160
 1528TIP3    H125999   2.670   2.209  12.459 -0.3887  2.3048  0.2958
 1528TIP3    H226000   2.775   2.175  12.355 -1.0662 -1.2367  0.6960
 1529TIP3   OH226001   0.972   5.884   1.097  0.1624 -0.3303 -0.0928
 1529TIP3    H126002   0.956   5.888   1.003 -1.7966 -0.1816  0.2285
 1529TIP3    H226003   1.059   5.844   1.105  0.9754  0.9948 -1.9920
 1530TIP3   OH226004   5.933   3.216  13.125  0.0415 -0.1281 -0.1199
 1530TIP3    H126005   5.914   3.268  13.047  1.1246 -1.0528 -1.0053
 1530TIP3    H226006   5.899   3.129  13.105  1.4789 -0.7154 -0.1010
 1531TIP3   OH226007   1.090   5.607   5.717 -0.5978  0.4322  0.2501
 1531TIP3    H126008   1.081   5.561   5.800 -2.0012  0.3103  0.0417
 1531TIP3    H226009   1.146   5.682   5.737  1.2914 -1.0703  0.7029
 1532TIP3   OH226010   0.393   5.479  12.489  0.2141 -0.6110 -0.0588
 1532TIP3    H126011   0.416   5.520  12.572  0.6550  3.1848 -1.9325
 1532TIP3    H226012   0.301   5.502  12.475 -0.5709 -3.3001  0.4956
 1533TIP3   OH226013   0.689   5.580  14.763 -0.4060  1.0242 -0.5155
 1533TIP3    H126014   0.777   5.546  14.748 -0.1047  1.0523  1.0646
 1533TIP3    H226015   0.701   5.672  14.784 -0.8043  1.0232 -0.2687
 1534TIP3   OH226016   0.766   0.465  13.364 -0.4111  0.0199  0.1573
 1534TIP3    H126017   0.727   0.431  13.444 -0.1347  0.4628  0.4814
 1534TIP3    H226018   0.816   0.542  13.392  0.6976 -0.5410 -0.2495
 1535TIP3   OH226019   2.257   3.209   2.872 -0.2808 -0.0989  0.4851
 1535TIP3    H126020   2.203   3.130   2.879 -1.0955  0.4147 -0.0034
 1535TIP3    H226021   2.345   3.179   2.895 -0.5321 -1.2174  0.0240
 1536TIP3   OH226022   0.291   2.083  11.956 -0.5210  0.2301 -0.6262
 1536TIP3    H126023   0.210   2.034  11.971 -1.3271  1.8458  0.4765
 1536TIP3    H226024   0.337   2.080  12.040 -1.3034  2.5814 -0.0516
 1537TIP3   OH226025   5.692   3.153  13.887  0.6709  0.0022  0.2764
 1537TIP3    H126026   5.730   3.081  13.836  0.2527  0.1024 -0.1812
 1537TIP3    H226027   5.726   3.140  13.975  0.9338 -0.5138  0.1043
 1538TIP3   OH226028   2.835   4.700  13.355 -0.3425 -0.2279 -0.2382
 1538TIP3    H126029   2.841   4.606  13.340 -0.2580 -0.5042  1.4660
 1538TIP3    H226030   2.827   4.738  13.267 -1.2064 -1.8703 -0.8753
 1539TIP3   OH226031   3.425   1.013   5.603  0.2678 -0.2705  0.2639
 1539TIP3    H126032   3.486   0.953   5.561 -0.7338 -0.2324 -1.2864
 1539TIP3    H226033   3.440   1.001   5.697  1.3049 -1.6440 -0.0638
 1540TIP3   OH226034   0.708   1.360   2.324 -0.8012  0.0485 -0.2952
 1540TIP3    H126035   0.623   1.322   2.343 -0.4001 -0.0954  1.3109
 1540TIP3    H226036   0.753   1.360   2.409  0.8065  0.0648 -1.1360
 1541TIP3   OH226037   4.854   5.899   1.471 -0.2821 -0.5378 -0.1571
 1541TIP3    H126038   4.759   5.897   1.481 -0.3740  0.2632 -0.8381
 1541TIP3    H226039   4.870   5.959   1.398  0.6701 -1.7265 -0.9495
 1542TIP3   OH226040   1.730   0.992  14.437  0.2772 -0.3655 -0.5183
 1542TIP3    H126041   1.774   0.936  14.500  0.0624 -0.2911 -0.2988
 1542TIP3    H226042   1.653   1.025  14.484 -0.3328 -0.9684 -1.0913
 1543TIP3   OH226043   3.075   5.484  15.932 -0.1373  0.1677 -0.2662
 1543TIP3    H126044   3.114   5.570  15.917 -2.0733  1.2976  1.0327
 1543TIP3    H226045   3.095   5.464  16.024 -1.0577 -0.0653 -0.1120
 1544TIP3   OH226046   3.681   5.066  16.819  0.1261 -0.3243  1.0491
 1544TIP3    H126047   3.765   5.078  16.774  0.1685 -0.8525  0.9793
 1544TIP3    H226048   3.680   5.133  16.886  0.5543 -0.2371  0.9697
 1545TIP3   OH226049   6.604   4.633   2.674  0.6296  0.4174 -0.2669
 1545TIP3    H126050   6.516   4.614   2.706  1.9419 -1.3777  2.4992
 1545TIP3    H226051   6.625   4.558   2.618  0.6918  0.4528 -0.2903
 1546TIP3   OH226052   6.267   4.012  16.198  0.1507  0.5527  0.1684
 1546TIP3    H126053   6.214   4.081  16.237 -0.1409  0.2184  0.3650
 1546TIP3    H226054   6.355   4.050  16.190  0.1595  0.6969  0.9283
 1547TIP3   OH226055   5.185   5.111   0.328  0.4341  0.5964  0.3355
 1547TIP3    H126056   5.129   5.046   0.286  1.5612 -1.4776  1.9634
 1547TIP3    H226057   5.169   5.099   0.422  0.1363  3.1815  0.6697
 1548TIP3   OH226058   1.896   6.156   2.372 -0.0301 -0.5658 -0.1035
 1548TIP3    H126059   1.880   6.092   2.441 -0.2882 -1.3018 -0.8438
 1548TIP3    H226060   1.878   6.109   2.290 -0.9311  0.6503 -0.6170
 1549TIP3   OH226061   1.609   6.516   3.682 -0.1725  0.3956  0.4070
 1549TIP3    H126062   1.587   6.441   3.738 -2.5685  0.8384  0.1090
 1549TIP3    H226063   1.656   6.576   3.740 -0.2770 -0.3195  1.2546
 1550TIP3   OH226064   2.886   0.914  12.368  0.3812 -0.2879  0.9531
 1550TIP3    H126065   2.863   0.993  12.416 -1.7800 -1.1284  1.3246
 1550TIP3    H226066   2.945   0.866  12.426  2.3139  1.3413  0.4313
 1551TIP3   OH226067   5.510   0.567   3.494  0.0080  0.0662  0.0255
 1551TIP3    H126068   5.563   0.586   3.416  1.2040  2.8459  1.4513
 1551TIP3    H226069   5.568   0.588   3.567 -2.1868  0.5712  1.6370
 1552TIP3   OH226070   2.802   4.429   3.476  0.0668 -0.2903  0.1972
 1552TIP3    H126071   2.879   4.468   3.517  2.1869 -2.3929 -1.6687
 1552TIP3    H226072   2.793   4.475   3.393 -2.1835  1.6010  1.4188
 1553TIP3   OH226073   0.823   1.338   5.505 -0.6385  0.0351 -0.1177
 1553TIP3    H126074   0.788   1.426   5.514  0.7205  0.5559  0.1536
 1553TIP3    H226075   0.888   1.345   5.435  1.2096 -0.1915  1.5259
 1554TIP3   OH226076   2.304   0.217   3.632 -0.1468  0.7631 -0.0526
 1554TIP3    H126077   2.287   0.309   3.652 -0.8586  0.6726 -0.2521
 1554TIP3    H226078   2.300   0.211   3.537  1.4014  0.8206 -0.1359
 1555TIP3   OH226079   6.201   6.763   4.317 -0.4850 -0.8518 -0.1442
 1555TIP3    H126080   6.261   6.740   4.388 -0.6300 -0.3134  0.1546
 1555TIP3    H226081   6.206   6.689   4.257  0.4688 -0.8121 -0.1193
 1556TIP3   OH226082   4.776   3.462  14.527 -0.1245  0.1107  0.3138
 1556TIP3    H126083   4.701   3.434  14.579 -0.2046 -0.8784 -0.3282
 1556TIP3    H226084   4.766   3.557  14.519 -0.5479  0.1659  1.4134
 1557TIP3   OH226085   3.878   0.651  16.893  0.0274  0.1578  0.6240
 1557TIP3    H126086   3.962   0.696  16.882 -0.0170  0.1597  0.3009
 1557TIP3    H226087   3.861   0.656  16.987 -0.2799  1.3518  0.5072
 1558TIP3   OH226088   5.347   3.932   0.417 -0.2196  0.4290 -0.6050
 1558TIP3    H126089   5.399   3.880   0.479 -0.8360  0.1058 -0.3539
 1558TIP3    H226090   5.271   3.962   0.469 -0.3076  0.8643 -0.9783
 1559TIP3   OH226091   4.803   0.702  14.559  0.9732 -0.4655 -0.2688
 1559TIP3    H126092   4.824   0.674  14.470  3.2002  0.8230 -0.1875
 1559TIP3    H226093   4.743   0.776  14.547  1.8182  0.1597 -0.7568
 1560TIP3   OH226094   1.114   1.471   5.385  0.1798  0.0623  0.2133
 1560TIP3    H126095   1.195   1.461   5.334 -0.3722  0.0540 -0.6793
 1560TIP3    H226096   1.143   1.480   5.475  1.1832  0.1042 -0.1095
 1561TIP3   OH226097   6.384   0.590  15.522 -0.6402 -0.5326 -0.3728
 1561TIP3    H126098   6.344   0.671  15.553 -1.1533  0.2560 -3.0063
 1561TIP3    H226099   6.435   0.616  15.445  0.6714 -2.4180 -0.1919
 1562TIP3   OH226100   0.380   0.370   5.225 -0.0484 -0.3001 -0.3481
 1562TIP3    H126101   0.357   0.462   5.228 -0.8726 -0.5381  1.7898
 1562TIP3    H226102   0.476   0.369   5.215  0.3305  0.8481  2.6590
 1563TIP3   OH226103   4.645   5.559  16.442 -0.6979 -0.0540 -0.1151
 1563TIP3    H126104   4.711   5.537  16.507 -0.6579  1.0391  0.2175
 1563TIP3    H226105   4.564   5.523  16.478 -0.8270  1.2733  0.9464
 1564TIP3   OH226106   0.388   4.750   0.130  0.0208  0.1215  0.0684
 1564TIP3    H126107   0.425   4.837   0.147 -0.8194  0.3732  0.6314
 1564TIP3    H226108   0.364   4.718   0.217 -0.3366 -0.3772 -0.2196
 1565TIP3   OH226109   0.473   4.877  14.050 -0.9904  0.1622  0.0987
 1565TIP3    H126110   0.544   4.861  13.988 -1.4925 -2.1749  0.0699
 1565TIP3    H226111   0.415   4.939  14.006 -0.7431 -0.5986 -1.3197
 1566TIP3   OH226112   0.551   1.391  16.600 -0.2616  0.2732  0.2421
 1566TIP3    H126113   0.544   1.305  16.643 -0.6680  0.3255  0.2864
 1566TIP3    H226114   0.642   1.416  16.611  0.1973 -0.7914 -1.0043
 1567TIP3   OH226115   1.060   0.971  16.821  0.3100 -0.7198 -0.2269
 1567TIP3    H126116   0.990   0.949  16.882 -0.3845 -1.8231 -1.3987
 1567TIP3    H226117   1.064   0.896  16.761  0.8713  0.4110 -1.6242
 1568TIP3   OH226118   3.894   4.387  13.159  0.4554 -0.0067 -0.2518
 1568TIP3    H126119   3.952   4.341  13.098  0.3353  1.1154 -1.2401
 1568TIP3    H226120   3.936   4.376  13.244  1.3016 -0.5260 -0.7254
 1569TIP3   OH226121   4.090   2.096   4.760 -0.0962 -0.0825 -0.0223
 1569TIP3    H126122   4.059   2.186   4.761  0.3920  0.0756  0.5269
 1569TIP3    H226123   4.150   2.092   4.685  2.3896  0.8793  1.8704
 1570TIP3   OH226124   6.110   3.391  16.753 -0.1347 -0.1594  0.4642
 1570TIP3    H126125   6.133   3.315  16.700  2.5028  2.4321 -2.2700
 1570TIP3    H226126   6.016   3.403  16.738 -0.4694 -2.4769  0.4856
 1571TIP3   OH226127   0.752   2.507  14.904 -0.2180  0.2611  0.5226
 1571TIP3    H126128   0.721   2.470  14.821 -0.8907 -2.2113  1.8281
 1571TIP3    H226129   0.680   2.494  14.965  0.2254  2.1649  1.5126
 1572TIP3   OH226130   1.025   2.213  11.333  0.1983  0.5682 -0.2005
 1572TIP3    H126131   0.933   2.194  11.317 -0.3466  0.8688  2.3566
 1572TIP3    H226132   1.063   2.129  11.359 -0.1386  1.1078  2.0918
 1573TIP3   OH226133   4.307   5.017  16.872  0.3514  0.1952  0.6566
 1573TIP3    H126134   4.261   4.946  16.828  0.9153  1.3616 -1.9562
 1573TIP3    H226135   4.238   5.068  16.915 -0.2072 -1.0613  1.2665
 1574TIP3   OH226136   4.627   2.739  14.833 -0.3407 -0.3344 -0.0959
 1574TIP3    H126137   4.550   2.683  14.820 -0.5399  0.4028 -2.2074
 1574TIP3    H226138   4.701   2.678  14.837 -0.6988 -0.8364 -1.0866
 1575TIP3   OH226139   6.502   6.700   4.832  0.6225 -0.3577  0.8249
 1575TIP3    H126140   6.445   6.636   4.789 -1.0545  1.9133 -0.4305
 1575TIP3    H226141   6.569   6.720   4.767  0.9573 -0.5668  1.1018
 1576TIP3   OH226142   0.516   5.914  14.548  0.6586  0.6226  0.6420
 1576TIP3    H126143   0.489   5.826  14.576  1.1068  0.7056  1.3576
 1576TIP3    H226144   0.530   5.906  14.454  0.9412 -0.1372  0.7428
 1577TIP3   OH226145   4.336   2.612  16.317 -0.4872  0.0507  0.0050
 1577TIP3    H126146   4.299   2.567  16.393  2.0430  1.5697  2.2061
 1577TIP3    H226147   4.318   2.704  16.332  1.0787  0.4727 -0.6274
 1578TIP3   OH226148   6.647   6.112   5.011 -0.4583  0.6517  0.6885
 1578TIP3    H126149   6.700   6.186   5.042 -1.2485  0.6299  2.1252
 1578TIP3    H226150   6.703   6.068   4.947  1.2366  0.7064  2.0770
 1579TIP3   OH226151   5.141   2.192  15.873 -0.4442  0.5125 -0.3383
 1579TIP3    H126152   5.094   2.163  15.951 -1.5977 -0.0169 -1.2101
 1579TIP3    H226153   5.229   2.157  15.884 -0.8680 -0.3911  0.2750
 1580TIP3   OH226154   3.239   6.351  15.031 -0.1398 -0.0881  0.4695
 1580TIP3    H126155   3.274   6.420  15.088 -1.2350 -0.6349  1.8109
 1580TIP3    H226156   3.162   6.318  15.077 -1.6806  0.2028 -1.8280
 1581TIP3   OH226157   5.016   4.487  16.344 -0.1021 -0.0236  0.0616
 1581TIP3    H126158   4.961   4.460  16.418  0.2351 -1.3860 -0.1811
 1581TIP3    H226159   4.959   4.479  16.267 -0.0166 -0.0081 -0.0031
 1582TIP3   OH226160   5.154   1.638   6.628 -0.0703 -0.4921  0.1871
 1582TIP3    H126161   5.170   1.703   6.560 -0.0341  0.4613  1.0946
 1582TIP3    H226162   5.229   1.645   6.687 -0.2983 -1.0215  0.5503
 1583TIP3   OH226163   3.007   5.710   3.353  0.3247  0.1683  0.0140
 1583TIP3    H126164   2.951   5.656   3.298 -1.1321  0.7225  0.9147
 1583TIP3    H226165   3.048   5.649   3.414  2.0484 -0.4632 -1.7620
 1584TIP3   OH226166   3.964   0.671  11.499 -0.0750 -0.1640 -0.0820
 1584TIP3    H126167   3.962   0.690  11.405 -1.1172  0.8494  0.1238
 1584TIP3    H226168   3.919   0.587  11.508 -0.5852  0.0705 -0.4214
 1585TIP3   OH226169   0.620   0.084  14.930  0.1334 -0.3020 -1.1307
 1585TIP3    H126170   0.640   0.157  14.988 -1.3512  0.7579 -1.9069
 1585TIP3    H226171   0.657   0.110  14.845  2.5089 -1.9509 -0.6390
 1586TIP3   OH226172   3.427   0.809   0.749  0.6340  0.3945 -0.6541
 1586TIP3    H126173   3.520   0.832   0.739  0.4520  1.6176  0.4837
 1586TIP3    H226174   3.385   0.889   0.778  0.0262 -1.3548  3.5976
 1587TIP3   OH226175   0.796   2.504  10.899  0.4059 -0.0710  0.5717
 1587TIP3    H126176   0.715   2.474  10.858  0.7026 -0.1573  0.0403
 1587TIP3    H226177   0.802   2.597  10.875 -1.0102  0.6985  3.0177
 1588TIP3   OH226178   6.313   3.552  13.324  0.1823 -0.2515 -0.2977
 1588TIP3    H126179   6.365   3.559  13.404  1.5392 -0.0209 -1.1884
 1588TIP3    H226180   6.305   3.457  13.310  0.3049 -0.2907 -0.1117
 1589TIP3   OH226181   4.601   3.977  11.691 -0.1779  0.6037 -0.2579
 1589TIP3    H126182   4.614   3.883  11.707  0.2949  0.4932 -1.2902
 1589TIP3    H226183   4.508   3.984  11.670 -0.2582  0.4006  0.0134
 1590TIP3   OH226184   4.094   3.906   4.680  0.2026  0.8095  0.0066
 1590TIP3    H126185   4.076   3.943   4.767 -1.6373 -0.6233  0.2657
 1590TIP3    H226186   4.189   3.918   4.669  0.1319  2.9243  1.2929
 1591TIP3   OH226187   1.432   6.642   5.291  0.5450  0.6930  0.5523
 1591TIP3    H126188   1.410   6.551   5.310  0.7298  0.7767  1.2041
 1591TIP3    H226189   1.410   6.689   5.372 -0.4195  1.3793 -0.0966
 1592TIP3   OH226190   4.654   5.970   4.181  0.4795  0.1736 -0.2978
 1592TIP3    H126191   4.666   6.014   4.098  0.1682  0.1243 -0.3715
 1592TIP3    H226192   4.559   5.955   4.187  0.6969 -1.5997 -0.8619
 1593TIP3   OH226193   2.494   1.413  13.042 -0.0193 -0.3593  0.5958
 1593TIP3    H126194   2.587   1.434  13.049  0.6519 -2.6403 -0.9565
 1593TIP3    H226195   2.472   1.376  13.127  0.3342  0.7177  1.1708
 1594TIP3   OH226196   5.421   3.274   4.565  0.5718  0.1650 -0.2675
 1594TIP3    H126197   5.462   3.307   4.485 -0.4724  2.7705  0.2523
 1594TIP3    H226198   5.336   3.316   4.567  0.4604 -0.1474  2.0723
 1595TIP3   OH226199   1.350   3.289  15.005  0.0994  0.1426 -0.3828
 1595TIP3    H126200   1.385   3.215  14.955 -1.1288  1.0259 -2.6246
 1595TIP3    H226201   1.412   3.360  14.989  0.8583 -0.1484  1.1420
 1596TIP3   OH226202   0.439   1.750   2.341 -0.1623 -0.2998 -0.0658
 1596TIP3    H126203   0.448   1.787   2.253 -1.0830 -0.7246 -0.3475
 1596TIP3    H226204   0.401   1.821   2.392  2.0228  0.5510  0.4447
 1597TIP3   OH226205   0.722   6.177   0.037  0.1384  0.1231  0.0651
 1597TIP3    H126206   0.757   6.243   0.097 -0.0537 -0.0564  0.3748
 1597TIP3    H226207   0.741   6.094   0.079 -3.3437  0.0868  1.7421
 1598TIP3   OH226208   6.636   2.738  14.136  0.0578 -0.1689  0.2406
 1598TIP3    H126209   6.724   2.776  14.140  0.1338 -0.1804 -0.9920
 1598TIP3    H226210   6.615   2.737  14.042 -0.3891 -2.1861  0.3483
 1599TIP3   OH226211   5.220   5.781   1.942  0.2032  0.0553 -0.4909
 1599TIP3    H126212   5.243   5.872   1.922 -1.0055  0.6377  0.6649
 1599TIP3    H226213   5.178   5.749   1.863  2.3076 -0.1079 -1.5794
 1600TIP3   OH226214   0.968   2.444  11.569 -0.3328 -0.0822  0.0156
 1600TIP3    H126215   0.969   2.540  11.568  0.2011 -0.0641  0.8826
 1600TIP3    H226216   1.059   2.420  11.586 -0.1574 -0.7918 -1.8131
 1601TIP3   OH226217   1.792   5.405   2.602  0.3184  0.4818 -0.5422
 1601TIP3    H126218   1.741   5.435   2.527 -2.4762  0.2065  1.1720
 1601TIP3    H226219   1.782   5.310   2.602  0.4694  0.4622  0.0516
 1602TIP3   OH226220   3.647   4.758   1.833  0.1891 -0.2080 -0.4460
 1602TIP3    H126221   3.669   4.829   1.773 -0.4940 -0.0645 -0.5351
 1602TIP3    H226222   3.729   4.736   1.877  0.4106  0.5850 -0.4727
 1603TIP3   OH226223   2.694   6.389  11.338  0.5755 -0.2016  0.1367
 1603TIP3    H126224   2.623   6.336  11.301  0.4631  0.6212 -0.8282
 1603TIP3    H226225   2.716   6.344  11.420 -1.0937 -0.4340  0.4823
 1604TIP3   OH226226   5.801   0.980   1.729 -0.4671  0.0057 -0.2305
 1604TIP3    H126227   5.806   0.960   1.822  0.0471  0.3687 -0.1771
 1604TIP3    H226228   5.784   0.896   1.687 -0.8595 -0.1298  0.2043
 1605TIP3   OH226229   6.595   0.800  15.605 -0.0181 -0.2977 -0.3253
 1605TIP3    H126230   6.511   0.759  15.627  0.6265 -2.2674 -1.3553
 1605TIP3    H226231   6.652   0.778  15.678 -0.5575  1.6001  0.6867
 1606TIP3   OH226232   2.436   1.119  12.492  0.3234  0.2237 -0.0948
 1606TIP3    H126233   2.470   1.119  12.403 -0.1898  0.2893 -0.2877
 1606TIP3    H226234   2.368   1.186  12.493 -2.6675 -2.6877 -0.7922
 1607TIP3   OH226235   6.404   2.904   0.481  0.0714  0.4689 -0.4318
 1607TIP3    H126236   6.483   2.877   0.435  0.6968 -2.6703  2.3134
 1607TIP3    H226237   6.333   2.861   0.433  0.2534  1.1349 -1.3103
 1608TIP3   OH226238   4.995   0.850   2.762  0.2158  0.0588 -0.1118
 1608TIP3    H126239   5.005   0.903   2.684 -0.0965 -0.8353 -0.7688
 1608TIP3    H226240   5.053   0.891   2.827  2.6231 -0.7911 -1.6407
 1609TIP3   OH226241   2.335   3.278   4.247 -0.9425 -0.0583 -0.3687
 1609TIP3    H126242   2.364   3.358   4.290  1.9092 -0.3705 -1.5854
 1609TIP3    H226243   2.328   3.303   4.154  0.0801 -1.2119 -0.7680
 1610TIP3   OH226244   6.762   5.406  15.098  0.0760 -0.0866 -0.1534
 1610TIP3    H126245   6.754   5.498  15.120  0.1276  0.4311 -2.2111
 1610TIP3    H226246   6.729   5.399  15.009  3.1451 -1.4893 -1.2426
 1611TIP3   OH226247   3.423   1.872   3.727 -0.5786  0.0449 -0.0440
 1611TIP3    H126248   3.465   1.800   3.773  0.7985  1.4736  1.0058
 1611TIP3    H226249   3.330   1.865   3.752 -0.0623  0.0386  1.9596
 1612TIP3   OH226250   2.927   5.634   1.512 -0.1246 -0.6372  0.2660
 1612TIP3    H126251   3.011   5.591   1.526  0.1960 -0.1847 -0.2786
 1612TIP3    H226252   2.867   5.587   1.570  0.5796 -0.7052  0.9597
 1613TIP3   OH226253   3.672   6.181   4.196  0.3961  0.0169 -0.6157
 1613TIP3    H126254   3.654   6.116   4.264  0.4842  0.9942  0.3636
 1613TIP3    H226255   3.761   6.210   4.214 -0.0646  1.2825 -0.2943
 1614TIP3   OH226256   2.485   6.329   2.316  0.0879 -0.2714  0.8265
 1614TIP3    H126257   2.545   6.383   2.264  2.7587 -1.5620  2.4132
 1614TIP3    H226258   2.428   6.392   2.361 -1.1648  0.9134 -2.3022
 1615TIP3   OH226259   6.180   2.076   5.671 -0.3214  0.5760 -0.2399
 1615TIP3    H126260   6.161   2.076   5.765 -0.9965  0.3834 -0.3702
 1615TIP3    H226261   6.263   2.122   5.663 -0.9876  1.9012  0.3208
 1616TIP3   OH226262   2.267   4.474   3.715  0.2085 -0.3293 -0.1289
 1616TIP3    H126263   2.341   4.433   3.670 -1.5637 -2.4494 -1.2089
 1616TIP3    H226264   2.217   4.516   3.646  0.0839  0.6279  0.5279
 1617TIP3   OH226265   6.651   1.132   2.592 -0.4102  0.0559  0.3968
 1617TIP3    H126266   6.677   1.041   2.584  2.1784  0.8297 -0.3117
 1617TIP3    H226267   6.623   1.157   2.504 -0.4011  0.1667  0.4252
 1618TIP3   OH226268   1.954   1.973   0.732  0.4482  0.1640 -0.1893
 1618TIP3    H126269   2.042   2.011   0.734 -0.0880  1.8465 -3.7481
 1618TIP3    H226270   1.969   1.880   0.711  1.3710  0.8733 -2.9550
 1619TIP3   OH226271   4.729   0.994   3.194 -0.0832 -0.4114  0.2651
 1619TIP3    H126272   4.647   1.008   3.241  1.0451  1.7680  1.6892
 1619TIP3    H226273   4.796   0.986   3.262  1.0747 -0.8837 -0.8869
 1620TIP3   OH226274   5.238   1.373  11.898  0.2132  0.1695 -0.0179
 1620TIP3    H126275   5.259   1.461  11.867  0.9354 -0.5451 -1.6095
 1620TIP3    H226276   5.323   1.330  11.910 -0.1703 -1.0687 -1.5333
 1621TIP3   OH226277   6.505   3.906  15.896  0.1467 -0.9489 -0.4329
 1621TIP3    H126278   6.426   3.856  15.915  0.8497 -2.0131 -0.3037
 1621TIP3    H226279   6.577   3.851  15.926  0.8188  1.3363  2.4560
 1622TIP3   OH226280   4.674   2.755  16.137 -0.0694  0.6447  0.0305
 1622TIP3    H126281   4.607   2.824  16.131 -0.3518  0.1938 -2.0393
 1622TIP3    H226282   4.628   2.675  16.113  0.4873 -0.1650  1.5808
 1623TIP3   OH226283   4.671   4.096   1.764 -0.5653 -0.0579 -0.2733
 1623TIP3    H126284   4.711   4.009   1.764 -1.1496 -0.3293 -0.0874
 1623TIP3    H226285   4.743   4.155   1.786  0.3388 -0.2384 -2.6056
 1624TIP3   OH226286   1.258   6.249   0.302 -0.1367  0.0620  0.1459
 1624TIP3    H126287   1.219   6.314   0.362 -1.4634  0.1176 -0.7751
 1624TIP3    H226288   1.264   6.295   0.218  0.6522 -0.4048 -0.0536
 1625TIP3   OH226289   1.184   0.438  15.296 -0.3157 -0.2244 -0.7460
 1625TIP3    H126290   1.248   0.372  15.270 -0.7295 -0.7100 -0.5605
 1625TIP3    H226291   1.206   0.458  15.387  0.7997  1.0787 -1.2895
 1626TIP3   OH226292   5.737   5.251  14.448 -0.1563  0.2889 -0.4611
 1626TIP3    H126293   5.800   5.186  14.418 -1.8408 -1.1618 -0.9184
 1626TIP3    H226294   5.682   5.204  14.510 -0.4650  1.6942  0.3596
 1627TIP3   OH226295   3.882   4.488   5.248 -0.5519 -0.2358 -0.1088
 1627TIP3    H126296   3.889   4.515   5.156  0.1855  0.7781  0.2411
 1627TIP3    H226297   3.908   4.396   5.248 -0.3136 -0.1724 -0.8866
 1628TIP3   OH226298   0.705   1.575   5.052 -0.0344 -0.4742  0.3855
 1628TIP3    H126299   0.799   1.572   5.071  0.1312  0.1080 -0.3263
 1628TIP3    H226300   0.676   1.659   5.088 -0.3768 -0.8422  0.9884
 1629TIP3   OH226301   6.615   4.987   2.996 -0.1842  0.1582 -0.0831
 1629TIP3    H126302   6.687   5.022   3.049  1.2657  0.3370 -2.1205
 1629TIP3    H226303   6.544   5.049   3.009 -0.3638 -0.5966  2.8197
 1630TIP3   OH226304   3.738   4.217   6.099  0.4948 -0.2140  0.0833
 1630TIP3    H126305   3.770   4.143   6.047  0.4250 -0.2430  0.0818
 1630TIP3    H226306   3.813   4.277   6.105  1.2340 -1.2935  1.9574
 1631TIP3   OH226307   1.366   1.021  14.393 -0.3336 -0.1720  0.1744
 1631TIP3    H126308   1.374   1.103  14.441  1.0862  0.1164 -0.5268
 1631TIP3    H226309   1.320   0.962  14.453 -0.3928  0.7979  1.0881
 1632TIP3   OH226310   3.729   3.149   6.025 -0.2826 -0.1011 -0.1215
 1632TIP3    H126311   3.657   3.209   6.048 -0.5529 -0.3600 -0.2888
 1632TIP3    H226312   3.783   3.146   6.104 -0.6779 -0.2221  0.1496
 1633TIP3   OH226313   6.714   4.338   6.376  0.0932  0.1552  0.3893
 1633TIP3    H126314   6.704   4.245   6.393 -2.7212  0.3373 -0.0731
 1633TIP3    H226315   6.779   4.343   6.306  1.4586 -1.3464  1.5281
 1634TIP3   OH226316   4.840   5.125   2.961  0.1188 -0.0600 -0.4422
 1634TIP3    H126317   4.915   5.068   2.952  1.1335  1.3594 -1.2290
 1634TIP3    H226318   4.773   5.086   2.905 -0.1587 -1.9682  1.1618
 1635TIP3   OH226319   1.266   4.327  16.559 -0.1725  0.5345  0.8241
 1635TIP3    H126320   1.287   4.412  16.598  1.4287  0.2275  0.6575
 1635TIP3    H226321   1.347   4.300  16.516 -0.7644 -0.9474  0.6240
 1636TIP3   OH226322   5.259   5.386   6.059 -0.1259  0.4980  0.0338
 1636TIP3    H126323   5.221   5.388   6.147  0.9802  0.7376  0.5148
 1636TIP3    H226324   5.347   5.420   6.071 -0.0291  0.6878 -1.2057
 1637TIP3   OH226325   3.454   3.710   0.072  0.0769 -0.0621  0.0316
 1637TIP3    H126326   3.536   3.669   0.044 -0.0472 -0.4629  0.2586
 1637TIP3    H226327   3.444   3.684   0.164 -1.0669 -1.2374 -0.4189
 1638TIP3   OH226328   1.178   5.693   2.787 -0.5711  0.6531  0.0199
 1638TIP3    H126329   1.129   5.638   2.726 -1.0697  0.3033  0.7250
 1638TIP3    H226330   1.115   5.760   2.815 -0.3529  0.7960  0.1730
 1639TIP3   OH226331   6.677   4.030   6.081 -1.1220  0.4989  0.0414
 1639TIP3    H126332   6.692   4.093   6.011 -2.6611  0.9480  0.1126
 1639TIP3    H226333   6.618   3.965   6.043 -0.7862 -0.0631  0.4607
 1640TIP3   OH226334   5.901   4.681   5.238  0.7033 -0.0167  0.0817
 1640TIP3    H126335   5.828   4.718   5.189  0.6744 -0.0702  0.0850
 1640TIP3    H226336   5.943   4.621   5.176  0.8385  0.1322  0.0293
 1641TIP3   OH226337   5.290   4.527  15.208  0.5696  0.1896 -0.0332
 1641TIP3    H126338   5.223   4.591  15.182 -1.2570 -0.3502  2.9954
 1641TIP3    H226339   5.267   4.447  15.161 -0.8888  0.0522  0.8639
 1642TIP3   OH226340   6.229   4.995   3.105 -0.0903 -0.3561  0.5055
 1642TIP3    H126341   6.268   4.925   3.157  0.1066 -0.5798  0.0607
 1642TIP3    H226342   6.145   5.013   3.146  0.8910  0.7910  2.0722
 1643TIP3   OH226343   6.527   3.531   3.036  0.2161 -0.6578 -0.0167
 1643TIP3    H126344   6.437   3.499   3.040  0.9178 -2.6556  0.4684
 1643TIP3    H226345   6.549   3.552   3.127  0.1718  0.0411 -0.1657
 1644TIP3   OH226346   3.198   2.190  15.170  0.0280  0.5901 -0.4239
 1644TIP3    H126347   3.256   2.169  15.243 -0.3709  0.1326 -0.2360
 1644TIP3    H226348   3.153   2.269  15.197  1.1098  1.3761 -0.8872
 1645TIP3   OH226349   5.908   3.490  14.229  0.1854 -0.1977  0.0852
 1645TIP3    H126350   5.906   3.466  14.136  0.1914 -2.5122  0.6449
 1645TIP3    H226351   5.934   3.409  14.273 -1.5322  0.3899  2.2446
 1646TIP3   OH226352   4.450   1.161  10.325  0.1389 -0.5495 -0.1654
 1646TIP3    H126353   4.528   1.106  10.319 -0.9216 -2.3308  1.5716
 1646TIP3    H226354   4.459   1.223  10.253  3.3988 -0.3817  0.2998
 1647TIP3   OH226355   1.046   5.872  13.215  0.2150 -0.5841  0.2356
 1647TIP3    H126356   1.084   5.957  13.235 -0.2070  0.0884 -1.7679
 1647TIP3    H226357   1.048   5.866  13.120 -3.0663 -1.2723  0.1453
 1648TIP3   OH226358   6.172   4.443  12.071  0.0620  0.1641 -0.4970
 1648TIP3    H126359   6.104   4.392  12.116 -0.7848  0.7307 -1.1315
 1648TIP3    H226360   6.227   4.376  12.029 -0.5607 -0.2564 -0.6453
 1649TIP3   OH226361   3.445   3.951  14.580 -0.9605  0.3034 -0.4960
 1649TIP3    H126362   3.421   3.863  14.550 -1.8928  0.6233 -0.7150
 1649TIP3    H226363   3.489   3.991  14.505  1.2832 -0.6589  0.2513
 1650TIP3   OH226364   5.197   2.556  10.705 -0.7023 -0.6836  0.2304
 1650TIP3    H126365   5.274   2.559  10.648 -0.2749  0.3938  0.8595
 1650TIP3    H226366   5.131   2.509  10.653 -0.7860  1.5059 -1.7412
 1651TIP3   OH226367   2.883   3.775  11.660 -0.4512  0.6513  0.2466
 1651TIP3    H126368   2.933   3.842  11.612 -0.3963  1.3149  1.2124
 1651TIP3    H226369   2.796   3.778  11.622 -0.4253  1.2244  0.2239
 1652TIP3   OH226370   6.663   5.007   5.638  0.4027 -0.9003 -0.4641
 1652TIP3    H126371   6.631   5.082   5.588  0.9211 -1.1736 -1.2220
 1652TIP3    H226372   6.586   4.972   5.683 -0.2009 -1.0839 -1.6401
 1653TIP3   OH226373   1.142   4.886   1.986 -0.1592  0.2031 -0.1422
 1653TIP3    H126374   1.087   4.809   2.002 -1.0947  0.7392 -0.7297
 1653TIP3    H226375   1.130   4.905   1.893 -0.8983  1.7778  0.2475
 1654TIP3   OH226376   5.487   0.440  16.100 -0.1805  0.2857  0.4837
 1654TIP3    H126377   5.540   0.519  16.087 -0.2795  0.4485  1.0357
 1654TIP3    H226378   5.518   0.405  16.183 -1.3369  0.7051  1.1009
 1655TIP3   OH226379   2.974   2.374  12.903  0.0180 -0.2792  0.5529
 1655TIP3    H126380   2.894   2.414  12.937 -0.2284  1.0532 -1.5233
 1655TIP3    H226381   3.017   2.337  12.981 -0.9104  1.9985  2.1999
 1656TIP3   OH226382   1.287   2.272  12.982 -0.0420 -0.0705  0.4771
 1656TIP3    H126383   1.346   2.306  12.914  0.0325 -0.0717  0.5399
 1656TIP3    H226384   1.303   2.329  13.058 -2.2687  1.8225 -0.4099
 1657TIP3   OH226385   2.258   2.022  16.786 -0.3723 -0.2274  0.5466
 1657TIP3    H126386   2.284   1.931  16.803 -1.4128 -0.6581 -0.1219
 1657TIP3    H226387   2.337   2.063  16.751  0.4132 -0.5851  1.8491
 1658TIP3   OH226388   0.379   6.295   2.405  0.7789  0.2645  0.3896
 1658TIP3    H126389   0.474   6.300   2.403  0.7335  1.2077  0.3303
 1658TIP3    H226390   0.355   6.324   2.493  0.4584  2.0447 -0.2463
 1659TIP3   OH226391   3.691   5.698   4.110 -0.3309 -0.1696  0.0953
 1659TIP3    H126392   3.773   5.676   4.154  0.0374 -1.7520 -1.3268
 1659TIP3    H226393   3.709   5.778   4.062  0.2919 -0.3434  0.0411
 1660TIP3   OH226394   6.305   1.832   3.340 -0.2377 -0.4046 -0.0857
 1660TIP3    H126395   6.290   1.739   3.319 -0.5728 -0.4255  0.2344
 1660TIP3    H226396   6.362   1.864   3.270 -1.3071 -0.4768 -0.9961
 1661TIP3   OH226397   1.905   3.493  15.739  0.0978 -0.5357  0.4167
 1661TIP3    H126398   1.921   3.404  15.771 -0.9711 -0.6685  0.5909
 1661TIP3    H226399   1.841   3.482  15.669  0.6143  0.0140 -0.1571
 1662TIP3   OH226400   2.454   2.238  12.805 -0.1999  0.2248 -0.0809
 1662TIP3    H126401   2.548   2.223  12.796  0.3391  3.0819  0.3530
 1662TIP3    H226402   2.438   2.321  12.760 -2.7175 -0.7372 -1.0560
 1663TIP3   OH226403   3.132   3.955   2.372 -0.1929 -0.0745  0.0930
 1663TIP3    H126404   3.146   3.863   2.395 -1.7791 -0.2151  0.5548
 1663TIP3    H226405   3.209   3.978   2.321 -0.5125 -2.1044 -1.3788
 1664TIP3   OH226406   2.690   5.092   2.323 -0.3439 -0.0011 -0.1414
 1664TIP3    H126407   2.641   5.040   2.259  1.0466  1.1104 -2.1546
 1664TIP3    H226408   2.694   5.180   2.285  3.1962 -0.0647 -0.0694
 1665TIP3   OH226409   0.957   4.849   5.773  0.2132  0.0567  0.3613
 1665TIP3    H126410   0.871   4.830   5.811  0.0158 -0.0186 -0.1197
 1665TIP3    H226411   0.990   4.764   5.743  1.0486 -0.1232  1.7668
 1666TIP3   OH226412   2.053   4.907   5.734 -0.5958 -0.0425 -0.0394
 1666TIP3    H126413   2.056   4.977   5.668  0.4008  1.5850  1.6709
 1666TIP3    H226414   2.135   4.918   5.783 -0.9913 -1.6801  1.0050
 1667TIP3   OH226415   2.489   2.996  11.525 -0.3858 -0.0418  0.0162
 1667TIP3    H126416   2.549   3.045  11.582 -1.2755  1.7102 -0.5259
 1667TIP3    H226417   2.534   2.992  11.441 -0.6000  0.4044 -0.1186
 1668TIP3   OH226418   4.765   3.788  14.094  0.2751 -0.0995 -0.4078
 1668TIP3    H126419   4.821   3.865  14.085  0.4667 -0.4860 -2.8499
 1668TIP3    H226420   4.703   3.794  14.022 -0.9460 -1.2425  0.5126
 1669TIP3   OH226421   4.057   3.154  15.538  0.5226 -0.0912 -0.2393
 1669TIP3    H126422   4.027   3.244  15.541  1.3329  0.1747  0.1744
 1669TIP3    H226423   4.141   3.158  15.492  0.3410 -0.6997 -0.6402
 1670TIP3   OH226424   3.066   2.921   4.682 -0.1768 -0.4259 -0.2946
 1670TIP3    H126425   3.107   2.939   4.598  2.3982  0.7501  1.1574
 1670TIP3    H226426   2.980   2.886   4.660  0.5032 -0.2483 -3.3971
 1671TIP3   OH226427   4.218   3.624   5.003  0.1912  0.2358 -0.0788
 1671TIP3    H126428   4.207   3.576   4.921  1.0658 -0.5211  0.2282
 1671TIP3    H226429   4.139   3.604   5.054  0.9640 -1.6702  0.4229
 1672TIP3   OH226430   3.332   2.556  12.315  0.4628 -0.5587  0.3034
 1672TIP3    H126431   3.316   2.637  12.265 -2.1309 -0.5525  1.0471
 1672TIP3    H226432   3.393   2.506  12.261  0.6788  1.1182 -1.0540
 1673TIP3   OH226433   3.611   2.263   5.549  0.8931  0.2216 -0.2367
 1673TIP3    H126434   3.538   2.211   5.519  2.0453 -1.6292  0.1055
 1673TIP3    H226435   3.572   2.328   5.608 -0.6170  0.1921 -1.1939
 1674TIP3   OH226436   4.891   5.637  13.396 -0.2454 -0.0227 -0.0740
 1674TIP3    H126437   4.811   5.689  13.398 -0.7821 -0.8450  0.3195
 1674TIP3    H226438   4.955   5.693  13.351 -1.7182 -0.3059 -2.6700
 1675TIP3   OH226439   1.683   1.599  15.667  0.1167  0.0445  0.8538
 1675TIP3    H126440   1.718   1.677  15.709  0.1693 -0.4896  1.8099
 1675TIP3    H226441   1.761   1.552  15.636  0.0203  1.1322 -1.1216
 1676TIP3   OH226442   0.779   4.619  15.028 -0.0062  0.5591 -0.3628
 1676TIP3    H126443   0.828   4.625  15.110  1.1408  2.5503 -1.1647
 1676TIP3    H226444   0.795   4.530  14.997  0.9342  0.3429  0.7314
 1677TIP3   OH226445   3.191   0.342  16.571 -0.5179 -0.2600 -0.0245
 1677TIP3    H126446   3.166   0.371  16.659 -0.4215  2.7699 -0.9287
 1677TIP3    H226447   3.107   0.322  16.528 -0.7336  0.6342 -0.0216
 1678TIP3   OH226448   1.172   6.540  17.063  0.4582 -0.2235  0.5426
 1678TIP3    H126449   1.196   6.605  17.129 -0.4262 -0.5943  1.2363
 1678TIP3    H226450   1.099   6.492  17.102 -1.3284  0.7836 -1.4778
 1679TIP3   OH226451   2.007   3.614   6.312 -0.3019 -0.0793 -0.4263
 1679TIP3    H126452   2.090   3.568   6.315 -0.0939  0.3197 -0.0214
 1679TIP3    H226453   1.971   3.604   6.401 -0.6739 -0.2341 -0.5950
 1680TIP3   OH226454   4.478   1.088   4.450  0.0188 -0.0645  0.2585
 1680TIP3    H126455   4.524   1.143   4.515  1.2503 -0.7224 -0.0424
 1680TIP3    H226456   4.408   1.145   4.417 -0.1722  0.5375  1.6203
 1681TIP3   OH226457   4.658   2.151  15.669 -0.3702  0.1172  0.3886
 1681TIP3    H126458   4.627   2.217  15.607  1.0951  0.8651  0.4390
 1681TIP3    H226459   4.659   2.197  15.753 -0.8364 -0.4323  0.6983
 1682TIP3   OH226460   0.609   4.166  15.582 -0.5960 -0.1509  0.9528
 1682TIP3    H126461   0.589   4.115  15.503 -0.6216  0.6879  0.4100
 1682TIP3    H226462   0.547   4.134  15.648 -1.3525 -0.0500  0.2954
 1683TIP3   OH226463   1.865   1.699   6.046 -0.8300  0.3559  0.4710
 1683TIP3    H126464   1.801   1.628   6.043 -0.6519  0.2513 -1.7072
 1683TIP3    H226465   1.950   1.656   6.032 -0.4493  0.6921  1.6857
 1684TIP3   OH226466   4.390   6.299  11.577 -0.1052 -0.1511  0.5624
 1684TIP3    H126467   4.376   6.353  11.499  0.5451 -1.6295 -0.6046
 1684TIP3    H226468   4.389   6.209  11.544  0.1312 -0.7956  2.2758
 1685TIP3   OH226469   0.535   6.542   5.734  0.2165  0.7592 -0.1188
 1685TIP3    H126470   0.539   6.490   5.654  0.6751  2.1747 -1.0514
 1685TIP3    H226471   0.594   6.497   5.795  1.3054  0.6804 -1.2065
 1686TIP3   OH226472   2.503   3.141  13.889 -0.1880  0.0257  0.3529
 1686TIP3    H126473   2.546   3.055  13.892  1.6353  0.8797 -0.4161
 1686TIP3    H226474   2.573   3.203  13.910 -1.0868  1.4363 -0.7669
 1687TIP3   OH226475   4.757   3.037  13.810  0.0108 -0.2011  0.0466
 1687TIP3    H126476   4.852   3.044  13.815  0.0256 -0.8958  0.8100
 1687TIP3    H226477   4.740   3.018  13.717  0.6111 -0.1050 -0.0873
 1688TIP3   OH226478   5.557   6.540  17.213 -0.3408  0.0889  0.1439
 1688TIP3    H126479   5.490   6.546  17.145  0.6523 -0.5628 -0.9210
 1688TIP3    H226480   5.617   6.612  17.194 -1.3264  1.3445  1.7549
 1689TIP3   OH226481   5.817   0.934  16.074  0.2361  0.4080  0.1224
 1689TIP3    H126482   5.791   0.978  16.156 -0.1447  0.2008  0.1141
 1689TIP3    H226483   5.746   0.954  16.013 -0.5587 -1.2383  0.4750
 1690TIP3   OH226484   3.473   5.083  13.538  0.0744 -0.3274  0.3572
 1690TIP3    H126485   3.483   5.004  13.484  3.1099  0.7921 -0.8047
 1690TIP3    H226486   3.493   5.155  13.479  0.9009  1.0975  2.3438
 1691TIP3   OH226487   5.895   0.661  17.157 -0.1322  0.2354 -0.3290
 1691TIP3    H126488   5.827   0.601  17.191 -0.4462  1.9326  2.1429
 1691TIP3    H226489   5.970   0.647  17.215 -0.1401  2.0743  0.1330
 1692TIP3   OH226490   3.051   1.855   4.009 -0.0046  0.1964  0.6156
 1692TIP3    H126491   3.001   1.775   4.025  2.1024 -1.2015  0.4107
 1692TIP3    H226492   3.068   1.891   4.096 -1.5736  0.8509  0.6732
 1693TIP3   OH226493   0.915   3.458  14.954 -0.4898 -0.8294 -0.0693
 1693TIP3    H126494   1.004   3.469  14.988 -0.4862  0.5286 -0.5104
 1693TIP3    H226495   0.898   3.364  14.963  1.3110 -1.2559 -0.7848
 1694TIP3   OH226496   0.305   4.749   3.593 -0.2641 -0.1304  0.4819
 1694TIP3    H126497   0.367   4.810   3.552  0.4689 -1.7091 -0.8364
 1694TIP3    H226498   0.360   4.684   3.635 -1.0381 -0.7282  0.5812
 1695TIP3   OH226499   4.541   2.850  11.279 -0.4400 -0.5548 -0.0776
 1695TIP3    H126500   4.598   2.926  11.264  0.0208 -1.1453 -1.3331
 1695TIP3    H226501   4.457   2.875  11.241 -0.7135 -0.1308  0.7734
 1696TIP3   OH226502   4.776   3.020  14.969 -0.2693 -0.6209  0.0007
 1696TIP3    H126503   4.757   3.017  14.875 -0.6985  0.2065  0.0594
 1696TIP3    H226504   4.696   2.988  15.010  0.2291 -1.8132  0.0551
 1697TIP3   OH226505   2.241   1.590  12.525  0.0688 -0.0419  0.1968
 1697TIP3    H126506   2.156   1.614  12.562 -0.6115  0.4039 -1.5581
 1697TIP3    H226507   2.234   1.496  12.510 -0.4537  0.1323 -0.7206
 1698TIP3   OH226508   3.546   3.741   5.720  0.1115  0.2541 -0.1796
 1698TIP3    H126509   3.538   3.657   5.766  2.3321 -0.2183 -0.6149
 1698TIP3    H226510   3.564   3.717   5.630  2.7993  1.1702  0.0796
 1699TIP3   OH226511   5.973   5.450   3.941 -0.1911  0.4924 -0.6037
 1699TIP3    H126512   5.965   5.543   3.964  0.0133 -0.0949  2.0387
 1699TIP3    H226513   6.038   5.416   4.003  1.2910 -1.0074 -2.8878
 1700TIP3   OH226514   5.689   1.942  11.388  0.6960  1.1536  0.5440
 1700TIP3    H126515   5.603   1.943  11.346  0.8890  0.8915  0.1306
 1700TIP3    H226516   5.680   1.999  11.464 -0.2830 -0.1040  1.3806
 1701TIP3   OH226517   3.577   5.536  13.402 -0.5205  0.0234 -0.0209
 1701TIP3    H126518   3.616   5.546  13.315 -0.0460 -0.5416  0.1257
 1701TIP3    H226519   3.631   5.592  13.458  0.5038 -1.2618  0.3054
 1702TIP3   OH226520   6.343   3.319   3.975 -0.0493 -0.2013 -0.6062
 1702TIP3    H126521   6.352   3.237   4.023  1.2656  0.7699  0.8760
 1702TIP3    H226522   6.429   3.333   3.936  0.0179  0.9170 -0.0802
 1703TIP3   OH226523   4.370   6.479  11.774 -0.2559 -0.5691  0.6042
 1703TIP3    H126524   4.389   6.402  11.720 -1.1661 -0.0450 -0.4931
 1703TIP3    H226525   4.446   6.535  11.764  0.1179 -1.0257  0.8691
 1704TIP3   OH226526   6.280   5.824  13.672  0.1402  0.4842 -0.1240
 1704TIP3    H126527   6.226   5.899  13.648  0.8724  1.0422 -0.0219
 1704TIP3    H226528   6.284   5.771  13.592 -0.5922  0.4204 -0.1196
 1705TIP3   OH226529   0.350   0.998   4.185 -0.4279 -0.4286 -0.2505
 1705TIP3    H126530   0.308   1.084   4.177 -0.9216 -0.6187  0.2971
 1705TIP3    H226531   0.412   1.008   4.258 -1.9746 -1.1243  1.1995
 1706TIP3   OH226532   5.707   1.885   0.558  0.3455 -0.0397  0.1135
 1706TIP3    H126533   5.761   1.808   0.573  1.4566  1.1194  2.2555
 1706TIP3    H226534   5.624   1.865   0.600 -0.7242 -1.5151 -2.5346
 1707TIP3   OH226535   2.881   0.299  16.411  1.0154 -0.3758 -0.2911
 1707TIP3    H126536   2.853   0.249  16.487 -1.4248  0.5936 -0.5183
 1707TIP3    H226537   2.815   0.367  16.401  0.6266 -1.2038 -4.0144
 1708TIP3   OH226538   3.996   0.976   2.220 -0.1762 -0.0103  0.3050
 1708TIP3    H126539   4.069   1.009   2.271 -1.0490 -0.4611  1.8919
 1708TIP3    H226540   3.918   0.997   2.272 -1.0030 -1.4884 -0.2682
 1709TIP3   OH226541   3.388   1.140  10.662  0.3933 -0.0641  0.2465
 1709TIP3    H126542   3.413   1.084  10.735  0.2637  0.5938  0.8060
 1709TIP3    H226543   3.433   1.103  10.586  0.5535 -0.7301  0.6696
 1710TIP3   OH226544   4.630   2.433   3.578  0.2726  0.6194  0.6973
 1710TIP3    H126545   4.603   2.341   3.584 -1.7932  1.2037  1.0074
 1710TIP3    H226546   4.623   2.466   3.668  0.1599  1.2776  0.4537
 1711TIP3   OH226547   0.198   4.000   6.334  0.0681 -0.9969 -0.3481
 1711TIP3    H126548   0.281   4.014   6.289  0.4037  0.4393  0.7127
 1711TIP3    H226549   0.202   4.055   6.411 -1.7897 -1.0730 -0.1672
 1712TIP3   OH226550   1.911   2.106  10.574 -0.2070 -0.2092  0.1845
 1712TIP3    H126551   1.975   2.105  10.503  0.4698  2.6856  0.6837
 1712TIP3    H226552   1.958   2.143  10.648 -1.8544 -0.1002  1.1978
 1713TIP3   OH226553   6.401   6.153   3.858  0.5647  0.2288  0.5317
 1713TIP3    H126554   6.484   6.144   3.812  1.2774 -0.3556  1.9116
 1713TIP3    H226555   6.342   6.091   3.813  1.1311 -0.0173  0.1268
 1714TIP3   OH226556   4.355   5.364  14.104 -0.4295  1.0114 -0.1023
 1714TIP3    H126557   4.398   5.347  14.188 -0.3007  2.3567  0.1269
 1714TIP3    H226558   4.349   5.279  14.062 -1.2353  0.1902  1.6242
 1715TIP3   OH226559   3.451   5.045   1.328  0.9601 -0.7541  0.3783
 1715TIP3    H126560   3.379   5.004   1.279  0.7575 -0.5268  0.4873
 1715TIP3    H226561   3.521   4.979   1.327  1.4729 -0.2112 -1.4510
 1716TIP3   OH226562   2.564   1.567  13.501 -0.1198  0.1310  0.5889
 1716TIP3    H126563   2.636   1.605  13.451 -3.2004  1.0208 -3.3808
 1716TIP3    H226564   2.597   1.480  13.527  3.3125  1.5368  1.2146
 1717TIP3   OH226565   5.173   2.500   5.658 -0.2049  0.0231 -0.3796
 1717TIP3    H126566   5.251   2.541   5.621  0.4198 -2.0212 -1.3790
 1717TIP3    H226567   5.203   2.460   5.739 -0.3189 -0.3859 -0.5407
 1718TIP3   OH226568   0.543   5.122  13.138  0.3146  0.0439  0.0823
 1718TIP3    H126569   0.462   5.072  13.135  0.9900 -1.0798  0.0399
 1718TIP3    H226570   0.581   5.102  13.224  2.2320 -2.2342 -1.2110
 1719TIP3   OH226571   6.563   2.046  16.291  0.1948 -0.3834  0.0934
 1719TIP3    H126572   6.553   2.130  16.246 -1.1356  0.0365  1.1737
 1719TIP3    H226573   6.512   1.984  16.239  0.4050 -0.3446 -0.1629
 1720TIP3   OH226574   4.556   3.028   4.546  0.1112 -0.2822  0.0328
 1720TIP3    H126575   4.593   2.985   4.623 -0.4246 -1.1552 -0.1999
 1720TIP3    H226576   4.567   3.122   4.564 -1.4984 -0.4303  1.9077
 1721TIP3   OH226577   6.290   5.699   3.015  0.4086 -0.0285  0.4680
 1721TIP3    H126578   6.315   5.636   2.947 -0.8228  0.1819 -0.1864
 1721TIP3    H226579   6.372   5.743   3.038  0.6195  0.8953 -1.9125
 1722TIP3   OH226580   5.860   0.173  16.449 -1.0777  0.6142  0.1308
 1722TIP3    H126581   5.765   0.182  16.459 -1.0675  0.2534  0.6324
 1722TIP3    H226582   5.894   0.182  16.538 -0.4574  2.6341 -0.2808
 1723TIP3   OH226583   5.150   6.171  15.725 -0.4105 -0.1220 -0.2153
 1723TIP3    H126584   5.171   6.241  15.787 -2.5742 -0.9108  1.4601
 1723TIP3    H226585   5.183   6.092  15.767  3.2427 -0.0485 -2.7049
 1724TIP3   OH226586   6.157   0.174   4.690 -0.5882 -0.6141 -0.2417
 1724TIP3    H126587   6.154   0.259   4.734  3.1105 -0.7640  0.4756
 1724TIP3    H226588   6.116   0.190   4.604 -1.9480  1.3013  0.7186
 1725TIP3   OH226589   6.723   4.668   1.481  0.4175  0.5121 -0.2458
 1725TIP3    H126590   6.704   4.755   1.519  1.4524  0.3978  0.5673
 1725TIP3    H226591   6.651   4.613   1.512  1.1198  0.4802  1.3828
 1726TIP3   OH226592   2.789   2.956  16.105  0.6873  0.3070  0.2606
 1726TIP3    H126593   2.789   2.893  16.034  0.8691 -2.0250  2.2712
 1726TIP3    H226594   2.711   3.010  16.089  0.1326 -0.8697 -1.0961
 1727TIP3   OH226595   4.116   0.607  15.994  0.1709 -0.1851 -0.5277
 1727TIP3    H126596   4.106   0.645  16.081  0.8411 -1.3571  0.0772
 1727TIP3    H226597   4.201   0.639  15.964  0.5298 -0.8181 -0.2038
 1728TIP3   OH226598   3.811   4.129  13.635  0.5694  0.0878 -0.1801
 1728TIP3    H126599   3.875   4.059  13.642  0.6759  0.2726  0.7450
 1728TIP3    H226600   3.854   4.205  13.675 -0.8641 -0.2176  1.9923
 1729TIP3   OH226601   6.291   0.163   3.294 -1.2228 -0.0354 -0.0886
 1729TIP3    H126602   6.248   0.225   3.235  0.2241 -1.4417 -2.7164
 1729TIP3    H226603   6.277   0.078   3.254  0.4340 -0.9597  1.2046
 1730TIP3   OH226604   4.489   2.340  13.595 -0.2389 -0.3480 -0.1695
 1730TIP3    H126605   4.443   2.264  13.629  0.8929 -0.8407  0.2733
 1730TIP3    H226606   4.574   2.339  13.639 -0.0697  0.9645 -0.4278
 1731TIP3   OH226607   0.543   1.460   3.169 -0.3112 -0.2017  0.1696
 1731TIP3    H126608   0.535   1.364   3.172 -0.2713 -0.2366 -0.7554
 1731TIP3    H226609   0.455   1.491   3.189 -0.6180 -0.4556 -0.7467
 1732TIP3   OH226610   0.411   2.162  16.130 -0.1351 -0.3687  0.3124
 1732TIP3    H126611   0.433   2.224  16.200  0.0723 -0.9896  0.8040
 1732TIP3    H226612   0.421   2.076  16.171 -1.2335 -0.7125 -0.1251
 1733TIP3   OH226613   4.669   5.832  11.116 -0.9633 -0.2233 -0.2131
 1733TIP3    H126614   4.648   5.741  11.137  2.0210 -0.7193  0.8220
 1733TIP3    H226615   4.647   5.881  11.196  0.5036 -0.5476  0.4047
 1734TIP3   OH226616   0.772   6.430   5.436 -0.3628 -0.1740  0.7724
 1734TIP3    H126617   0.793   6.478   5.517  1.7784  0.7908 -0.3186
 1734TIP3    H226618   0.822   6.475   5.368 -2.3798 -0.7992 -1.1703
 1735TIP3   OH226619   6.596   1.002  12.005 -0.4132 -0.2917 -0.5217
 1735TIP3    H126620   6.674   0.958  12.040 -0.6637 -0.7302 -0.5129
 1735TIP3    H226621   6.528   0.985  12.070 -0.1784  1.2224  0.1247
 1736TIP3   OH226622   0.708   3.697   1.304 -0.0611  0.2627  0.1047
 1736TIP3    H126623   0.633   3.644   1.278 -0.3411  0.6814  0.0511
 1736TIP3    H226624   0.682   3.787   1.285 -0.5254  0.6638  2.3922
 1737TIP3   OH226625   3.435   1.838   5.754  0.2442 -0.7511  0.5799
 1737TIP3    H126626   3.362   1.847   5.816 -0.9304  1.0435 -1.0013
 1737TIP3    H226627   3.409   1.766   5.697  0.4027 -1.0997  0.9483
 1738TIP3   OH226628   3.629   4.004   5.617  0.0433  0.0223  0.5766
 1738TIP3    H126629   3.560   3.989   5.682  0.8247 -1.0679  1.1648
 1738TIP3    H226630   3.631   4.099   5.606 -0.2303  0.2106  2.0146
 1739TIP3   OH226631   2.534   3.591   0.785 -0.2006 -0.0268 -0.3063
 1739TIP3    H126632   2.533   3.497   0.804  0.2198 -0.0366 -0.3362
 1739TIP3    H226633   2.516   3.596   0.691 -0.4598 -0.0624 -0.2612
 1740TIP3   OH226634   1.070   3.486  15.383 -0.5161 -0.2832 -0.4014
 1740TIP3    H126635   1.008   3.441  15.440  0.1793 -1.4391 -0.5387
 1740TIP3    H226636   1.098   3.562  15.433 -2.6490  0.7006 -0.6623
 1741TIP3   OH226637   4.631   1.462  15.144 -0.0578 -0.0282 -0.3825
 1741TIP3    H126638   4.596   1.522  15.078  0.5914 -0.0726 -0.7630
 1741TIP3    H226639   4.603   1.500  15.227 -2.2165 -0.8089 -0.7254
 1742TIP3   OH226640   2.144   5.066  12.348  0.3206 -0.0483 -0.0587
 1742TIP3    H126641   2.149   5.045  12.255  1.5779 -0.6831  0.1345
 1742TIP3    H226642   2.190   4.994  12.391 -2.3813 -1.0531  1.2512
 1743TIP3   OH226643   0.237   0.034  11.775  0.2366  0.2255 -0.4090
 1743TIP3    H126644   0.271   0.097  11.712 -0.8960 -0.3550 -1.6471
 1743TIP3    H226645   0.175  -0.019  11.724  0.0722 -0.9266  0.9534
 1744TIP3   OH226646   5.855   0.246  12.573 -0.1304  0.2874  0.4132
 1744TIP3    H126647   5.879   0.153  12.572 -1.2124  0.0062 -1.5100
 1744TIP3    H226648   5.938   0.292  12.586  0.7783 -0.8596 -1.2394
 1745TIP3   OH226649   3.644   3.407  15.664  0.2104 -0.1910  0.9878
 1745TIP3    H126650   3.561   3.446  15.635  0.6550 -1.1041 -1.5762
 1745TIP3    H226651   3.617   3.337  15.723 -0.8855 -0.8962 -0.3214
 1746TIP3   OH226652   5.424   4.986   4.768  0.9142 -0.8930 -0.0659
 1746TIP3    H126653   5.375   5.054   4.815  1.1769 -0.5232 -0.3226
 1746TIP3    H226654   5.398   4.904   4.810  0.2487 -0.6756 -0.0526
 1747TIP3   OH226655   5.914   6.396   5.215 -0.0446  0.4290  0.1303
 1747TIP3    H126656   5.999   6.352   5.207 -1.0852 -1.9544  1.5345
 1747TIP3    H226657   5.935   6.489   5.220  2.7822 -0.2870  3.9438
 1748TIP3   OH226658   4.899   1.489  16.712  0.2922  0.0046 -0.2736
 1748TIP3    H126659   4.857   1.574  16.723 -0.1776 -0.3541  0.8265
 1748TIP3    H226660   4.832   1.434  16.671  0.1307 -0.2013  0.2590
 1749TIP3   OH226661   2.765   5.219   3.582 -0.0407  0.6625  0.0754
 1749TIP3    H126662   2.829   5.148   3.589 -0.2222  0.3335 -1.4023
 1749TIP3    H226663   2.818   5.298   3.575  0.1876  0.5191  0.1630
 1750TIP3   OH226664   0.657   5.737   1.044  0.2844  0.5124  0.2998
 1750TIP3    H126665   0.722   5.693   0.989  0.8113  1.4690  0.1480
 1750TIP3    H226666   0.708   5.791   1.103 -0.4066  2.5498 -0.9107
 1751TIP3   OH226667   3.214   5.258  15.169 -0.2063  0.1139  0.0473
 1751TIP3    H126668   3.270   5.251  15.247 -1.1900 -0.9524  0.6778
 1751TIP3    H226669   3.244   5.188  15.111 -0.4527 -0.0441  0.1088
 1752TIP3   OH226670   0.885   2.278  16.888 -0.2638  0.3500  0.4538
 1752TIP3    H126671   0.847   2.239  16.967 -0.3352 -0.0291  0.2345
 1752TIP3    H226672   0.953   2.337  16.920  0.2880 -0.4508  0.7572
 1753TIP3   OH226673   0.641   6.492  11.218  0.4666 -0.4054 -0.0549
 1753TIP3    H126674   0.652   6.397  11.220 -1.9572 -0.7356 -1.0744
 1753TIP3    H226675   0.668   6.517  11.129  0.7879 -0.1787  0.1067
 1754TIP3   OH226676   0.265   3.000  14.007 -0.3557 -0.4331  0.4472
 1754TIP3    H126677   0.230   2.912  14.020  0.4542 -0.9398 -0.7567
 1754TIP3    H226678   0.218   3.033  13.931 -0.3992  0.0454  0.6817
 1755TIP3   OH226679   0.658   0.364  16.150 -0.3000 -0.2553  0.4286
 1755TIP3    H126680   0.698   0.343  16.235  0.6525  0.0144  0.0480
 1755TIP3    H226681   0.658   0.281  16.102  3.6511  0.5356 -1.1531
 1756TIP3   OH226682   0.482   4.689   1.306 -0.3579  0.2495  0.5218
 1756TIP3    H126683   0.506   4.781   1.294 -0.9298  0.0429 -2.5449
 1756TIP3    H226684   0.534   4.660   1.382  1.2311  2.5765  0.3685
 1757TIP3   OH226685   2.841   6.048  14.405 -0.5252  0.2185 -0.2810
 1757TIP3    H126686   2.783   5.979  14.437  1.7112 -0.7930  1.6735
 1757TIP3    H226687   2.829   6.120  14.467  0.6518 -0.1646  0.3945
 1758TIP3   OH226688   0.363   3.713  13.945  0.1090 -0.1449 -0.0111
 1758TIP3    H126689   0.448   3.669  13.940  1.2392  2.0112 -0.2674
 1758TIP3    H226690   0.342   3.717  14.038  0.0400 -1.0954  0.0215
 1759TIP3   OH226691   0.901   0.588   4.262  0.0714  0.4070  0.1852
 1759TIP3    H126692   0.961   0.614   4.332  1.0197  0.2751 -0.5626
 1759TIP3    H226693   0.817   0.574   4.306  1.1690 -1.8715  1.6719
 1760TIP3   OH226694   5.641   4.460  11.359 -1.0609 -0.2198  0.2949
 1760TIP3    H126695   5.606   4.548  11.368 -0.4091  0.2738 -1.6784
 1760TIP3    H226696   5.574   4.412  11.310 -0.4180 -0.1442 -0.6925
 1761TIP3   OH226697   4.868   4.098  17.170 -0.4162  0.2141 -0.6303
 1761TIP3    H126698   4.923   4.143  17.105  0.7238  1.4808  1.1342
 1761TIP3    H226699   4.873   4.154  17.248 -3.6242 -0.0643 -0.1670
 1762TIP3   OH226700   0.108   4.189   2.789  0.4536  1.4626 -0.3080
 1762TIP3    H126701   0.047   4.128   2.832 -0.1296  1.8275 -0.6067
 1762TIP3    H226702   0.051   4.256   2.751  0.8968  0.7985 -2.2092
 1763TIP3   OH226703   4.890   3.861  13.692 -0.4051  0.2573  0.2649
 1763TIP3    H126704   4.910   3.951  13.718 -0.8601  0.7295 -1.0341
 1763TIP3    H226705   4.804   3.844  13.731  0.1646 -0.0149  1.4526
 1764TIP3   OH226706   4.992   1.009   5.076  0.2881 -0.4783 -0.2804
 1764TIP3    H126707   4.909   0.961   5.073  0.0670 -0.2528  1.8280
 1764TIP3    H226708   4.974   1.091   5.030 -0.1941 -1.0828 -1.2027
 1765TIP3   OH226709   2.329   5.423  11.837  0.3719 -0.1886 -0.5125
 1765TIP3    H126710   2.365   5.353  11.891  1.6850  0.1277 -0.9480
 1765TIP3    H226711   2.235   5.419  11.851  0.4613 -1.8804 -0.3548
 1766TIP3   OH226712   5.386   6.434  12.336 -0.6741 -0.6143 -0.1327
 1766TIP3    H126713   5.406   6.520  12.371 -0.9347 -0.4995 -0.2613
 1766TIP3    H226714   5.438   6.373  12.388 -1.1626 -0.4599  0.5419
 1767TIP3   OH226715   2.989   0.641   3.796 -0.0005  0.4612  0.5283
 1767TIP3    H126716   3.002   0.548   3.816  3.0067  0.5067 -1.0646
 1767TIP3    H226717   2.933   0.641   3.718  0.1908 -0.0269  0.3896
 1768TIP3   OH226718   0.200   4.675   1.169 -0.6475 -0.2143 -0.0250
 1768TIP3    H126719   0.171   4.584   1.163 -1.2085 -0.2643  2.7856
 1768TIP3    H226720   0.269   4.674   1.234  0.3219  1.1842 -1.0071
 1769TIP3   OH226721   3.201   2.076  13.698 -0.3524 -0.4028 -0.5407
 1769TIP3    H126722   3.228   2.144  13.759 -0.2921 -1.8072  1.0222
 1769TIP3    H226723   3.112   2.100  13.673 -0.9460 -0.6586  1.3108
 1770TIP3   OH226724   6.361   4.878   0.090  0.0027 -0.1638  0.0148
 1770TIP3    H126725   6.443   4.903   0.133  0.7175 -1.0757 -0.7974
 1770TIP3    H226726   6.349   4.786   0.112 -1.0180  0.0522  0.4333
 1771TIP3   OH226727   6.340   6.174  11.875 -0.2352 -0.4998  0.4497
 1771TIP3    H126728   6.421   6.174  11.823  1.4529 -1.0608  2.9697
 1771TIP3    H226729   6.272   6.204  11.814  2.1914  1.8207 -1.2529
 1772TIP3   OH226730   1.748   2.662   1.436  0.2162  0.5073 -0.5221
 1772TIP3    H126731   1.672   2.649   1.380  0.3207 -0.9468 -0.3365
 1772TIP3    H226732   1.742   2.754   1.464 -0.9494  0.6607 -1.2545
 1773TIP3   OH226733   0.035   5.745   2.647  0.2012  0.0133 -0.1090
 1773TIP3    H126734  -0.002   5.744   2.736  0.7678 -0.4987  0.1211
 1773TIP3    H226735   0.025   5.836   2.619  3.1356  0.9815  1.7912
 1774TIP3   OH226736   3.692   0.169  16.775 -0.4423 -0.5130 -0.4795
 1774TIP3    H126737   3.762   0.215  16.822 -1.7001 -0.0334  0.9285
 1774TIP3    H226738   3.727   0.081  16.761  1.2728  0.3152 -1.6204
 1775TIP3   OH226739   4.188   0.772   2.111 -0.2902 -0.2156  0.2222
 1775TIP3    H126740   4.131   0.700   2.082  0.0304 -0.1946 -0.4677
 1775TIP3    H226741   4.127   0.837   2.146 -0.6841 -0.2787 -0.3320
 1776TIP3   OH226742   5.379   3.054   5.016 -0.1238 -0.0632  0.6788
 1776TIP3    H126743   5.475   3.053   5.008 -0.2196 -0.4259 -0.5273
 1776TIP3    H226744   5.356   2.962   5.029 -0.4778 -0.2955 -1.3876
 1777TIP3   OH226745   6.247   4.467  13.943  0.0401  0.0374  0.5587
 1777TIP3    H126746   6.243   4.427  13.856 -1.2504 -0.6919  0.9344
 1777TIP3    H226747   6.338   4.495  13.953  0.6544 -1.6254 -0.2490
 1778TIP3   OH226748   3.462   6.266   2.653  0.6303  0.6213  0.1793
 1778TIP3    H126749   3.395   6.213   2.696  0.1660  0.3458 -0.8536
 1778TIP3    H226750   3.532   6.204   2.632  1.2682  0.9248  1.3372
 1779TIP3   OH226751   3.966   0.553   3.933 -0.5511 -0.1733  0.0473
 1779TIP3    H126752   3.908   0.481   3.959  1.0625 -0.9821  1.5436
 1779TIP3    H226753   3.993   0.593   4.016  1.3213 -0.0757 -0.5817
 1780TIP3   OH226754   3.829   0.018   3.730 -0.1382 -0.2698  0.5080
 1780TIP3    H126755   3.787  -0.036   3.797 -1.6030 -0.6706 -0.6878
 1780TIP3    H226756   3.757   0.043   3.672  0.6240  2.5090  0.7310
 1781TIP3   OH226757   4.336   4.064   2.397 -0.6401 -0.1788 -0.0583
 1781TIP3    H126758   4.284   4.012   2.335  0.3223 -0.4510 -0.6504
 1781TIP3    H226759   4.390   4.000   2.443  0.8553  0.3069 -1.0820
 1782TIP3   OH226760   4.741   4.571   5.363  0.0506 -0.2818 -0.0275
 1782TIP3    H126761   4.736   4.543   5.455  1.5389 -0.1154  0.1201
 1782TIP3    H226762   4.673   4.638   5.355  0.0008 -0.2037  0.9826
 1783TIP3   OH226763   2.111   1.101   5.586  0.4056 -0.6997 -0.0221
 1783TIP3    H126764   2.113   1.162   5.660 -1.2370 -0.3155 -0.2631
 1783TIP3    H226765   2.202   1.092   5.560  0.7708  0.9571  0.6029
 1784TIP3   OH226766   2.143   4.892   4.556 -0.0214 -0.3694 -0.1560
 1784TIP3    H126767   2.096   4.822   4.511  1.4854  0.1636 -2.6081
 1784TIP3    H226768   2.215   4.915   4.498  1.5984  0.8264  2.2160
 1785TIP3   OH226769   1.318   1.748   5.437 -0.3475 -0.0326  0.5931
 1785TIP3    H126770   1.255   1.745   5.509  0.5690 -1.6716  1.3397
 1785TIP3    H226771   1.403   1.731   5.478  0.4781  1.2016 -0.5566
 1786TIP3   OH226772   3.028   2.539   5.290 -0.1527 -0.3951 -0.1973
 1786TIP3    H126773   3.007   2.617   5.239  0.6791  0.7538  1.1639
 1786TIP3    H226774   2.984   2.553   5.374  2.4899  0.0659  1.1612
 1787TIP3   OH226775   2.667   5.697   3.898  0.5626  0.8634  0.5628
 1787TIP3    H126776   2.580   5.663   3.919  0.6310 -1.0624 -1.9469
 1787TIP3    H226777   2.720   5.678   3.975 -0.8662  0.6365  1.4999
 1788TIP3   OH226778   5.887   6.441   1.046 -0.2292  0.2189  0.4323
 1788TIP3    H126779   5.982   6.440   1.043 -0.2787 -1.8762 -2.3024
 1788TIP3    H226780   5.862   6.512   0.986 -0.3849 -1.0429 -1.0377
 1789TIP3   OH226781   1.613   2.501   6.253  0.5783  0.2213 -0.5258
 1789TIP3    H126782   1.671   2.511   6.328 -0.1621  1.7497 -0.1304
 1789TIP3    H226783   1.542   2.563   6.269 -0.5954 -0.8147 -1.5387
 1790TIP3   OH226784   0.734   3.156  12.228  0.6859  0.3636  0.5206
 1790TIP3    H126785   0.823   3.166  12.193  0.7389 -0.8466  0.3112
 1790TIP3    H226786   0.706   3.246  12.247  0.7202  1.0684 -2.4862
 1791TIP3   OH226787   4.373   3.821  15.713 -0.3775  0.4063  0.1016
 1791TIP3    H126788   4.286   3.829  15.675 -0.5501  1.3081  0.6666
 1791TIP3    H226789   4.426   3.781  15.644 -1.2577 -0.2178 -0.2121
 1792TIP3   OH226790   6.195   0.741   1.160 -0.0879  0.4102  0.4632
 1792TIP3    H126791   6.200   0.828   1.119  0.1277  0.4735  0.6212
 1792TIP3    H226792   6.196   0.759   1.254 -0.5330  0.2623  0.4973
 1793TIP3   OH226793   5.823   1.251  14.313 -0.3326 -0.4419 -0.6153
 1793TIP3    H126794   5.915   1.228  14.325 -1.0746 -2.8757  0.9571
 1793TIP3    H226795   5.824   1.338  14.275  2.5964  0.5340  1.5131
 1794TIP3   OH226796   4.419   2.138   0.396  0.2127  0.0622 -0.0211
 1794TIP3    H126797   4.376   2.063   0.356  0.6280 -0.6270  0.8076
 1794TIP3    H226798   4.508   2.136   0.361 -0.0001  0.6552 -0.6256
 1795TIP3   OH226799   6.623   4.600  12.061  0.4117 -0.0787  0.2926
 1795TIP3    H126800   6.540   4.638  12.089  1.8532  3.2380  0.2666
 1795TIP3    H226801   6.666   4.573  12.142  0.1725 -0.0118  0.4435
 1796TIP3   OH226802   6.699   2.856  16.019 -0.3002  0.2376 -0.0640
 1796TIP3    H126803   6.692   2.827  16.110  1.3255 -0.3555 -0.1238
 1796TIP3    H226804   6.684   2.776  15.967 -0.4732  0.4264 -0.3102
 1797TIP3   OH226805   4.429   3.058  16.298  0.1878 -0.4309  0.4170
 1797TIP3    H126806   4.403   3.145  16.328 -0.9934 -0.9761  1.0221
 1797TIP3    H226807   4.492   3.028  16.364 -1.1353 -0.9475  1.4578
 1798TIP3   OH226808   5.163   0.697  10.898  0.3601  0.2453 -0.7341
 1798TIP3    H126809   5.217   0.624  10.867  0.7285 -0.0533  0.5921
 1798TIP3    H226810   5.212   0.775  10.873  1.7694 -0.0277  1.0417
 1799TIP3   OH226811   4.153   2.806  14.149 -0.7781  0.3423  0.2044
 1799TIP3    H126812   4.187   2.872  14.210 -1.0713 -0.6068  1.4263
 1799TIP3    H226813   4.059   2.821  14.148 -0.9286 -0.4970  1.0344
 1800TIP3   OH226814   6.156   5.522   4.723 -0.1402  0.1712  0.2864
 1800TIP3    H126815   6.097   5.481   4.787 -0.0644 -1.4168 -0.6548
 1800TIP3    H226816   6.119   5.609   4.710 -0.9069  0.0494  1.5037
 1801TIP3   OH226817   3.196   5.250  16.290 -0.4991 -0.2769 -0.3326
 1801TIP3    H126818   3.149   5.221  16.368 -0.3185 -0.5607 -0.3287
 1801TIP3    H226819   3.236   5.171  16.255 -0.8734 -0.2103 -0.9106
 1802TIP3   OH226820   5.800   2.060  16.522  0.1607 -0.3958  0.0973
 1802TIP3    H126821   5.854   2.069  16.600  0.4233 -1.3500  0.0345
 1802TIP3    H226822   5.737   1.991  16.544 -0.2878 -0.0954 -0.2439
 1803TIP3   OH226823   2.263   2.697  11.581  0.1824  0.1372  0.3640
 1803TIP3    H126824   2.337   2.637  11.584  0.1220  0.0260 -0.2841
 1803TIP3    H226825   2.186   2.640  11.577 -0.1252  0.2042  4.0798
 1804TIP3   OH226826   4.191   2.276  14.120 -0.2511  0.4696 -0.0739
 1804TIP3    H126827   4.274   2.322  14.113  0.0204 -0.1259 -0.8402
 1804TIP3    H226828   4.162   2.263  14.030  0.3705 -2.0744  0.0577
 1805TIP3   OH226829   6.269   1.204   3.228 -0.3208 -0.9151  0.0133
 1805TIP3    H126830   6.215   1.192   3.150  1.4460 -1.9188 -1.0788
 1805TIP3    H226831   6.319   1.123   3.235  0.1621 -0.4863  1.7130
 1806TIP3   OH226832   5.221   1.123  12.122  0.0600 -0.0925  0.2427
 1806TIP3    H126833   5.185   1.200  12.078  0.3059 -1.4493 -2.4439
 1806TIP3    H226834   5.313   1.122  12.096 -0.1621 -1.7816 -0.5213
 1807TIP3   OH226835   2.818   4.707   2.399 -0.3845 -0.2291 -0.0736
 1807TIP3    H126836   2.729   4.693   2.432 -1.1417  0.7597 -1.6465
 1807TIP3    H226837   2.817   4.668   2.311  0.2082  1.3467 -0.7979
 1808TIP3   OH226838   4.421   6.122  16.506 -0.0313  0.5168  0.5145
 1808TIP3    H126839   4.396   6.048  16.451 -2.2300  2.2364 -0.8549
 1808TIP3    H226840   4.501   6.156  16.465 -1.3001  1.4033 -1.2651
 1809TIP3   OH226841   4.042   5.444  16.874  0.2340  0.0860 -0.0247
 1809TIP3    H126842   4.035   5.509  16.944  3.1859  1.1192 -0.6106
 1809TIP3    H226843   4.082   5.491  16.801 -3.1755 -0.8637 -2.6325
 1810TIP3   OH226844   0.806   1.304   4.903  0.4450  0.4578  0.1317
 1810TIP3    H126845   0.821   1.366   4.974 -1.8441  3.3270 -1.7851
 1810TIP3    H226846   0.874   1.324   4.838  1.2315 -0.7424  0.5661
 1811TIP3   OH226847   3.019   3.202  13.733 -0.0884 -0.3726 -0.5046
 1811TIP3    H126848   2.933   3.199  13.692 -0.2206 -0.3620 -0.2288
 1811TIP3    H226849   3.064   3.124  13.700  0.1680  0.1687 -1.4588
 1812TIP3   OH226850   5.176   1.075  16.193 -0.3943  0.4066 -0.0685
 1812TIP3    H126851   5.169   1.116  16.279 -0.6632  0.7481 -0.2518
 1812TIP3    H226852   5.261   1.102  16.159  0.2964 -0.8134  0.6477
 1813TIP3   OH226853   2.081   3.445   3.061  0.0405  0.0363 -0.2403
 1813TIP3    H126854   2.135   3.480   2.990 -1.0699  1.7314 -0.2769
 1813TIP3    H226855   1.993   3.477   3.043 -0.4844 -0.5213  1.2504
 1814TIP3   OH226856   0.259   5.734  15.687  0.0167  0.0376  0.0742
 1814TIP3    H126857   0.323   5.669  15.715 -1.2497 -0.8978  0.8720
 1814TIP3    H226858   0.209   5.690  15.618 -0.1479  0.5401 -0.1251
 1815TIP3   OH226859   0.666   2.840   0.888 -0.1091 -0.0139  0.7252
 1815TIP3    H126860   0.647   2.787   0.966 -1.6447 -0.1896  0.2437
 1815TIP3    H226861   0.647   2.930   0.916 -0.4091 -0.0494  0.6425
 1816TIP3   OH226862   6.685   3.392   0.268 -0.0287  0.5294  0.5596
 1816TIP3    H126863   6.739   3.404   0.190 -0.2206  0.8832  0.4809
 1816TIP3    H226864   6.611   3.452   0.256  0.4114  1.2608  1.4413
 1817TIP3   OH226865   1.115   6.769  13.550  0.0914  0.1274  0.5682
 1817TIP3    H126866   1.149   6.847  13.505  0.0078 -0.1313  0.0490
 1817TIP3    H226867   1.187   6.739  13.605  0.5256 -0.1199 -0.1332
 1818TIP3   OH226868   6.120   2.190   1.553 -0.1482 -0.5487  0.3592
 1818TIP3    H126869   6.174   2.111   1.555  0.5675 -0.1206 -1.0755
 1818TIP3    H226870   6.168   2.252   1.608 -0.2070 -0.8134  0.7073
 1819TIP3   OH226871   5.433   2.700   4.447 -0.1169  0.2743  0.5456
 1819TIP3    H126872   5.371   2.719   4.517  0.9058  1.9559  1.0222
 1819TIP3    H226873   5.419   2.769   4.382 -1.4588 -1.5961 -1.2344
 1820TIP3   OH226874   4.039   5.601  14.776  0.3081  0.0344  0.4472
 1820TIP3    H126875   4.044   5.574  14.685 -1.6886  1.0182  0.0281
 1820TIP3    H226876   4.059   5.695  14.774 -1.2404  0.3827  0.8233
 1821TIP3   OH226877   0.693   2.210  11.737 -0.0110 -0.3718 -0.3025
 1821TIP3    H126878   0.702   2.303  11.720 -0.0554 -0.1760  0.7007
 1821TIP3    H226879   0.761   2.169  11.684  1.2114  0.3904  0.6524
 1822TIP3   OH226880   2.950   3.817   2.156 -0.3161  0.2149 -0.4848
 1822TIP3    H126881   2.923   3.908   2.168 -1.1050  0.2061 -2.0971
 1822TIP3    H226882   3.034   3.822   2.110  0.3634  0.1429  0.7183
 1823TIP3   OH226883   1.592   4.283   6.446  0.2388 -0.0248 -0.3712
 1823TIP3    H126884   1.521   4.225   6.418  0.2619 -0.1659 -0.1353
 1823TIP3    H226885   1.670   4.227   6.448  0.7608  0.5886 -2.6083
 1824TIP3   OH226886   0.422   6.521  16.241  0.0705 -0.2297 -0.1626
 1824TIP3    H126887   0.336   6.479  16.241  0.1092 -0.3060 -0.5795
 1824TIP3    H226888   0.406   6.609  16.206  0.0146  0.0555  0.5684
 1825TIP3   OH226889   1.966   3.595  16.344  0.2460  0.1177 -0.5052
 1825TIP3    H126890   1.926   3.678  16.371 -0.3484 -0.1147 -0.6689
 1825TIP3    H226891   1.913   3.566  16.270 -0.0276 -0.8028  0.0497
 1826TIP3   OH226892   0.964   2.213  14.372  0.1133  0.2487  0.6349
 1826TIP3    H126893   0.970   2.306  14.394  1.5283 -0.1182  1.9564
 1826TIP3    H226894   0.880   2.185  14.408 -0.1271  0.9237  0.6023
 1827TIP3   OH226895   3.966   1.549  13.443  0.1559 -0.3400  0.0332
 1827TIP3    H126896   3.903   1.558  13.515 -1.7854  0.9098 -1.7269
 1827TIP3    H226897   4.035   1.612  13.463 -0.4645  0.1284  0.7197
 1828TIP3   OH226898   6.343   5.040  16.204  0.1378  0.0318 -0.3910
 1828TIP3    H126899   6.402   5.112  16.180 -0.1916  0.2512 -0.5493
 1828TIP3    H226900   6.355   4.976  16.133  1.6227 -0.7858  0.5796
 1829TIP3   OH226901   1.789   1.153   0.730  0.1431  0.5343  0.3123
 1829TIP3    H126902   1.769   1.244   0.750  1.1845  0.8037  0.1572
 1829TIP3    H226903   1.796   1.150   0.634 -0.7099  0.1169  0.2601
 1830TIP3   OH226904   2.048   5.934  11.659  0.5412  0.2117  0.4891
 1830TIP3    H126905   2.045   6.001  11.590 -2.0698  3.5240  3.5948
 1830TIP3    H226906   2.123   5.959  11.712  0.7571 -0.5348  0.5303
 1831TIP3   OH226907   1.295   1.993  16.219  0.4189 -0.8729 -0.4533
 1831TIP3    H126908   1.346   1.950  16.151  0.4893 -0.4295 -0.6836
 1831TIP3    H226909   1.275   2.080  16.183  3.4170  0.6941  1.4632
 1832TIP3   OH226910   0.144   2.365   4.548  0.2553 -0.1800 -0.2342
 1832TIP3    H126911   0.184   2.318   4.475  0.2171 -1.4530  0.5522
 1832TIP3    H226912   0.126   2.452   4.513  1.4911 -0.3410 -1.3326
 1833TIP3   OH226913   2.182   1.736   3.411 -0.3000  0.0405 -0.0529
 1833TIP3    H126914   2.237   1.691   3.475 -0.3058 -0.0415 -0.1056
 1833TIP3    H226915   2.201   1.829   3.424  0.4384 -0.0361 -0.6158
 1834TIP3   OH226916   5.893   6.690   0.844  0.4010 -0.0231  0.1117
 1834TIP3    H126917   5.822   6.711   0.784  0.5647 -0.7084 -0.3241
 1834TIP3    H226918   5.910   6.772   0.891  0.3987  0.5588 -0.9032
 1835TIP3   OH226919   0.643   3.507  13.371  0.5208 -0.0438 -0.4541
 1835TIP3    H126920   0.729   3.485  13.334  0.3527  0.0236 -0.8915
 1835TIP3    H226921   0.630   3.442  13.441  0.8005 -0.2373 -0.5798
 1836TIP3   OH226922   4.524   5.680   2.414 -0.3782  0.0166 -0.4721
 1836TIP3    H126923   4.525   5.665   2.508  0.8250  2.2838 -0.0704
 1836TIP3    H226924   4.581   5.612   2.378  1.0449  0.5439  0.7186
 1837TIP3   OH226925   5.028   3.565   4.315  0.7769 -0.4035  0.1633
 1837TIP3    H126926   4.998   3.480   4.347  0.0815  0.1237  0.9728
 1837TIP3    H226927   5.117   3.550   4.284  0.3023 -1.6291 -0.6004
 1838TIP3   OH226928   0.066   1.004  16.114  0.4377  0.3312 -0.4891
 1838TIP3    H126929   0.031   1.003  16.203  1.0132  0.3529 -0.2578
 1838TIP3    H226930   0.045   1.091  16.081  0.1339  0.2887 -0.4152
 1839TIP3   OH226931   1.174   3.788  15.151  0.7225 -0.5266  0.2751
 1839TIP3    H126932   1.186   3.696  15.129  1.1864 -0.2046 -0.8608
 1839TIP3    H226933   1.088   3.811  15.114  1.5462  0.0407 -1.3685
 1840TIP3   OH226934   4.795   2.218  15.034  0.5600 -0.3683 -0.6452
 1840TIP3    H126935   4.826   2.305  15.008 -0.6836  0.9452  2.1008
 1840TIP3    H226936   4.701   2.219  15.014  0.3352 -0.6795  0.3730
 1841TIP3   OH226937   1.608   2.041  10.634 -0.5796 -0.1551 -0.5836
 1841TIP3    H126938   1.687   2.087  10.607 -0.8086  0.1697 -0.6930
 1841TIP3    H226939   1.634   1.995  10.714 -0.5330  0.6925 -0.1031
 1842TIP3   OH226940   0.006   6.237  16.843  1.0590  0.4393 -0.0827
 1842TIP3    H126941   0.074   6.193  16.793 -0.0931  1.0991 -2.3175
 1842TIP3    H226942   0.048   6.317  16.876  1.5240  0.5509 -0.9453
 1843TIP3   OH226943   6.738   0.500   3.360  0.0993  0.0208  0.0282
 1843TIP3    H126944   6.690   0.472   3.438 -0.4437  0.3701 -0.1763
 1843TIP3    H226945   6.758   0.592   3.376  1.8222 -0.4493  0.6685
 1844TIP3   OH226946   6.060   2.798  13.339 -0.1079  0.3202 -0.1829
 1844TIP3    H126947   6.021   2.809  13.426  0.2252 -0.5044  0.0727
 1844TIP3    H226948   6.049   2.705  13.319  1.2395  0.1864 -0.3388
 1845TIP3   OH226949   5.558   3.434  12.301 -1.1576 -0.2921  0.0180
 1845TIP3    H126950   5.612   3.355  12.308 -0.6526  0.0100 -0.3883
 1845TIP3    H226951   5.582   3.486  12.377  2.0997  1.6385 -2.2242
 1846TIP3   OH226952   5.475   3.085  13.214 -0.4937 -0.3070 -0.1632
 1846TIP3    H126953   5.535   3.052  13.280 -0.2643  1.8191  0.7188
 1846TIP3    H226954   5.515   3.166  13.182 -2.1066  0.3184 -0.6859
 1847TIP3   OH226955   0.078   0.821  14.302  0.0134  0.6747 -0.6137
 1847TIP3    H126956   0.044   0.879  14.370  1.1444  0.7078 -0.0698
 1847TIP3    H226957   0.045   0.858  14.220  0.1189  1.6660 -0.2144
 1848TIP3   OH226958   3.533   1.317   2.213 -0.2947 -0.1469 -0.5117
 1848TIP3    H126959   3.472   1.341   2.143  0.4404 -0.6418 -1.3331
 1848TIP3    H226960   3.477   1.298   2.289 -1.2360 -1.6444 -1.5524
 1849TIP3   OH226961   5.646   6.386  11.720 -0.1749  0.8130  0.2003
 1849TIP3    H126962   5.610   6.315  11.666 -0.0678  1.0264 -0.1532
 1849TIP3    H226963   5.606   6.373  11.806  0.6658 -0.3002  0.4211
 1850TIP3   OH226964   4.349   3.374   6.376 -0.5033 -0.4665  0.4538
 1850TIP3    H126965   4.257   3.400   6.371 -0.5055 -0.0725  2.1475
 1850TIP3    H226966   4.398   3.453   6.351 -0.5693  0.4896  3.1532
 1851TIP3   OH226967   0.754   5.162  15.406  0.1387 -0.3708 -0.4094
 1851TIP3    H126968   0.778   5.070  15.409 -0.4003 -0.4895  0.5668
 1851TIP3    H226969   0.837   5.209  15.417  0.0201 -0.7691  2.5414
 1852TIP3   OH226970   0.576   5.063   3.647  0.5273  0.3220  0.0122
 1852TIP3    H126971   0.481   5.058   3.659  0.5410 -1.6076 -0.5332
 1852TIP3    H226972   0.610   4.987   3.694  2.0291  2.2243  2.1348
 1853TIP3   OH226973   4.514   6.388   5.118  0.5361  0.5160 -0.0307
 1853TIP3    H126974   4.489   6.303   5.155  1.1202  0.0903 -0.6152
 1853TIP3    H226975   4.582   6.368   5.054  1.6882  1.5806  0.8325
 1854TIP3   OH226976   3.912   5.635   6.326  0.6573 -0.2236  0.1575
 1854TIP3    H126977   3.827   5.654   6.367  1.5163  0.5395  1.5897
 1854TIP3    H226978   3.947   5.721   6.303  1.9560 -0.3984  1.4328
 1855TIP3   OH226979   6.541   0.915  11.231 -0.2816  1.0967 -0.4023
 1855TIP3    H126980   6.462   0.880  11.189 -0.6264  1.0189  0.2926
 1855TIP3    H226981   6.537   0.881  11.321  0.0266  1.9047 -0.0780
 1856TIP3   OH226982   0.056   3.430  12.255  0.4362 -0.4112  0.5304
 1856TIP3    H126983  -0.034   3.398  12.258  0.7194 -1.1781  0.9816
 1856TIP3    H226984   0.109   3.355  12.279  1.2588 -0.2034 -0.5788
 1857TIP3   OH226985   4.706   1.273  16.880 -0.0792 -0.2975 -0.6761
 1857TIP3    H126986   4.725   1.198  16.936  0.3228 -0.1433 -0.6027
 1857TIP3    H226987   4.737   1.349  16.930  1.7962 -0.2870 -1.7817
 1858TIP3   OH226988   4.762   6.143  12.378  0.3932 -0.0718 -0.2888
 1858TIP3    H126989   4.770   6.211  12.312  1.2561  0.8600  0.7730
 1858TIP3    H226990   4.759   6.190  12.462 -0.7027 -1.2356  0.3421
 1859TIP3   OH226991   3.511   4.302   5.488 -0.0594  0.2713  0.3541
 1859TIP3    H126992   3.472   4.246   5.421 -2.0715  1.6386  0.3236
 1859TIP3    H226993   3.545   4.378   5.440  1.0224 -0.0640  0.5832
 1860TIP3   OH226994   1.279   2.331  11.421 -0.4635 -0.6372 -0.6219
 1860TIP3    H126995   1.209   2.290  11.370 -1.4022 -1.1603  1.0521
 1860TIP3    H226996   1.304   2.264  11.485 -2.6099  1.6361  2.7150
 1861TIP3   OH226997   5.796   2.735   2.932 -0.2129 -0.6503  0.3501
 1861TIP3    H126998   5.764   2.741   3.022  1.8902 -2.3335  1.2627
 1861TIP3    H226999   5.775   2.645   2.906  0.3026 -0.5574 -0.3969
 1862TIP3   OH227000   2.853   3.160  12.150  0.8724 -0.4395  0.0940
 1862TIP3    H127001   2.782   3.221  12.132 -0.4927 -1.5765  1.5378
 1862TIP3    H227002   2.813   3.074  12.145  2.4031 -1.1559 -0.1856
 1863TIP3   OH227003   0.529   5.971   5.587  0.0230  0.1280 -0.0307
 1863TIP3    H127004   0.535   5.925   5.671 -1.9838  1.9573  1.1728
 1863TIP3    H227005   0.531   6.064   5.610 -3.7094  0.7017 -1.6851
 1864TIP3   OH227006   4.773   5.599   6.605  0.1233  0.4708 -0.1733
 1864TIP3    H127007   4.852   5.548   6.590 -0.3673 -0.2184 -0.4232
 1864TIP3    H227008   4.804   5.690   6.610  0.8527  0.2664 -0.8424
 1865TIP3   OH227009   2.911   0.284  14.687  0.3578 -0.2866 -0.2038
 1865TIP3    H127010   2.893   0.232  14.609  1.6479 -1.2729  0.1346
 1865TIP3    H227011   2.880   0.372  14.665  1.0099 -0.4722 -1.9578
 1866TIP3   OH227012   1.630   2.573   4.380  0.1841  0.0629 -0.0091
 1866TIP3    H127013   1.538   2.598   4.389  0.3094  0.0662  1.2788
 1866TIP3    H227014   1.667   2.640   4.323 -0.2788  0.8857  0.6439
 1867TIP3   OH227015   4.842   4.342  16.516 -0.3776  0.2737  0.4030
 1867TIP3    H127016   4.766   4.381  16.559 -1.1602 -1.1077  0.3094
 1867TIP3    H227017   4.879   4.283  16.582  0.9253  1.3167  0.6271
 1868TIP3   OH227018   4.721   3.144   5.391 -0.2935  0.2893  0.2665
 1868TIP3    H127019   4.795   3.086   5.375 -1.4848 -0.5906 -2.2551
 1868TIP3    H227020   4.742   3.223   5.341 -0.2314  0.7412  0.9993
 1869TIP3   OH227021   3.042   2.619   4.438  0.2722  0.7805 -0.3389
 1869TIP3    H127022   2.995   2.703   4.441  0.4741  0.8606  0.8296
 1869TIP3    H227023   3.127   2.640   4.400 -1.1267  0.3711 -3.9674
 1870TIP3   OH227024   5.661   6.195  12.310  0.3651 -0.7689  0.0125
 1870TIP3    H127025   5.578   6.151  12.325  0.7806 -1.9856 -1.1399
 1870TIP3    H227026   5.690   6.163  12.224  0.0344  2.7354 -1.5299
 1871TIP3   OH227027   3.795   0.384  15.193  0.1833  0.6102 -0.7379
 1871TIP3    H127028   3.780   0.364  15.101 -0.1066 -0.6969 -0.4078
 1871TIP3    H227029   3.743   0.320  15.241  0.2164  1.3719  0.3444
 1872TIP3   OH227030   6.174   5.601  11.647 -0.1795 -0.8373 -0.0386
 1872TIP3    H127031   6.238   5.595  11.718 -0.2110 -1.4529 -0.0611
 1872TIP3    H227032   6.123   5.520  11.654 -0.7998 -0.4602 -0.1704
 1873TIP3   OH227033   1.035   5.991  14.631  0.1696 -0.1088 -0.2834
 1873TIP3    H127034   1.013   5.926  14.563  1.9217 -2.1105  1.0140
 1873TIP3    H227035   0.951   6.011  14.672 -0.6779 -0.0998 -1.9483
 1874TIP3   OH227036   3.273   3.778   5.910 -0.0680  0.0711  0.5534
 1874TIP3    H127037   3.262   3.686   5.935  0.5961  0.6123  2.9724
 1874TIP3    H227038   3.348   3.779   5.851 -2.5491 -1.4341 -2.8489
 1875TIP3   OH227039   6.017   1.140   5.241  0.1362 -0.0748 -0.2604
 1875TIP3    H127040   6.111   1.138   5.260  0.1596  3.3170  0.2377
 1875TIP3    H227041   6.005   1.216   5.185 -2.4960  0.3156  0.7588
 1876TIP3   OH227042   5.527   1.501  13.160 -0.3447 -0.3945  0.0892
 1876TIP3    H127043   5.570   1.423  13.194 -0.6237 -0.6188 -0.0675
 1876TIP3    H227044   5.528   1.489  13.065 -0.9832 -0.5258  0.0958
 1877TIP3   OH227045   4.511   5.940  14.793 -0.1258  0.3393  0.5035
 1877TIP3    H127046   4.575   5.874  14.765 -2.7341 -1.4056 -1.6468
 1877TIP3    H227047   4.549   6.023  14.765  2.1852 -0.4331  1.2291
 1878TIP3   OH227048   2.356   3.228  16.980 -0.4623 -0.7841 -0.2865
 1878TIP3    H127049   2.452   3.221  16.979 -0.2020  1.8300  1.5980
 1878TIP3    H227050   2.338   3.309  16.932 -1.5848 -0.1784  1.1121
 1879TIP3   OH227051   5.019   3.831   6.745  0.5574 -0.0680 -0.0123
 1879TIP3    H127052   5.029   3.892   6.818 -0.9889  0.9520 -0.6035
 1879TIP3    H227053   5.066   3.752   6.771  0.6850  0.5789  1.7354
 1880TIP3   OH227054   1.036   3.198  13.246  0.1910  0.4179  0.2121
 1880TIP3    H127055   1.075   3.162  13.166 -0.0434 -1.0951  0.7722
 1880TIP3    H227056   1.111   3.216  13.303  0.2268 -0.5974  0.5028
 1881TIP3   OH227057   5.245   6.368  15.314 -0.1041  0.3086 -0.5915
 1881TIP3    H127058   5.166   6.345  15.362 -0.2725  2.6311  0.2694
 1881TIP3    H227059   5.290   6.284  15.301  0.1300 -0.3638  3.9285
 1882TIP3   OH227060   4.590   4.819  14.027 -0.1029  0.0864 -0.2420
 1882TIP3    H127061   4.499   4.814  14.057  0.1882 -0.1537  0.6104
 1882TIP3    H227062   4.588   4.882  13.956 -0.8620  0.4393  0.0846
 1883TIP3   OH227063   1.936   1.563  12.199  0.3917  0.0415  0.1888
 1883TIP3    H127064   1.845   1.593  12.188  0.2253 -0.3290  0.5371
 1883TIP3    H227065   1.974   1.626  12.260  0.8450  1.1432 -1.2058
 1884TIP3   OH227066   3.585   5.514   6.200 -0.0249 -0.0342  0.4736
 1884TIP3    H127067   3.552   5.570   6.270  0.0306  0.1345  0.3651
 1884TIP3    H227068   3.564   5.425   6.229  0.8898 -0.0340  1.1926
 1885TIP3   OH227069   4.412   2.111   4.014  0.8430 -0.1679 -0.3373
 1885TIP3    H127070   4.380   2.082   3.929 -0.4269 -0.6903  0.3127
 1885TIP3    H227071   4.459   2.036   4.049  0.5538 -0.2745 -0.1737
 1886TIP3   OH227072   3.462   4.563  13.341  0.2048  0.1808  0.1795
 1886TIP3    H127073   3.415   4.483  13.317  1.8667 -0.5095 -0.8927
 1886TIP3    H227074   3.541   4.531  13.386  1.1186  1.1844 -0.6817
 1887TIP3   OH227075   5.635   5.200  15.704 -0.1967 -0.1691  0.2194
 1887TIP3    H127076   5.689   5.179  15.780 -0.3295 -0.4999  0.2237
 1887TIP3    H227077   5.547   5.170  15.729 -0.8730  2.4565  1.1325
 1888TIP3   OH227078   5.092   2.581   4.465 -0.2479 -0.2633  0.3312
 1888TIP3    H127079   5.057   2.615   4.547  0.3835  0.2655  0.3866
 1888TIP3    H227080   5.048   2.631   4.396 -0.2139 -0.1783  0.3728
 1889TIP3   OH227081   2.054   3.056   3.689 -0.0077  0.0476 -0.3591
 1889TIP3    H127082   2.041   3.086   3.599  0.2203  0.0329 -0.3971
 1889TIP3    H227083   2.085   3.133   3.735 -1.7994  0.5126  0.1051
 1890TIP3   OH227084   4.077   5.492  15.824 -0.4325  0.2559 -0.0984
 1890TIP3    H127085   3.998   5.442  15.848 -1.1798  1.3370 -0.2812
 1890TIP3    H227086   4.049   5.547  15.751  0.4058  0.9252  0.0844
 1891TIP3   OH227087   5.661   4.780  11.098 -0.1321  0.0521 -0.0957
 1891TIP3    H127088   5.629   4.777  11.188  0.6028  0.1163  0.1740
 1891TIP3    H227089   5.735   4.841  11.101  0.4406 -0.6145 -0.5613
 1892TIP3   OH227090   6.405   6.391  13.474 -0.0795 -0.1246 -0.8849
 1892TIP3    H127091   6.416   6.402  13.568  0.7253 -0.5186 -0.9253
 1892TIP3    H227092   6.371   6.475  13.443 -0.2018  0.0547 -0.2661
 1893TIP3   OH227093   1.185   2.890   5.349 -0.8093 -0.1494  0.3339
 1893TIP3    H127094   1.114   2.904   5.412 -1.0270  0.7601 -0.1026
 1893TIP3    H227095   1.168   2.954   5.280  0.0774 -0.3663 -0.0856
 1894TIP3   OH227096   5.757   1.897  14.606  0.3500 -0.4408 -0.3427
 1894TIP3    H127097   5.746   1.866  14.696 -0.8803  0.8554 -0.0331
 1894TIP3    H227098   5.845   1.937  14.605  0.8323 -1.4805 -0.0332
 1895TIP3   OH227099   1.625   1.377  11.993 -0.1421  0.1410 -0.3004
 1895TIP3    H127100   1.580   1.460  12.013 -1.3878 -0.4853 -0.4549
 1895TIP3    H227101   1.717   1.402  11.984 -0.3684  1.3688  0.5361
 1896TIP3   OH227102   0.737   4.342  12.353  0.2306 -0.3856  0.5748
 1896TIP3    H127103   0.668   4.388  12.399 -0.1411  2.1116 -2.3025
 1896TIP3    H227104   0.692   4.273  12.304 -0.1507  0.6010 -0.5005
 1897TIP3   OH227105   2.998   2.163   3.031 -0.0818 -0.8634  0.2880
 1897TIP3    H127106   2.915   2.151   3.076 -0.0822  0.0014  0.5294
 1897TIP3    H227107   3.014   2.258   3.036 -0.2835 -0.6999 -1.8848
 1898TIP3   OH227108   3.759   6.255  13.378 -0.2066  0.1227  0.1430
 1898TIP3    H127109   3.819   6.209  13.436 -1.3762 -2.0207 -0.3122
 1898TIP3    H227110   3.813   6.282  13.304  0.2459 -1.6512 -0.1936
 1899TIP3   OH227111   4.763   6.618  12.537 -0.5168 -0.5786  0.0150
 1899TIP3    H127112   4.789   6.559  12.608 -0.0359  1.0531  1.2087
 1899TIP3    H227113   4.678   6.652  12.565 -1.3390 -1.5764 -1.2226
 1900TIP3   OH227114   1.555   5.575   1.130  0.3944 -0.6253  0.0903
 1900TIP3    H127115   1.631   5.519   1.145  0.1690 -0.4355  2.0360
 1900TIP3    H227116   1.525   5.599   1.217 -1.6579 -0.3650 -0.6592
 1901TIP3   OH227117   6.406   3.494  12.656 -0.1620 -0.5631  0.2187
 1901TIP3    H127118   6.363   3.548  12.723  0.1588  1.5642 -1.2381
 1901TIP3    H227119   6.429   3.413  12.702 -0.9458  0.3991  2.3898
 1902TIP3   OH227120   1.234   2.214  11.089  0.7139  0.5485 -0.5369
 1902TIP3    H127121   1.151   2.206  11.042  0.3761 -1.5531  0.3810
 1902TIP3    H227122   1.250   2.308  11.092 -1.7916  1.0303 -0.4838
 1903TIP3   OH227123   4.046   4.710   3.443 -0.2462  0.4798  0.0462
 1903TIP3    H127124   4.133   4.670   3.447 -0.0965  0.6152 -1.5039
 1903TIP3    H227125   4.058   4.798   3.480  0.5301  0.9000 -1.1778
 1904TIP3   OH227126   3.512   4.847  15.225 -0.2236  0.0868  0.3714
 1904TIP3    H127127   3.557   4.769  15.193  0.5954 -0.1394  1.9939
 1904TIP3    H227128   3.430   4.849  15.177  0.3543 -1.0052 -0.6869
 1905TIP3   OH227129   0.885   2.325   6.207  0.2175 -1.0947 -0.6038
 1905TIP3    H127130   0.886   2.411   6.250 -0.1100 -1.3586 -0.0649
 1905TIP3    H227131   0.974   2.313   6.175  0.3503 -0.6981 -0.3849
 1906TIP3   OH227132   5.403   4.934  13.886 -0.3194 -0.0208 -0.0985
 1906TIP3    H127133   5.360   4.869  13.941  1.3678 -1.1472 -0.0537
 1906TIP3    H227134   5.350   5.013  13.896  0.7096  0.2940  4.4383
 1907TIP3   OH227135   1.288   2.253   5.698 -0.2433 -0.0588 -0.2736
 1907TIP3    H127136   1.376   2.292   5.695 -0.1618 -0.0666  1.6476
 1907TIP3    H227137   1.242   2.302   5.766 -1.5494 -0.4440 -0.8653
 1908TIP3   OH227138   5.463   5.198   3.409 -0.8379 -0.0299 -0.0041
 1908TIP3    H127139   5.434   5.257   3.478  3.8351 -0.1348  2.2844
 1908TIP3    H227140   5.479   5.255   3.334 -2.6366  0.6199  0.1080
 1909TIP3   OH227141   5.275   1.316  15.998 -0.3480  0.7135  0.3901
 1909TIP3    H127142   5.306   1.397  15.957 -0.7119  0.9856  0.6428
 1909TIP3    H227143   5.339   1.298  16.067  0.3771  0.1419 -0.4286
 1910TIP3   OH227144   1.606   2.994   0.382  0.6902 -0.0537 -0.0714
 1910TIP3    H127145   1.537   3.050   0.418  0.0930  0.8328 -2.4611
 1910TIP3    H227146   1.670   3.056   0.346  1.8452 -0.8897  0.5187
 1911TIP3   OH227147   5.494   3.733   2.929 -0.8184  0.4443 -0.5980
 1911TIP3    H127148   5.526   3.749   3.017  1.3604 -1.9659 -0.9040
 1911TIP3    H227149   5.570   3.749   2.872 -1.1144 -1.7815 -1.6644
 1912TIP3   OH227150   6.438   5.647  14.364  0.4277 -0.1762  0.1713
 1912TIP3    H127151   6.353   5.690  14.359  0.1144 -0.9730 -1.8274
 1912TIP3    H227152   6.428   5.581  14.433 -0.8949 -0.9167 -0.7026
 1913TIP3   OH227153   0.172   6.038  14.184 -0.0374 -0.1156 -0.8367
 1913TIP3    H127154   0.144   6.021  14.094  0.6167  4.3047 -1.9914
 1913TIP3    H227155   0.263   6.064  14.176 -0.6063  2.5258  0.8204
 1914TIP3   OH227156   1.106   4.392   0.321  0.2318  0.1420 -0.1247
 1914TIP3    H127157   1.076   4.482   0.336 -1.0821 -0.4312  0.7704
 1914TIP3    H227158   1.191   4.388   0.365 -0.1627  0.6575  0.6939
 1915TIP3   OH227159   3.566   0.396   5.505  0.6387 -0.1221 -0.0815
 1915TIP3    H127160   3.512   0.469   5.536 -0.0379 -1.0779  1.0566
 1915TIP3    H227161   3.541   0.384   5.414  0.6916  0.9997 -0.2522
 1916TIP3   OH227162   3.820   2.450  12.193 -0.2404 -0.0531 -0.3391
 1916TIP3    H127163   3.813   2.395  12.114 -2.5161 -0.6834  0.2441
 1916TIP3    H227164   3.896   2.416  12.239 -0.5824 -1.5746 -0.8582
 1917TIP3   OH227165   4.644   4.441   3.310  0.5104  0.0099  0.6247
 1917TIP3    H127166   4.688   4.401   3.235  2.1920  0.4844  1.3469
 1917TIP3    H227167   4.674   4.531   3.311 -1.1689  0.5877  0.6174
 1918TIP3   OH227168   5.013   6.127   6.144  0.3298 -0.4547  0.3626
 1918TIP3    H127169   4.947   6.060   6.160 -0.0300 -0.2310 -0.1715
 1918TIP3    H227170   4.964   6.202   6.111  1.0721 -1.0329 -2.1717
 1919TIP3   OH227171   2.752   0.641   5.231  0.0222 -0.2356 -0.4143
 1919TIP3    H127172   2.766   0.547   5.222 -0.9216 -0.5028  0.7703
 1919TIP3    H227173   2.657   0.650   5.240  0.0264  0.9177 -1.4226
 1920TIP3   OH227174   5.764   4.106   6.118 -0.4222  0.4460  0.2624
 1920TIP3    H127175   5.713   4.152   6.052  0.6037  1.2075 -0.0005
 1920TIP3    H227176   5.789   4.174   6.181 -1.9573 -0.3707  1.8210
 1921TIP3   OH227177   6.612   5.234   1.348 -0.3067 -0.4355  0.6009
 1921TIP3    H127178   6.527   5.277   1.356 -0.5211 -0.7849  0.2113
 1921TIP3    H227179   6.672   5.306   1.325 -0.6998 -0.3720 -0.2471
 1922TIP3   OH227180   0.823   6.189   0.573  0.1609  0.3708 -0.8035
 1922TIP3    H127181   0.731   6.194   0.546 -0.2160 -0.3962  0.2824
 1922TIP3    H227182   0.825   6.235   0.657  0.9252  1.0354 -1.1804
 1923TIP3   OH227183   2.119   1.958  15.432 -1.0365 -0.2366  0.6831
 1923TIP3    H127184   2.156   1.997  15.353  1.1055 -2.6594  0.4324
 1923TIP3    H227185   2.026   1.944  15.411 -0.1506 -2.4397 -2.0848
 1924TIP3   OH227186   3.674   2.749   2.118  0.7838  0.3100 -0.0489
 1924TIP3    H127187   3.596   2.721   2.166  0.6546 -0.1443 -0.5264
 1924TIP3    H227188   3.743   2.689   2.147  0.2695 -1.2069 -1.8539
 1925TIP3   OH227189   5.963   3.222  15.778 -0.7111 -0.3711 -0.5483
 1925TIP3    H127190   5.901   3.257  15.842  1.2452  0.5423  0.9056
 1925TIP3    H227191   5.915   3.152  15.734 -2.1895 -0.8825  1.7667
 1926TIP3   OH227192   5.729   4.030   0.035  0.0143  0.1901 -0.3811
 1926TIP3    H127193   5.738   4.104  -0.025 -2.3497  1.6616  1.0057
 1926TIP3    H227194   5.635   4.014   0.040  0.2241 -0.4434  2.2582
 1927TIP3   OH227195   2.703   3.359  13.881  0.5557  0.0726 -0.1503
 1927TIP3    H127196   2.649   3.435  13.899 -1.5162 -1.5289  0.5213
 1927TIP3    H227197   2.709   3.355  13.785  0.9984  1.2870 -0.1755
 1928TIP3   OH227198   4.497   4.305  12.125  0.0791 -0.9756 -0.1659
 1928TIP3    H127199   4.578   4.348  12.156 -0.1325  0.7493 -1.8773
 1928TIP3    H227200   4.527   4.244  12.058  0.1294 -1.5854  0.4147
 1929TIP3   OH227201   3.030   0.480  12.271 -0.2648  0.0034  0.2184
 1929TIP3    H127202   2.958   0.427  12.305  0.5238 -0.0753  1.7993
 1929TIP3    H227203   2.994   0.520  12.192 -2.5064  1.0250  1.6838
 1930TIP3   OH227204   2.431   4.972   3.426 -0.1249 -0.0948 -0.0653
 1930TIP3    H127205   2.426   5.067   3.429 -1.0445 -0.1449  0.1842
 1930TIP3    H227206   2.499   4.953   3.361 -1.1942  0.7140 -1.4367
 1931TIP3   OH227207   4.006   1.577  11.098 -0.1326  0.3040 -0.0973
 1931TIP3    H127208   4.028   1.489  11.128  1.3415  1.0058  0.9677
 1931TIP3    H227209   3.984   1.567  11.006 -1.8016 -1.4531  0.4660
 1932TIP3   OH227210   0.604   4.900  15.585  0.5695 -0.1241 -0.3987
 1932TIP3    H127211   0.565   4.836  15.526  0.7580 -1.0319  0.4595
 1932TIP3    H227212   0.576   4.985  15.549 -1.8189 -0.7339 -0.0719
 1933TIP3   OH227213   2.396   2.098   0.894  0.0755 -0.1959 -0.0771
 1933TIP3    H127214   2.479   2.082   0.939  0.3858 -1.1673 -0.9854
 1933TIP3    H227215   2.358   2.173   0.940  0.7735 -0.6526  1.2821
 1934TIP3   OH227216   0.648   4.104   4.303  0.1158 -0.2877 -0.3828
 1934TIP3    H127217   0.627   4.178   4.247 -1.9333  1.0100  1.9660
 1934TIP3    H227218   0.728   4.129   4.349 -0.3130  0.2866  0.0558
 1935TIP3   OH227219   5.418   0.822   3.841  0.2330 -0.1026 -0.0010
 1935TIP3    H127220   5.403   0.763   3.768  2.0319 -0.8342  0.1926
 1935TIP3    H227221   5.510   0.808   3.865  0.4518  2.1262  0.6183
 1936TIP3   OH227222   0.558   4.531   4.926  1.2843  0.3713  0.2466
 1936TIP3    H127223   0.652   4.545   4.916  1.4304 -0.1447  0.8730
 1936TIP3    H227224   0.521   4.619   4.929  1.5503  0.5753 -1.7456
 1937TIP3   OH227225   3.278   0.692  12.374  0.0718  0.1206 -0.2694
 1937TIP3    H127226   3.203   0.680  12.316 -0.1013 -1.5498  0.2690
 1937TIP3    H227227   3.283   0.787  12.388  0.0024  0.5386 -2.8351
 1938TIP3   OH227228   5.747   4.755   0.787 -0.3848  0.1720 -1.0800
 1938TIP3    H127229   5.689   4.700   0.734 -1.1690 -1.0298  0.9511
 1938TIP3    H227230   5.725   4.732   0.878  0.9925  2.0869 -0.2297
 1939TIP3   OH227231   5.755   5.293   2.360  0.6546  0.0050  0.1998
 1939TIP3    H127232   5.717   5.224   2.413  0.6432 -0.8325 -0.8771
 1939TIP3    H227233   5.705   5.372   2.383  0.0739 -0.5320  0.7735
 1940TIP3   OH227234   0.772   3.166  11.140  0.1263 -0.0726  0.3213
 1940TIP3    H127235   0.748   3.251  11.101 -1.2723 -0.4085  0.4097
 1940TIP3    H227236   0.865   3.156  11.122 -0.4625 -0.1782 -2.8638
 1941TIP3   OH227237   4.534   0.785  14.942 -0.0585 -0.0142 -0.0841
 1941TIP3    H127238   4.521   0.690  14.938  1.2553 -0.1937 -0.4333
 1941TIP3    H227239   4.480   0.814  15.016 -0.5011 -1.0220 -0.0036
 1942TIP3   OH227240   3.588   2.975  12.097 -0.0930  0.0295 -0.2331
 1942TIP3    H127241   3.574   3.063  12.132  1.0164  1.6255 -3.6237
 1942TIP3    H227242   3.671   2.947  12.137  0.0243  0.8908  0.1426
 1943TIP3   OH227243   1.044   3.377  10.341 -0.6478  0.3783 -0.3166
 1943TIP3    H127244   1.132   3.341  10.345 -0.5421  0.4120 -2.0790
 1943TIP3    H227245   1.026   3.406  10.431  1.6340  1.5603 -0.2010
 1944TIP3   OH227246   5.325   6.169   5.156 -0.4421  0.6711 -0.0943
 1944TIP3    H127247   5.317   6.193   5.064  1.5316  0.2556 -0.4075
 1944TIP3    H227248   5.265   6.095   5.167 -0.1283  0.2356 -1.2428
 1945TIP3   OH227249   5.604   4.126   2.543 -0.1520 -0.0162  0.2155
 1945TIP3    H127250   5.646   4.195   2.491 -0.8613 -0.1787 -0.5937
 1945TIP3    H227251   5.671   4.058   2.551 -0.1770 -0.1794 -0.8724
 1946TIP3   OH227252   5.027   5.542   2.091  0.0318  0.6801  0.0805
 1946TIP3    H127253   4.973   5.594   2.151  0.2126  2.0594 -0.9440
 1946TIP3    H227254   5.013   5.582   2.005  0.1420 -0.9915 -0.7331
 1947TIP3   OH227255   2.534   0.242  13.187  0.5284 -0.1324  0.4381
 1947TIP3    H127256   2.557   0.155  13.218 -0.5226 -1.0100 -1.1997
 1947TIP3    H227257   2.497   0.228  13.100  1.3906  2.0497 -0.3252
 1948TIP3   OH227258   1.030   0.347   6.065 -0.4171  0.0653  0.0393
 1948TIP3    H127259   1.082   0.279   6.021  0.8632 -0.5630  2.3926
 1948TIP3    H227260   0.943   0.310   6.073 -0.7275  0.2835 -2.1286
 1949TIP3   OH227261   4.843   5.347   4.045  0.0715  0.1958  0.1670
 1949TIP3    H127262   4.818   5.438   4.056  0.5190  0.4075 -0.5344
 1949TIP3    H227263   4.761   5.300   4.032 -0.1672  0.4789  0.6734
 1950TIP3   OH227264   3.329   6.510   3.827  0.0545 -0.0439  0.1141
 1950TIP3    H127265   3.311   6.418   3.851 -0.4753 -0.0066 -0.1268
 1950TIP3    H227266   3.242   6.548   3.815  0.2749  0.5374  0.3842
 1951TIP3   OH227267   5.350   1.608   0.785 -0.4523 -0.2376 -0.7872
 1951TIP3    H127268   5.432   1.581   0.826 -0.5641  0.8634  0.2151
 1951TIP3    H227269   5.376   1.678   0.725 -0.5414 -0.5435 -1.1846
 1952TIP3   OH227270   4.105   6.738  11.245 -0.2178  0.4614  0.2323
 1952TIP3    H127271   4.079   6.702  11.329  0.7263 -0.7442  0.0243
 1952TIP3    H227272   4.027   6.730  11.190 -0.8149  1.1923  0.9667
 1953TIP3   OH227273   2.224   2.566   1.644 -0.3214 -0.4306 -0.1160
 1953TIP3    H127274   2.159   2.577   1.713 -0.4676 -0.1235 -0.3006
 1953TIP3    H227275   2.176   2.586   1.563  0.0928  0.1455 -0.2222
 1954TIP3   OH227276   2.843   0.659   0.124  0.1281  0.1243 -0.2658
 1954TIP3    H127277   2.790   0.580   0.108  0.6597 -0.3166  0.1075
 1954TIP3    H227278   2.923   0.645   0.074 -0.0958  0.7787 -0.8073
 1955TIP3   OH227279   4.387   2.749   4.481 -0.3801 -0.3164  0.1430
 1955TIP3    H127280   4.356   2.663   4.509 -0.6312  0.2441  1.6279
 1955TIP3    H227281   4.481   2.748   4.501 -0.7698  0.5081  2.1981
 1956TIP3   OH227282   6.225   0.540   4.642 -0.0009  0.4160  0.2035
 1956TIP3    H127283   6.180   0.555   4.559  1.4380 -1.3956 -0.9477
 1956TIP3    H227284   6.290   0.611   4.647 -1.1294  1.4479  0.5727
 1957TIP3   OH227285   5.403   2.102  11.618 -0.0632 -0.2432  0.0518
 1957TIP3    H127286   5.358   2.115  11.535 -1.1499 -1.9278  0.3693
 1957TIP3    H227287   5.420   2.191  11.649 -0.9786  0.4108 -1.2522
 1958TIP3   OH227288   2.173   2.462  13.840 -0.3569 -0.7255 -0.3417
 1958TIP3    H127289   2.249   2.490  13.890  0.5936 -1.1954 -1.5111
 1958TIP3    H227290   2.135   2.543  13.806  0.1054 -0.5546 -0.4507
 1959TIP3   OH227291   1.068   3.716  14.184  0.2507  0.1995  0.5591
 1959TIP3    H127292   1.074   3.780  14.255 -0.6152  2.0484 -0.9796
 1959TIP3    H227293   1.088   3.767  14.105 -2.4191 -0.9753 -0.9103
 1960TIP3   OH227294   3.579   2.553  17.046  0.6003  0.0660 -0.1696
 1960TIP3    H127295   3.646   2.593  17.101  0.8277 -0.1752 -0.2713
 1960TIP3    H227296   3.538   2.626  17.000 -0.9354  0.5007  1.8009
 1961TIP3   OH227297   0.870   4.873  12.604 -0.2604  0.3854 -0.2509
 1961TIP3    H127298   0.817   4.794  12.605  0.1220  0.1241 -0.4998
 1961TIP3    H227299   0.951   4.848  12.648  0.1302  0.4464 -0.9304
 1962TIP3   OH227300   6.024   6.185  16.622 -0.3626  1.0444 -0.2176
 1962TIP3    H127301   6.067   6.104  16.594  0.5382  1.3493  0.2477
 1962TIP3    H227302   6.022   6.239  16.543  0.3958  1.1427 -0.1778
 1963TIP3   OH227303   3.639   6.017  15.287  0.3128 -0.4617 -0.2079
 1963TIP3    H127304   3.716   5.981  15.242  0.3940  0.9644 -1.2268
 1963TIP3    H227305   3.583   5.941  15.301  2.3191 -1.7101  1.4603
 1964TIP3   OH227306   2.491   2.694  12.881  0.0799  0.0044  0.2394
 1964TIP3    H127307   2.517   2.752  12.952  1.4518 -3.1783  2.4274
 1964TIP3    H227308   2.426   2.636  12.920  0.2335 -1.2702 -1.3473
 1965TIP3   OH227309   1.352   0.510  17.007  0.3693  0.0621  0.2373
 1965TIP3    H127310   1.387   0.599  17.005  0.2793  0.0899 -0.4407
 1965TIP3    H227311   1.417   0.458  16.958  0.7737 -0.3749  1.2279
 1966TIP3   OH227312   2.988   2.226  12.658  0.4158 -0.2085  0.3153
 1966TIP3    H127313   2.901   2.254  12.628  1.5950  1.2064 -1.8801
 1966TIP3    H227314   3.008   2.286  12.731  0.0390  0.2104  0.0767
 1967TIP3   OH227315   2.473   0.303   0.414 -0.4171 -0.5331 -0.1491
 1967TIP3    H127316   2.556   0.262   0.389  0.8535  2.0264 -0.3492
 1967TIP3    H227317   2.474   0.304   0.510 -0.4934 -1.0195 -0.1415
 1968TIP3   OH227318   4.035   2.645  15.888 -0.4556  0.3195 -0.4659
 1968TIP3    H127319   4.030   2.731  15.929  1.6165  1.3948 -2.3390
 1968TIP3    H227320   4.094   2.595  15.944 -1.8216  0.0306  0.7347
 1969TIP3   OH227321   4.753   4.906   4.550  0.1018  0.5536  0.0789
 1969TIP3    H127322   4.746   4.833   4.488 -0.2659  1.4546 -0.9510
 1969TIP3    H227323   4.810   4.872   4.619  0.3041 -0.5611 -0.6060
 1970TIP3   OH227324   4.111   2.793  13.398  0.2539  0.5100 -0.1619
 1970TIP3    H127325   4.106   2.791  13.303 -0.8387 -1.4776 -0.0766
 1970TIP3    H227326   4.053   2.724  13.428  0.5133  1.1505  1.9698
 1971TIP3   OH227327   2.921   2.539   2.686 -0.2992  0.5937  0.0800
 1971TIP3    H127328   2.839   2.496   2.664 -0.8367  1.0715  1.1388
 1971TIP3    H227329   2.896   2.612   2.742  0.8465  0.7711  0.3710
 1972TIP3   OH227330   4.841   1.706  13.376  0.2338  0.6554 -0.7117
 1972TIP3    H127331   4.788   1.695  13.297 -0.2575  0.9601 -0.4328
 1972TIP3    H227332   4.904   1.634  13.374 -2.7489 -2.1477  0.9490
 1973TIP3   OH227333   6.397   4.311  14.915 -0.2761 -0.4694 -0.1529
 1973TIP3    H127334   6.473   4.268  14.954  0.7889 -0.1794 -1.8776
 1973TIP3    H227335   6.361   4.247  14.854 -1.8187 -0.8448  1.1115
 1974TIP3   OH227336   3.110   2.612   5.920 -0.3667 -0.3625 -0.1876
 1974TIP3    H127337   3.093   2.518   5.920 -1.9125 -0.1010 -1.6707
 1974TIP3    H227338   3.024   2.652   5.934  0.2314  0.8435  0.1153
 1975TIP3   OH227339   3.330   2.645   3.925  0.5351  0.0782 -0.7302
 1975TIP3    H127340   3.319   2.634   4.019 -0.6450  0.5267 -0.8086
 1975TIP3    H227341   3.278   2.722   3.903  0.3368 -0.3543 -1.8446
 1976TIP3   OH227342   2.848   5.724   2.661  0.5546 -0.0427 -0.2995
 1976TIP3    H127343   2.881   5.735   2.750  2.5274  0.6585 -1.0916
 1976TIP3    H227344   2.773   5.783   2.655  0.4852 -0.0140  0.8466
 1977TIP3   OH227345   6.500   2.061   2.157 -0.4656 -0.4746  0.3242
 1977TIP3    H127346   6.491   2.114   2.078 -1.1409 -1.3994 -0.2268
 1977TIP3    H227347   6.595   2.050   2.168 -0.4121 -2.5298 -1.8558
 1978TIP3   OH227348   1.913   2.947  11.060 -0.2508  0.0205 -0.3301
 1978TIP3    H127349   1.829   2.902  11.074 -0.7536  1.1531  0.4318
 1978TIP3    H227350   1.896   3.009  10.989 -0.1045  0.3589 -0.0719
 1979TIP3   OH227351   2.977   3.899  12.864  0.3614 -0.4113  0.2090
 1979TIP3    H127352   3.026   3.817  12.860  0.3621 -0.3565 -1.0378
 1979TIP3    H227353   3.013   3.945  12.940  0.2763 -1.6157  0.9963
 1980TIP3   OH227354   0.739   1.434  13.040 -0.0459  0.3453 -0.4864
 1980TIP3    H127355   0.667   1.372  13.028 -0.7759  0.6818  1.7066
 1980TIP3    H227356   0.808   1.383  13.082 -1.3616  1.3229  3.1155
 1981TIP3   OH227357   5.011   6.520   4.826  0.0349  0.0051 -0.2650
 1981TIP3    H127358   5.096   6.552   4.855 -0.4000  0.8775  0.0467
 1981TIP3    H227359   5.031   6.469   4.747  0.7994  0.5452 -0.4283
 1982TIP3   OH227360   5.824   1.303  13.825  0.4248  0.0964 -0.0350
 1982TIP3    H127361   5.756   1.327  13.888  1.4317  1.9096  0.4016
 1982TIP3    H227362   5.887   1.253  13.875  1.2277  1.5433  0.4313
 1983TIP3   OH227363   1.779   0.884   4.839  0.2604 -0.0378 -0.1928
 1983TIP3    H127364   1.853   0.878   4.900  0.0849 -2.5651 -0.1803
 1983TIP3    H227365   1.791   0.810   4.779 -0.0746  1.8747 -2.6949
 1984TIP3   OH227366   4.671   5.880  15.856 -0.1088 -0.6988 -0.1675
 1984TIP3    H127367   4.710   5.859  15.941 -2.6125  0.8839  1.4306
 1984TIP3    H227368   4.626   5.800  15.830  2.7567 -2.0166 -1.2626
 1985TIP3   OH227369   4.134   5.727   3.358  0.2190 -0.0096 -0.0387
 1985TIP3    H127370   4.173   5.674   3.288  0.8614 -0.1882  0.4522
 1985TIP3    H227371   4.185   5.705   3.436  0.5835  1.4354  0.1345
 1986TIP3   OH227372   3.224   1.033   6.290  0.1469  0.1104  0.1307
 1986TIP3    H127373   3.247   1.094   6.360  1.2926 -0.3891  0.2129
 1986TIP3    H227374   3.196   1.089   6.218 -2.2384  0.5780  1.3837
 1987TIP3   OH227375   0.211   5.818  11.731 -0.4916  0.1384 -0.1645
 1987TIP3    H127376   0.277   5.856  11.672 -1.6782  0.9437 -0.9837
 1987TIP3    H227377   0.249   5.827  11.818  0.0468  1.5284 -0.5332
 1988TIP3   OH227378   4.532   3.279  11.501 -0.2142 -0.7095 -0.1294
 1988TIP3    H127379   4.587   3.285  11.423 -0.0895 -0.3815 -0.0205
 1988TIP3    H227380   4.593   3.251  11.570 -0.5917 -2.3057 -0.4241
 1989TIP3   OH227381   0.409   6.526  13.672  0.1173  0.3126  0.1276
 1989TIP3    H127382   0.501   6.519  13.700  0.6799 -0.7190 -1.9118
 1989TIP3    H227383   0.363   6.465  13.731  1.3061 -1.9076 -1.1633
 1990TIP3   OH227384   4.711   1.115  13.997  0.9752 -0.0587  0.1527
 1990TIP3    H127385   4.635   1.122  14.054  0.8056  1.2929 -0.2206
 1990TIP3    H227386   4.699   1.185  13.932  1.5529 -1.0755 -1.0634
 1991TIP3   OH227387   0.640   5.239   1.898  0.0889 -0.0551 -0.5564
 1991TIP3    H127388   0.686   5.256   1.815 -0.2639  0.7687 -0.5843
 1991TIP3    H227389   0.705   5.257   1.965  0.2842 -0.4298 -0.6422
 1992TIP3   OH227390   4.092   3.559   0.673 -0.2470  0.8266  0.4657
 1992TIP3    H127391   4.014   3.548   0.618 -1.3104  0.5854  1.9953
 1992TIP3    H227392   4.165   3.533   0.617 -1.2520  1.1640 -1.0302
 1993TIP3   OH227393   2.809   2.795   0.749 -0.8620 -0.0082 -0.0968
 1993TIP3    H127394   2.749   2.862   0.783 -0.8631 -1.2512  2.5055
 1993TIP3    H227395   2.767   2.712   0.770  0.9547 -0.8745  0.2541
 1994TIP3   OH227396   6.199   1.232   4.857  0.7166  0.0097 -0.5197
 1994TIP3    H127397   6.175   1.177   4.783 -0.9885 -1.7886  1.2824
 1994TIP3    H227398   6.235   1.170   4.921 -0.8289  1.0271  1.3931
 1995TIP3   OH227399   1.022   4.546   4.493  0.0658  0.0983  0.2859
 1995TIP3    H127400   1.043   4.549   4.400 -0.3045  0.9150  0.2272
 1995TIP3    H227401   1.073   4.472   4.527  1.1587  0.5638 -0.3226
 1996TIP3   OH227402   6.324   4.181   1.211  0.4260  0.0809 -0.3920
 1996TIP3    H127403   6.239   4.137   1.211  0.4703 -0.0230  0.8066
 1996TIP3    H227404   6.304   4.270   1.239  0.8629 -0.2596  1.0325
 1997TIP3   OH227405   4.880   4.667  16.907 -0.1634 -0.3410  0.3775
 1997TIP3    H127406   4.880   4.722  16.828  0.1567  2.0225  1.9585
 1997TIP3    H227407   4.790   4.636  16.914 -0.1100 -0.8901 -1.1013
 1998TIP3   OH227408   6.414   1.964  15.737  0.2710  0.3632 -0.1383
 1998TIP3    H127409   6.487   2.026  15.735 -0.4142  1.1797 -0.1497
 1998TIP3    H227410   6.428   1.908  15.660  1.0655  0.3011  0.0485
 1999TIP3   OH227411   1.284   1.753  13.819 -0.0054  0.4125 -0.0114
 1999TIP3    H127412   1.201   1.731  13.777  0.4622  0.3187 -0.8812
 1999TIP3    H227413   1.269   1.840  13.857 -0.6325  0.2167  0.1954
 2000TIP3   OH227414   4.427   5.375   2.982  0.4385 -0.5440  0.0496
 2000TIP3    H127415   4.401   5.420   2.901  0.6744  0.5058  0.5449
 2000TIP3    H227416   4.522   5.361   2.972 -0.0145 -3.0289 -1.1069
 2001TIP3   OH227417   0.824   3.325  13.933 -0.0912 -0.2463  0.4482
 2001TIP3    H127418   0.770   3.247  13.943  1.1687 -0.9745  1.8194
 2001TIP3    H227419   0.781   3.390  13.989  1.0727 -1.1874  2.5114
 2002TIP3   OH227420   1.077   6.208   5.727  0.0287  0.3419  0.7591
 2002TIP3    H127421   1.011   6.147   5.760  0.3606 -0.4133  0.0232
 2002TIP3    H227422   1.033   6.293   5.730 -0.8655 -0.1040  0.5998
 2003TIP3   OH227423   5.669   1.350  14.684 -0.2946 -0.2339  0.3376
 2003TIP3    H127424   5.734   1.323  14.749 -2.0929 -2.5536  1.2201
 2003TIP3    H227425   5.704   1.319  14.600  0.7434  0.4212  0.5163
 2004TIP3   OH227426   2.738   5.225   5.605 -0.2198 -0.6468 -0.1466
 2004TIP3    H127427   2.770   5.312   5.578 -1.0172 -0.5978 -0.9672
 2004TIP3    H227428   2.791   5.203   5.681  0.7296  0.0942 -0.5758
 2005TIP3   OH227429   1.077   5.126  14.788 -0.1517  0.3831  0.3970
 2005TIP3    H127430   1.118   5.074  14.718 -1.1330 -1.7183  1.3466
 2005TIP3    H227431   1.142   5.194  14.808  0.6152  0.3514 -1.7627
 2006TIP3   OH227432   2.104   4.933   3.534  0.5821  0.5019 -0.3346
 2006TIP3    H127433   2.134   5.015   3.495  0.8060  0.3987 -0.3785
 2006TIP3    H227434   2.184   4.881   3.547  0.2412 -0.5099 -2.1629
 2007TIP3   OH227435   3.855   3.426  12.174 -0.3703 -0.3004 -0.0311
 2007TIP3    H127436   3.893   3.466  12.096 -1.1228 -0.1827 -0.3431
 2007TIP3    H227437   3.900   3.469  12.247  0.5055 -0.5824 -0.3931
 2008TIP3   OH227438   4.907   5.079   5.196  0.3824 -0.1613 -0.4210
 2008TIP3    H127439   4.985   5.026   5.209  0.4814  0.1274  0.1909
 2008TIP3    H227440   4.940   5.167   5.178  0.1939  0.1576  0.7340
 2009TIP3   OH227441   0.757   5.467  13.050 -0.2608 -0.2661 -0.3370
 2009TIP3    H127442   0.842   5.491  13.014  0.5246 -3.1329 -0.4966
 2009TIP3    H227443   0.776   5.437  13.139 -1.2185 -0.2600 -0.1224
 2010TIP3   OH227444   4.169   6.379   1.605  0.2659  0.1574 -0.0552
 2010TIP3    H127445   4.160   6.288   1.633 -2.1941  0.3426 -0.0810
 2010TIP3    H227446   4.118   6.384   1.524  1.4866  1.2537 -0.7673
 2011TIP3   OH227447   1.107   3.352   1.140  0.3436  0.4105  0.1030
 2011TIP3    H127448   1.020   3.385   1.162  0.1920 -1.1067  1.8183
 2011TIP3    H227449   1.130   3.400   1.060 -1.5451  1.7090  0.2888
 2012TIP3   OH227450   0.491   6.024   2.192 -0.0298 -0.2711  0.1578
 2012TIP3    H127451   0.564   6.076   2.226  1.8966 -2.9943  0.2826
 2012TIP3    H227452   0.470   6.064   2.108  0.1910  1.8175  1.0630
 2013TIP3   OH227453   0.977   0.622   1.481 -0.0529 -0.1210 -0.4602
 2013TIP3    H127454   0.886   0.612   1.453  0.7882 -1.0637 -2.9450
 2013TIP3    H227455   1.019   0.539   1.459  1.3914  0.2219  0.8487
 2014TIP3   OH227456   1.151   3.342   6.700  0.0928 -0.0776  0.5380
 2014TIP3    H127457   1.127   3.430   6.673  3.0152  1.0804  1.5301
 2014TIP3    H227458   1.081   3.286   6.665 -1.9777  2.6405  0.2025
 2015TIP3   OH227459   2.578   2.098   0.410 -0.4296 -0.2592  0.6820
 2015TIP3    H127460   2.526   2.177   0.393 -1.4010 -0.6941  1.5514
 2015TIP3    H227461   2.588   2.096   0.505  0.3522 -0.7002  0.5899
 2016TIP3   OH227462   3.464   6.151   5.909  0.1713  0.6878  0.3019
 2016TIP3    H127463   3.480   6.102   5.828  0.3707  1.7765 -0.3297
 2016TIP3    H227464   3.550   6.187   5.932  0.2766 -0.2706  1.4350
 2017TIP3   OH227465   1.422   3.355  11.889 -0.1845 -0.1279  0.6370
 2017TIP3    H127466   1.448   3.288  11.826 -1.2534 -2.5352  2.6602
 2017TIP3    H227467   1.327   3.362  11.880 -0.5247 -1.4236  2.8060
 2018TIP3   OH227468   0.750   1.775   1.593  0.1124 -0.2991 -0.1310
 2018TIP3    H127469   0.669   1.755   1.546  0.6752  1.0642 -1.7228
 2018TIP3    H227470   0.753   1.711   1.664 -2.0930 -0.6972 -0.3683
 2019TIP3   OH227471   6.076   6.497   4.626  0.5857 -0.5080 -0.2100
 2019TIP3    H127472   6.026   6.422   4.659  0.8814 -0.9849 -0.8312
 2019TIP3    H227473   6.019   6.572   4.641  0.9917 -0.5997  2.0208
 2020TIP3   OH227474   6.114   0.468   2.482 -0.5366  0.0914 -0.4562
 2020TIP3    H127475   6.042   0.419   2.522 -1.0221  1.0471 -0.1360
 2020TIP3    H227476   6.189   0.409   2.486 -1.7814 -1.7278 -2.6415
 2021TIP3   OH227477   4.391   0.581   6.409 -0.2468  0.4270 -0.4330
 2021TIP3    H127478   4.483   0.590   6.384 -0.4239  0.5750 -1.0373
 2021TIP3    H227479   4.363   0.670   6.429 -0.7444  0.6359 -1.9858
 2022TIP3   OH227480   5.204   6.671  14.518 -0.0771  0.3074 -0.0147
 2022TIP3    H127481   5.204   6.583  14.556 -3.4055  0.1530 -0.1710
 2022TIP3    H227482   5.252   6.662  14.436  0.6386 -1.0810  0.5424
 2023TIP3   OH227483   3.050   0.691   6.067 -0.1929 -0.1228 -0.0527
 2023TIP3    H127484   3.126   0.711   6.121 -0.0033  1.2633 -0.8061
 2023TIP3    H227485   3.029   0.601   6.088  1.5507 -0.4712  0.3111
 2024TIP3   OH227486   1.233   2.897   4.038 -0.4616 -0.9925  0.2039
 2024TIP3    H127487   1.269   2.858   3.958 -0.9846 -0.3197 -0.3610
 2024TIP3    H227488   1.168   2.834   4.068 -0.1578 -1.3182  0.1782
 2025TIP3   OH227489   5.864   3.020  14.542 -0.1679  0.2428  0.1237
 2025TIP3    H127490   5.959   3.019  14.553 -0.2415 -1.2953  0.7158
 2025TIP3    H227491   5.830   3.048  14.626 -0.2575  0.1230  0.1270
 2026TIP3   OH227492   1.980   2.710  15.099  0.6266  0.4672  0.7352
 2026TIP3    H127493   1.949   2.791  15.058 -0.2479  0.6949  1.8225
 2026TIP3    H227494   2.046   2.676  15.038 -0.1060  1.1896 -0.4897
 2027TIP3   OH227495   0.669   3.112  13.823  0.7678  1.0005 -0.2332
 2027TIP3    H127496   0.745   3.060  13.795  0.4935  0.0258  0.8330
 2027TIP3    H227497   0.597   3.049  13.829  0.0770  1.7677 -0.3714
 2028TIP3   OH227498   3.337   4.646   7.090 -0.9453 -0.3444  0.0592
 2028TIP3    H127499   3.298   4.726   7.054 -0.4430  0.4988  1.3165
 2028TIP3    H227500   3.413   4.629   7.035 -1.0464  0.0673 -0.2060
 2029TIP3   OH227501   2.621   5.412  15.171  0.1756  0.2168 -0.1440
 2029TIP3    H127502   2.546   5.468  15.153  0.9230  1.1478 -0.4113
 2029TIP3    H227503   2.689   5.442  15.111  0.8048 -0.5218  0.1856
 2030TIP3   OH227504   5.632   5.113   3.052  0.4922 -0.4793 -0.2577
 2030TIP3    H127505   5.668   5.181   2.995 -0.1650  1.7698  1.8833
 2030TIP3    H227506   5.551   5.151   3.086  1.0389 -1.5819  2.4089
 2031TIP3   OH227507   3.173   1.228   2.309  1.0495  0.0809  0.1267
 2031TIP3    H127508   3.257   1.236   2.353  0.0479  3.0211  1.6317
 2031TIP3    H227509   3.108   1.238   2.379 -0.5978 -1.7086 -1.0679
 2032TIP3   OH227510   4.956   3.021  16.281  0.3179  0.0043 -0.6822
 2032TIP3    H127511   4.975   3.008  16.188  2.5165 -0.6185 -0.1672
 2032TIP3    H227512   4.900   2.947  16.304  0.6314 -0.4178 -1.2607
 2033TIP3   OH227513   6.382   1.380   1.518 -0.5221  0.5624  0.1632
 2033TIP3    H127514   6.386   1.352   1.426 -0.6678  0.6904  0.1185
 2033TIP3    H227515   6.379   1.476   1.514  3.0384  0.7388  0.3967
 2034TIP3   OH227516   0.091   1.550  14.065 -0.4586  0.1402  0.1290
 2034TIP3    H127517   0.105   1.532  14.158  0.7719 -1.7682 -0.3883
 2034TIP3    H227518  -0.004   1.547  14.054 -0.6812  1.4947  1.5178
 2035TIP3   OH227519   6.353   6.614   5.408 -0.3439 -0.5393 -0.2639
 2035TIP3    H127520   6.328   6.668   5.483  0.2817  0.4733 -0.7860
 2035TIP3    H227521   6.364   6.676   5.336  3.1789 -1.0039 -0.1792
 2036TIP3   OH227522   4.746   4.583  14.792 -0.3274 -0.1892  0.3134
 2036TIP3    H127523   4.740   4.673  14.762  0.0149 -0.0519  0.6473
 2036TIP3    H227524   4.719   4.530  14.717 -0.1069  0.1731 -0.0194
 2037TIP3   OH227525   1.529   3.360   3.280  0.0965 -0.9744  0.3058
 2037TIP3    H127526   1.472   3.428   3.315  2.7138  1.4997  0.0031
 2037TIP3    H227527   1.567   3.318   3.357  0.5877 -0.1789  0.5087
 2038TIP3   OH227528   6.087   4.231  14.481  0.0428  0.0692  0.6349
 2038TIP3    H127529   6.126   4.310  14.444  0.8060 -0.3059  0.6308
 2038TIP3    H227530   6.156   4.165  14.474  0.2098 -0.0040  2.7368
 2039TIP3   OH227531   3.757   0.074  12.794  0.6611 -0.3574 -0.2955
 2039TIP3    H127532   3.759   0.058  12.888 -1.2282 -1.4586 -0.4190
 2039TIP3    H227533   3.712   0.158  12.785  3.0309  0.9727 -0.1101
 2040TIP3   OH227534   3.996   1.263   2.736  1.0062  0.3389  0.2971
 2040TIP3    H127535   4.058   1.250   2.808  0.8816  0.5906  0.4505
 2040TIP3    H227536   3.967   1.354   2.746 -0.5351 -0.2375  1.1246
 2041TIP3   OH227537   4.315   1.744  17.219  0.6579  0.5869  0.0923
 2041TIP3    H127538   4.320   1.702  17.133 -0.7202  0.9467 -0.1916
 2041TIP3    H227539   4.306   1.672  17.281 -0.6562  0.3994 -0.2915
 2042TIP3   OH227540   3.495   6.292  12.730  0.0602 -0.1400 -0.6035
 2042TIP3    H127541   3.477   6.206  12.692 -0.1320  0.0071 -0.8457
 2042TIP3    H227542   3.588   6.306  12.713  0.0923 -0.2978 -0.5642
 2043TIP3   OH227543   4.458   5.194   5.413  0.6199  0.1684 -0.0685
 2043TIP3    H127544   4.548   5.168   5.434  0.3422 -0.9378 -0.2568
 2043TIP3    H227545   4.448   5.174   5.320  0.3641  0.8288 -0.1851
 2044TIP3   OH227546   1.166   4.248  15.459 -0.6141 -0.7736 -0.2840
 2044TIP3    H127547   1.098   4.315  15.448 -0.1408 -0.1069  0.7225
 2044TIP3    H227548   1.119   4.165  15.455 -1.5888 -0.3017  1.0327
 2045TIP3   OH227549   3.227   4.987   5.363 -0.4050 -0.2842  0.7588
 2045TIP3    H127550   3.295   5.041   5.404 -0.9370  1.3689 -0.5088
 2045TIP3    H227551   3.151   4.997   5.421 -0.2052 -0.4356  1.0468
 2046TIP3   OH227552   6.436   1.607  11.299 -0.1176  0.3505  0.4079
 2046TIP3    H127553   6.463   1.518  11.320 -1.2072  0.3574  1.9497
 2046TIP3    H227554   6.352   1.597  11.253  0.8112  0.4917 -1.3632
 2047TIP3   OH227555   5.141   4.672  12.390  0.0128 -0.3391 -0.1929
 2047TIP3    H127556   5.082   4.597  12.400  1.1556 -1.3116 -0.6445
 2047TIP3    H227557   5.134   4.718  12.473  0.7827 -2.0459  0.8607
 2048TIP3   OH227558   0.486   2.819  10.580 -0.0004  0.4376  0.3048
 2048TIP3    H127559   0.547   2.886  10.551 -0.0173 -0.0549 -0.8715
 2048TIP3    H227560   0.479   2.833  10.675  0.3029  1.8290  0.1322
 2049TIP3   OH227561   1.202   0.259  12.188  0.0455  0.0788  0.2791
 2049TIP3    H127562   1.234   0.327  12.247 -0.6367  1.6715 -1.1186
 2049TIP3    H227563   1.156   0.197  12.244  0.1620  1.0893  1.5092
 2050TIP3   OH227564   6.108   1.487  12.375 -0.2579  0.4844 -0.3762
 2050TIP3    H127565   6.131   1.394  12.365  1.6229  0.6291  2.1620
 2050TIP3    H227566   6.183   1.534  12.339 -1.0459  1.0425 -1.3201
 2051TIP3   OH227567   0.136   2.514  13.820 -0.1524  0.0221 -0.2144
 2051TIP3    H127568   0.067   2.563  13.777  0.6800 -0.3282 -2.0061
 2051TIP3    H227569   0.216   2.565  13.804  0.2169 -0.2559  0.6827
 2052TIP3   OH227570   6.662   2.760   1.181  0.2448 -0.2998  0.2238
 2052TIP3    H127571   6.645   2.814   1.105 -0.3789  0.6390  1.0169
 2052TIP3    H227572   6.666   2.670   1.147 -2.0014 -0.1007 -0.6318
 2053TIP3   OH227573   4.078   4.022  14.555 -0.3587  0.1050 -0.8030
 2053TIP3    H127574   4.090   3.928  14.567  2.1884  0.3192 -1.4856
 2053TIP3    H227575   4.073   4.057  14.644  1.3032 -0.3805 -0.5044
 2054TIP3   OH227576   5.317   1.836   1.326  0.0186 -0.1772  0.2137
 2054TIP3    H127577   5.315   1.849   1.421  0.9074 -0.9278  0.3366
 2054TIP3    H227578   5.340   1.744   1.314 -3.2181 -0.9302 -0.7082
 2055TIP3   OH227579   6.407   6.707   2.600  0.8044 -0.0338  0.2055
 2055TIP3    H127580   6.315   6.735   2.602  1.1682  1.5302 -1.9536
 2055TIP3    H227581   6.452   6.768   2.658  0.5300 -0.5966  1.0115
 2056TIP3   OH227582   0.618   2.737  11.308 -1.0913 -0.3622 -0.0790
 2056TIP3    H127583   0.583   2.690  11.233 -1.3100  0.2372 -0.3614
 2056TIP3    H227584   0.605   2.830  11.286  1.1875 -0.1038 -0.4504
 2057TIP3   OH227585   5.137   4.867  12.198  0.3420 -0.2132  0.7269
 2057TIP3    H127586   5.131   4.800  12.267  0.2025  0.1351  1.0565
 2057TIP3    H227587   5.047   4.885  12.174  0.4721 -3.0454 -2.2187
 2058TIP3   OH227588   0.260   6.671   3.141 -0.4310 -0.1694 -0.7803
 2058TIP3    H127589   0.181   6.711   3.177  0.0243 -0.1358  0.1749
 2058TIP3    H227590   0.304   6.632   3.216  0.6218  0.0830 -1.2600
 2059TIP3   OH227591   1.933   1.111   3.121 -0.0289 -0.6029  0.0927
 2059TIP3    H127592   1.999   1.093   3.188 -0.2995  1.4951  0.9657
 2059TIP3    H227593   1.855   1.136   3.171 -0.8769 -1.1005 -0.9734
 2060TIP3   OH227594   4.679   1.872   1.207 -0.3454  0.1706 -0.1790
 2060TIP3    H127595   4.758   1.874   1.261 -0.9606  0.7166  0.7139
 2060TIP3    H227596   4.667   1.779   1.184 -1.0594 -0.3218  2.0913
 2061TIP3   OH227597   2.273   2.870  14.375 -0.2511 -0.4562 -0.1180
 2061TIP3    H127598   2.279   2.877  14.280 -0.8582 -2.3317 -0.3177
 2061TIP3    H227599   2.345   2.811  14.399 -0.5993 -0.6268  0.5023
 2062TIP3   OH227600   2.500   6.001   3.207 -0.5688 -0.5092 -0.6255
 2062TIP3    H127601   2.588   6.034   3.195  0.4044 -2.0911  1.7588
 2062TIP3    H227602   2.449   6.077   3.235  0.3333  0.1399 -0.7462
 2063TIP3   OH227603   2.224   4.493   2.079 -0.1796 -0.4252 -0.1134
 2063TIP3    H127604   2.293   4.512   2.141  0.5356  0.2979 -1.1106
 2063TIP3    H227605   2.172   4.574   2.075 -2.3841 -1.6475  2.2251
 2064TIP3   OH227606   0.723   4.293   1.023  0.1119 -0.2372 -0.0016
 2064TIP3    H127607   0.719   4.205   1.062  2.2848  0.5724  2.1844
 2064TIP3    H227608   0.658   4.343   1.072  1.0431  0.1326  0.8746
 2065TIP3   OH227609   2.010   0.039   4.293 -0.2557  0.5367  0.6841
 2065TIP3    H127610   2.049   0.111   4.343  2.4519  0.2912 -0.9828
 2065TIP3    H227611   2.048  -0.040   4.330 -2.2088 -0.0011  1.6129
 2066TIP3   OH227612   1.532   6.539   2.476  0.0072 -0.8074  0.6162
 2066TIP3    H127613   1.444   6.503   2.467 -0.6176  1.3286 -2.6730
 2066TIP3    H227614   1.518   6.631   2.499  1.4679 -1.0510  2.6321
 2067TIP3   OH227615   4.749   3.108   0.766  0.2415  0.5214  0.2669
 2067TIP3    H127616   4.717   3.075   0.682 -0.9732 -1.0079  1.2975
 2067TIP3    H227617   4.672   3.105   0.824  0.9085  2.1291  1.2756
 2068TIP3   OH227618   4.071   6.783  11.987 -0.9519  0.5625  0.0322
 2068TIP3    H127619   4.128   6.782  12.064 -0.2079 -1.2916 -0.5184
 2068TIP3    H227620   4.002   6.721  12.007 -0.9546  0.3404 -0.6475
 2069TIP3   OH227621   5.706   3.319   5.344  0.2013 -0.9415  0.3188
 2069TIP3    H127622   5.676   3.374   5.416  1.5660  0.2841 -0.0368
 2069TIP3    H227623   5.644   3.246   5.343 -1.8657  0.7488  0.5610
 2070TIP3   OH227624   4.216   6.473   3.112 -0.0083  0.8548 -1.1447
 2070TIP3    H127625   4.178   6.560   3.105 -0.4051  0.5671 -2.7967
 2070TIP3    H227626   4.306   6.488   3.139  0.0148  1.7929 -1.7210
 2071TIP3   OH227627   0.831   4.326  11.886 -0.2803 -0.1948  0.0318
 2071TIP3    H127628   0.846   4.419  11.904  1.5334 -0.3307 -0.6994
 2071TIP3    H227629   0.823   4.321  11.791  2.1038 -1.0947 -0.1546
 2072TIP3   OH227630   2.887   0.790   3.106 -0.7760 -0.2362  0.0372
 2072TIP3    H127631   2.942   0.760   3.179 -2.0176 -0.2874  0.9791
 2072TIP3    H227632   2.827   0.716   3.090 -0.7090 -0.1055 -0.8440
 2073TIP3   OH227633   0.319   2.756   2.009  0.4000  0.2235 -0.1064
 2073TIP3    H127634   0.319   2.782   2.101  1.0207  0.7220 -0.2443
 2073TIP3    H227635   0.400   2.707   1.998  1.2232  1.7038 -0.8076
 2074TIP3   OH227636   5.416   0.369   4.413 -0.1686  0.0983  0.3350
 2074TIP3    H127637   5.331   0.325   4.412  0.7136 -1.6170  0.5157
 2074TIP3    H227638   5.400   0.452   4.368 -1.5822 -0.8714 -1.0020
 2075TIP3   OH227639   3.895   1.006  15.847 -0.3038 -0.7022 -0.3319
 2075TIP3    H127640   3.984   0.977  15.866  0.4334 -1.1426 -4.0346
 2075TIP3    H227641   3.866   0.950  15.775 -2.4302  1.4289 -1.2122
 2076TIP3   OH227642   0.885   3.787  12.665  0.5186 -0.0289  0.4615
 2076TIP3    H127643   0.854   3.730  12.735 -0.5597 -1.3740 -1.0559
 2076TIP3    H227644   0.980   3.785  12.671  0.4661 -1.5530  0.7746
 2077TIP3   OH227645   4.416   1.118   2.928  0.3879 -0.7918 -0.0796
 2077TIP3    H127646   4.477   1.047   2.945  0.1191 -0.7874  0.9531
 2077TIP3    H227647   4.471   1.193   2.907  0.7564 -0.7313  1.0663
 2078TIP3   OH227648   6.295   2.881   1.027  0.8185  0.0989 -0.3763
 2078TIP3    H127649   6.336   2.965   1.049  2.2197 -0.5623 -0.4310
 2078TIP3    H227650   6.308   2.872   0.933  1.1752 -0.4493 -0.2730
 2079TIP3   OH227651   2.058   1.116  12.670  0.7433  0.1640 -0.1819
 2079TIP3    H127652   1.963   1.125  12.671  0.7689  0.4168 -0.1355
 2079TIP3    H227653   2.088   1.167  12.745  0.9943  0.9591 -0.8139
 2080TIP3   OH227654   2.416   3.602  17.205 -0.2284 -0.2939  0.2469
 2080TIP3    H127655   2.445   3.595  17.114  1.1102 -0.6405  0.6939
 2080TIP3    H227656   2.344   3.665  17.203 -0.7584 -0.9271 -1.1820
 2081TIP3   OH227657   2.328   3.250  11.839  0.3641 -0.3369 -0.0517
 2081TIP3    H127658   2.318   3.170  11.787  0.9969 -0.5161  0.1057
 2081TIP3    H227659   2.248   3.253  11.892 -1.9823  1.6877 -3.5360
 2082TIP3   OH227660   0.603   5.079  14.788  0.1988  0.7733  0.2425
 2082TIP3    H127661   0.668   5.147  14.805 -0.4426  1.0131  1.7770
 2082TIP3    H227662   0.594   5.032  14.871 -1.8341  0.9557  0.1568
 2083TIP3   OH227663   3.061   5.141   0.999 -0.3101  0.1772 -0.0041
 2083TIP3    H127664   3.091   5.076   0.934  0.3098  0.1121  0.3366
 2083TIP3    H227665   3.063   5.094   1.082  0.0057  0.5949  0.2259
 2084TIP3   OH227666   6.715   6.663   2.698  0.3052 -0.2865  0.4507
 2084TIP3    H127667   6.639   6.632   2.748  0.7342 -2.0693  0.0358
 2084TIP3    H227668   6.685   6.661   2.607  0.6431 -0.3702  0.3430
 2085TIP3   OH227669   2.945   6.146   0.640 -0.2089  0.3972  0.3459
 2085TIP3    H127670   2.888   6.223   0.646  0.7892  1.1973 -0.3255
 2085TIP3    H227671   2.906   6.093   0.571  0.5571  1.5478 -0.9940
 2086TIP3   OH227672   0.508   6.544   0.280 -0.1784 -0.2487  1.4339
 2086TIP3    H127673   0.584   6.592   0.311  0.5894 -0.7758  0.4030
 2086TIP3    H227674   0.484   6.486   0.353  1.4542 -1.2963  1.1605
 2087TIP3   OH227675   5.729   5.695   1.229 -0.5296  0.0626 -0.2321
 2087TIP3    H127676   5.669   5.762   1.193 -0.5009 -0.1364 -0.6568
 2087TIP3    H227677   5.770   5.657   1.152 -0.7720 -0.6633 -0.0057
 2088TIP3   OH227678   2.610   1.379  13.846  0.2362  0.5183  0.0969
 2088TIP3    H127679   2.571   1.344  13.766 -0.3045  2.2260 -0.4127
 2088TIP3    H227680   2.679   1.317  13.868  0.2575 -0.0846 -1.5861
 2089TIP3   OH227681   6.282   3.355  15.304  0.7147 -0.0430  0.1871
 2089TIP3    H127682   6.344   3.376  15.374  0.9346 -0.4097  0.0994
 2089TIP3    H227683   6.268   3.439  15.260  1.9884 -0.1703 -0.4719
 2090TIP3   OH227684   0.599   2.597  15.128  0.0679 -0.1869  0.2016
 2090TIP3    H127685   0.656   2.618  15.203 -0.4365 -1.7359  1.0521
 2090TIP3    H227686   0.524   2.552  15.167 -0.3268 -0.7815 -1.2139
 2091TIP3   OH227687   1.608   3.135  15.638 -0.2028  0.6226 -0.1882
 2091TIP3    H127688   1.519   3.137  15.603 -0.5900  1.3500  0.7954
 2091TIP3    H227689   1.639   3.046  15.622 -1.0888  0.3879 -0.5924
 2092TIP3   OH227690   5.704   1.723  12.623  0.5387 -0.2716  0.1852
 2092TIP3    H127691   5.702   1.812  12.660 -1.5772 -0.1740 -0.1045
 2092TIP3    H227692   5.750   1.671  12.689  0.0711  0.6467  1.2545
 2093TIP3   OH227693   5.862   0.478   0.933 -0.2027  0.2928 -0.0714
 2093TIP3    H127694   5.770   0.500   0.917 -0.5933  0.0912  1.7711
 2093TIP3    H227695   5.866   0.383   0.923 -0.9200 -0.1296  2.9392
 2094TIP3   OH227696   5.097   4.807  12.623 -0.9562 -0.2253  0.6110
 2094TIP3    H127697   5.136   4.884  12.665 -1.7268  0.7556 -0.4473
 2094TIP3    H227698   5.044   4.767  12.692 -1.6770  0.9939  0.7846
 2095TIP3   OH227699   3.030   4.303  14.736  0.3210 -0.2304  0.3613
 2095TIP3    H127700   3.049   4.251  14.658  0.0743  0.8000 -0.3832
 2095TIP3    H227701   3.112   4.348  14.755 -0.0770  0.7588 -0.2434
 2096TIP3   OH227702   1.818   5.125  16.082 -0.5320 -0.0335  0.0894
 2096TIP3    H127703   1.789   5.127  15.991  0.3379 -0.3970 -0.2025
 2096TIP3    H227704   1.899   5.074  16.080  0.1819  1.0413  0.8605
 2097TIP3   OH227705   4.382   1.515  11.490  0.4701  0.6671  0.2899
 2097TIP3    H127706   4.432   1.596  11.495 -0.0606  0.9036  2.0607
 2097TIP3    H227707   4.344   1.504  11.577 -0.1767 -1.0305 -0.1721
 2098TIP3   OH227708   4.298   1.662   4.574  0.4572 -0.6544 -0.2383
 2098TIP3    H127709   4.330   1.691   4.488  3.1302 -0.2904  0.8290
 2098TIP3    H227710   4.229   1.724   4.595  1.8258  1.1404 -0.8133
 2099TIP3   OH227711   3.256   1.333  12.237  0.5964 -0.6410  0.3421
 2099TIP3    H127712   3.274   1.327  12.143 -0.9550 -0.0601 -0.0068
 2099TIP3    H227713   3.337   1.367  12.274  0.7972  0.3849 -0.9676
 2100TIP3   OH227714   3.360   6.492   2.549 -0.0903 -0.4136  0.0013
 2100TIP3    H127715   3.393   6.551   2.617 -3.3221  0.1809  1.1342
 2100TIP3    H227716   3.387   6.405   2.579 -1.9276 -0.2066  2.3709
 2101TIP3   OH227717   5.067   6.615   1.826  0.2568 -0.3837 -0.0333
 2101TIP3    H127718   5.039   6.675   1.894  0.0296  0.2910 -0.7162
 2101TIP3    H227719   4.998   6.619   1.760  1.7129  0.9916 -1.5370
 2102TIP3   OH227720   5.153   4.511   6.616  0.1993 -0.1101 -0.2224
 2102TIP3    H127721   5.091   4.569   6.660  3.1465  3.1939 -0.1969
 2102TIP3    H227722   5.132   4.424   6.649 -1.4317  1.5115  3.2921
 2103TIP3   OH227723   6.283   3.827  14.026 -0.0528 -0.1558 -0.2091
 2103TIP3    H127724   6.277   3.751  14.085  0.4857 -1.1085 -1.3408
 2103TIP3    H227725   6.194   3.840  13.994 -0.1670 -0.2415  0.0722
 2104TIP3   OH227726   4.009   5.063  15.964 -0.3585  0.1265  0.0177
 2104TIP3    H127727   4.083   5.011  15.994  1.9307  2.9024 -0.5804
 2104TIP3    H227728   3.973   5.013  15.891  0.2993 -1.7264  0.9237
 2105TIP3   OH227729   2.958   3.881  14.253  0.5165  0.3787  0.2377
 2105TIP3    H127730   2.934   3.817  14.320  1.7167 -0.7688 -0.4121
 2105TIP3    H227731   3.051   3.897  14.268  0.2231  1.9827  0.3997
 2106TIP3   OH227732   2.055   2.221   0.891  0.7103  0.1881 -0.4950
 2106TIP3    H127733   2.002   2.291   0.855  1.3824 -0.5782 -3.0456
 2106TIP3    H227734   1.992   2.163   0.934  0.1432  2.2406  1.5363
 2107TIP3   OH227735   2.232   2.078  15.657 -0.4523 -0.1383 -0.4339
 2107TIP3    H127736   2.228   2.000  15.712 -0.2425  1.9174  2.6346
 2107TIP3    H227737   2.182   2.056  15.579 -2.3060 -2.5431  1.3868
 2108TIP3   OH227738   2.433   2.917  15.727 -0.3269 -0.6047 -0.3683
 2108TIP3    H127739   2.362   2.928  15.790 -0.9321 -0.6984 -1.0271
 2108TIP3    H227740   2.394   2.869  15.655 -0.3246  1.7654 -1.9910
 2109TIP3   OH227741   3.047   4.783  13.822  0.3244  0.2939 -0.0539
 2109TIP3    H127742   3.009   4.695  13.812  0.3367  0.4482 -1.7332
 2109TIP3    H227743   3.126   4.781  13.768 -0.0707  1.5540 -0.6943
 2110TIP3   OH227744   1.412   2.759  11.241  0.3046 -0.1271 -0.1578
 2110TIP3    H127745   1.407   2.727  11.151 -1.3100 -0.3797 -0.0031
 2110TIP3    H227746   1.461   2.841  11.235 -1.1724  0.6810 -1.5090
 2111TIP3   OH227747   4.113   1.785   1.935 -0.1172  0.3718 -0.2829
 2111TIP3    H127748   4.047   1.854   1.926  0.5982  1.3398  1.6758
 2111TIP3    H227749   4.076   1.724   1.998  0.8764  1.0057  0.9572
 2112TIP3   OH227750   4.837   1.029  12.628 -0.3595 -0.2192 -0.1034
 2112TIP3    H127751   4.864   1.085  12.701  1.0817 -1.2835  0.1914
 2112TIP3    H227752   4.811   0.947  12.669  0.5672 -0.8626 -0.7973
 2113TIP3   OH227753   2.550   4.226   2.556  0.3441 -0.0400 -0.1654
 2113TIP3    H127754   2.513   4.314   2.561  2.3088  0.9088 -1.8689
 2113TIP3    H227755   2.473   4.169   2.554 -0.9688  1.6558  0.2835
 2114TIP3   OH227756   6.390   1.897   1.319  0.5774  0.6455 -0.0621
 2114TIP3    H127757   6.412   1.944   1.238  0.2139  0.0724 -0.4913
 2114TIP3    H227758   6.455   1.928   1.382  1.6037  0.2192 -0.8828
 2115TIP3   OH227759   1.755   2.700  13.221  0.0685  0.0576 -0.5816
 2115TIP3    H127760   1.682   2.670  13.274  0.2698 -4.0256 -2.4313
 2115TIP3    H227761   1.729   2.679  13.131  2.0784  1.7516 -1.6024
 2116TIP3   OH227762   6.526   6.335   4.653  0.0370  0.8913  0.9213
 2116TIP3    H127763   6.597   6.393   4.677  0.0163  2.1661 -1.8982
 2116TIP3    H227764   6.459   6.392   4.616 -1.1577 -0.6173  0.6778
 2117TIP3   OH227765   0.675   3.610   2.018 -0.3090 -0.1579  0.0123
 2117TIP3    H127766   0.730   3.532   2.028 -0.6655 -0.5125 -0.8192
 2117TIP3    H227767   0.726   3.667   1.961 -0.2383  0.0502  0.2811
 2118TIP3   OH227768   2.823   1.776   5.121 -0.0453  0.5144 -0.3335
 2118TIP3    H127769   2.779   1.794   5.038 -0.8461  1.5801  0.3098
 2118TIP3    H227770   2.754   1.778   5.187  1.0409  3.0841  0.7953
 2119TIP3   OH227771   5.558   4.522   0.727 -0.4251  0.3174 -0.2629
 2119TIP3    H127772   5.504   4.495   0.652 -0.3912  0.0720 -0.1985
 2119TIP3    H227773   5.503   4.504   0.803 -1.7292  3.4692 -0.3691
 2120TIP3   OH227774   0.790   5.808  16.722 -0.4774  0.0071  0.2697
 2120TIP3    H127775   0.748   5.768  16.798  2.1697 -1.4833  1.0333
 2120TIP3    H227776   0.828   5.889  16.756 -0.7440  0.1951  0.1201
 2121TIP3   OH227777   5.179   4.220  14.106 -0.2683 -0.3534  0.2799
 2121TIP3    H127778   5.106   4.228  14.044 -1.2688 -0.1773  1.4469
 2121TIP3    H227779   5.177   4.302  14.155 -0.1634 -0.9258  1.2524
 2122TIP3   OH227780   4.342   3.352   6.033  0.0407  0.9591  0.2293
 2122TIP3    H127781   4.365   3.443   6.017 -0.7645  1.0111 -0.6392
 2122TIP3    H227782   4.247   3.349   6.025 -0.0835  0.3264  1.7055
 2123TIP3   OH227783   3.311   1.793   5.986 -0.3719 -0.5779  0.3781
 2123TIP3    H127784   3.404   1.772   5.984  0.0670  1.3804 -1.3370
 2123TIP3    H227785   3.287   1.788   6.078  1.8837  0.7881  1.0686
 2124TIP3   OH227786   4.840   0.643   5.390  0.2692 -0.4669  0.0111
 2124TIP3    H127787   4.783   0.651   5.466 -0.1960 -3.3155  0.0167
 2124TIP3    H227788   4.784   0.668   5.316  0.1398  0.3324  0.3652
 2125TIP3   OH227789   0.467   2.093  13.663  0.2366 -0.1425 -0.7560
 2125TIP3    H127790   0.441   2.084  13.754 -2.4644  0.7174 -1.3998
 2125TIP3    H227791   0.563   2.089  13.664  0.2936  1.3467  2.2473
 2126TIP3   OH227792   4.818   5.588   3.926  0.5236  0.5468 -0.3505
 2126TIP3    H127793   4.909   5.559   3.927  0.1860 -0.5164  0.3554
 2126TIP3    H227794   4.800   5.610   3.835  1.3072  0.2043 -0.5881
 2127TIP3   OH227795   1.521   6.011  13.680 -0.9056  0.4354 -0.4795
 2127TIP3    H127796   1.488   6.100  13.667 -0.6921  0.7093  0.7265
 2127TIP3    H227797   1.479   5.982  13.761 -0.1993 -0.1819 -0.3256
 2128TIP3   OH227798   0.619   4.949   2.003  0.1865  0.0114 -0.6695
 2128TIP3    H127799   0.563   5.008   1.952  0.2986  0.1417 -0.6417
 2128TIP3    H227800   0.697   5.001   2.021  0.1564 -0.0448 -0.3865
 2129TIP3   OH227801   1.302   2.315   4.400 -0.0862 -0.4900  0.5575
 2129TIP3    H127802   1.214   2.345   4.424  0.6167 -0.0057  2.5721
 2129TIP3    H227803   1.295   2.219   4.400 -0.9266 -0.4334 -0.5111
 2130TIP3   OH227804   0.800   3.315  15.440  0.3414 -0.3772 -0.0130
 2130TIP3    H127805   0.830   3.227  15.418 -0.7022 -0.2513 -2.0833
 2130TIP3    H227806   0.705   3.310  15.434  0.3055  1.0637 -0.8781
 2131TIP3   OH227807   4.320   3.464   0.113 -0.4000 -1.1031 -0.0215
 2131TIP3    H127808   4.368   3.493   0.035 -1.5707  0.3871 -0.2004
 2131TIP3    H227809   4.358   3.515   0.184 -0.7605 -0.9381  0.0537
 2132TIP3   OH227810   3.400   0.887   3.035  0.6245  0.0259 -0.1084
 2132TIP3    H127811   3.356   0.861   2.954 -1.0110  0.5143  0.6127
 2132TIP3    H227812   3.363   0.973   3.055 -1.0804 -1.2862  2.6716
 2133TIP3   OH227813   0.832   6.055  15.274 -0.1282  0.6247  0.0439
 2133TIP3    H127814   0.753   6.097  15.239 -1.1129 -1.8475 -0.8090
 2133TIP3    H227815   0.800   5.995  15.341  1.0470 -0.1544 -0.0750
 2134TIP3   OH227816   3.335   4.333  16.542 -0.6122  0.5752  0.6156
 2134TIP3    H127817   3.244   4.307  16.549 -0.3603 -0.0692  1.6210
 2134TIP3    H227818   3.333   4.417  16.496 -1.5155 -0.6037 -1.5579
 2135TIP3   OH227819   2.728   3.036  14.222  0.3118  0.3746  0.2746
 2135TIP3    H127820   2.768   3.088  14.153  0.4092 -0.6962 -0.4873
 2135TIP3    H227821   2.716   3.097  14.295 -2.0206  2.1025 -1.5100
 2136TIP3   OH227822   0.283   2.457  14.709  0.3350  0.3150 -0.2669
 2136TIP3    H127823   0.320   2.438  14.623 -0.5073 -0.5488 -0.4359
 2136TIP3    H227824   0.331   2.535  14.738 -1.5809  2.6042 -2.9089
 2137TIP3   OH227825   1.844   5.751   4.002 -0.0832  0.1261 -0.0553
 2137TIP3    H127826   1.800   5.836   4.000  1.9334  1.2006  0.5412
 2137TIP3    H227827   1.921   5.762   3.947  0.4476 -1.1924  0.4120
 2138TIP3   OH227828   1.069   2.320  15.369 -0.5138 -0.4205 -0.3051
 2138TIP3    H127829   1.061   2.384  15.440 -0.7305  0.2098 -0.8875
 2138TIP3    H227830   0.984   2.277  15.365 -0.6912 -0.0501 -0.5590
 2139TIP3   OH227831   0.195   6.172  14.441  0.4012 -0.4390 -0.0013
 2139TIP3    H127832   0.225   6.093  14.486 -1.3739 -1.1555 -0.0439
 2139TIP3    H227833   0.140   6.140  14.369  1.1388  0.7829 -1.1539
 2140TIP3   OH227834   5.098   4.672   1.142 -0.1583 -0.4733 -0.4866
 2140TIP3    H127835   5.031   4.628   1.089 -0.6604 -0.6641  0.2959
 2140TIP3    H227836   5.088   4.635   1.229  0.7496 -0.2529 -0.2795
 2141TIP3   OH227837   4.949   0.542   0.262 -0.1999  0.3048  0.5651
 2141TIP3    H127838   4.905   0.617   0.301  2.7101  2.7180 -0.6384
 2141TIP3    H227839   4.904   0.529   0.178 -0.3217  1.0669  0.5107
 2142TIP3   OH227840   6.549   1.293  16.042 -0.9821 -0.2940 -0.1932
 2142TIP3    H127841   6.640   1.265  16.029 -0.5455  1.0623 -0.2125
 2142TIP3    H227842   6.498   1.237  15.984 -0.0471 -0.4781 -0.8522
 2143TIP3   OH227843   5.970   5.316   4.563  0.0073 -0.5553  0.6261
 2143TIP3    H127844   6.060   5.349   4.553  0.1940 -1.1023  0.4823
 2143TIP3    H227845   5.978   5.221   4.549 -0.8705 -0.3887 -1.1487
 2144TIP3   OH227846   2.805   0.240  11.968  0.6788  0.5474  0.5903
 2144TIP3    H127847   2.840   0.324  11.997 -0.0772  0.2777  2.3221
 2144TIP3    H227848   2.712   0.242  11.992  0.7064 -0.8825  0.9017
 2145TIP3   OH227849   6.627   0.601   1.234  0.4316  0.0473 -0.1128
 2145TIP3    H127850   6.662   0.675   1.284 -0.7998  0.0613  0.7313
 2145TIP3    H227851   6.678   0.602   1.153 -2.0030  4.1071 -1.7671
 2146TIP3   OH227852   1.096   3.845   6.498  0.1459 -0.4505 -0.1341
 2146TIP3    H127853   1.166   3.842   6.434  0.2992 -0.1838  0.0182
 2146TIP3    H227854   1.061   3.934   6.492 -0.6940 -0.8187 -0.7568
 2147TIP3   OH227855   2.960   0.732  14.115  0.4739  0.2926 -0.0243
 2147TIP3    H127856   3.029   0.767  14.058 -0.9085  2.0714 -0.6521
 2147TIP3    H227857   2.919   0.663  14.063  2.5381 -1.6333  0.8192
 2148TIP3   OH227858   3.752   1.743  15.639 -0.4768 -0.3817  0.2653
 2148TIP3    H127859   3.658   1.732  15.624 -0.3014 -0.5492 -0.7994
 2148TIP3    H227860   3.789   1.749  15.550  0.5165 -0.3591  0.6783
 2149TIP3   OH227861   5.916   6.171   0.061 -0.3036 -0.0029  0.1711
 2149TIP3    H127862   5.848   6.147   0.123  0.6202 -3.3108 -0.0016
 2149TIP3    H227863   5.996   6.178   0.114  0.4286 -2.5416 -0.5217
 2150TIP3   OH227864   2.353   2.806   1.576 -0.2392 -0.1729 -0.5763
 2150TIP3    H127865   2.341   2.733   1.636  0.5290 -0.5743 -0.9116
 2150TIP3    H227866   2.376   2.766   1.492 -1.1500  0.3931 -1.1070
 2151TIP3   OH227867   6.078   0.657   3.085  0.1794  0.2162  0.2175
 2151TIP3    H127868   6.066   0.616   3.170  0.7351 -3.0454 -1.2110
 2151TIP3    H227869   5.993   0.647   3.041  0.2674  0.7348 -0.0775
 2152TIP3   OH227870   0.098   1.675   0.761  0.1296 -0.3309  0.4577
 2152TIP3    H127871   0.179   1.727   0.757  2.0625 -3.2521 -0.2296
 2152TIP3    H227872   0.062   1.681   0.673  0.7591 -0.7776  0.1672
 2153TIP3   OH227873   0.784   6.719  12.897  0.5855  0.1917  0.2270
 2153TIP3    H127874   0.845   6.772  12.845  0.5985 -0.2438 -0.2023
 2153TIP3    H227875   0.697   6.749  12.870  0.6104  1.1316  1.1704
 2154TIP3   OH227876   1.884   6.639   5.033  0.6053 -0.0558 -0.2225
 2154TIP3    H127877   1.808   6.601   5.078  1.2040  0.2434  1.0533
 2154TIP3    H227878   1.850   6.721   4.995  0.8026  1.2332  2.2522
 2155TIP3   OH227879   1.867   3.442   2.271 -0.2298 -0.5590 -0.2719
 2155TIP3    H127880   1.956   3.475   2.268 -0.7537  0.8596 -0.7198
 2155TIP3    H227881   1.851   3.409   2.183 -0.1545 -0.8072 -0.1932
 2156TIP3   OH227882   3.938   5.456   0.377  0.6484  0.8928  0.0604
 2156TIP3    H127883   3.883   5.521   0.333  0.4336 -0.3041 -1.4431
 2156TIP3    H227884   4.007   5.508   0.419  1.5104  1.9790 -2.6023
 2157TIP3   OH227885   2.320   6.439   1.611 -0.1608  0.2806  0.1495
 2157TIP3    H127886   2.244   6.474   1.563  0.4326 -1.2620 -1.9788
 2157TIP3    H227887   2.375   6.516   1.627  0.5099  0.6272 -3.3344
 2158TIP3   OH227888   0.644   6.062   2.574 -0.5297 -0.0229  0.2716
 2158TIP3    H127889   0.550   6.048   2.580 -0.5062  0.9708  4.0153
 2158TIP3    H227890   0.653   6.143   2.523 -1.6981  0.0668  0.2002
 2159TIP3   OH227891   6.512   2.896   1.885 -0.4059 -0.0169 -0.3961
 2159TIP3    H127892   6.577   2.829   1.905 -1.3371 -1.1177 -0.9366
 2159TIP3    H227893   6.504   2.894   1.789  0.4582  1.7442 -0.5083
 2160TIP3   OH227894   4.644   2.700   6.016 -0.2116  0.1885  0.4264
 2160TIP3    H127895   4.599   2.782   5.994 -1.1960 -0.0311  1.5937
 2160TIP3    H227896   4.697   2.722   6.093 -0.0766 -0.1434  0.4263
 2161TIP3   OH227897   5.516   2.928   2.085  0.0827 -0.3315  0.1624
 2161TIP3    H127898   5.468   2.910   2.166 -0.0651 -0.0733  0.1332
 2161TIP3    H227899   5.449   2.961   2.025  0.6681  2.1447  0.8115
 2162TIP3   OH227900   4.325   6.523   0.937  0.3761 -0.2734  0.0194
 2162TIP3    H127901   4.365   6.531   1.024  0.7480  0.7629 -0.2498
 2162TIP3    H227902   4.399   6.526   0.877  0.0702 -0.4771 -0.3646
 2163TIP3   OH227903   4.385   3.819  16.467 -0.6078  0.5340  0.4723
 2163TIP3    H127904   4.337   3.851  16.544  0.3939  1.3295  0.7712
 2163TIP3    H227905   4.387   3.893  16.407  0.8690  0.7224  0.7528
 2164TIP3   OH227906   6.407   0.685  15.794  0.1199  0.2744 -0.3616
 2164TIP3    H127907   6.327   0.633  15.800  0.6634 -0.4288  1.2536
 2164TIP3    H227908   6.470   0.627  15.751  0.4093  0.0012  0.4295
 2165TIP3   OH227909   2.405   0.899  14.211  0.2790 -0.0086 -0.1076
 2165TIP3    H127910   2.327   0.845  14.204  0.3972 -0.1060 -0.7687
 2165TIP3    H227911   2.382   0.967  14.274 -0.0780 -0.4750  0.2640
 2166TIP3   OH227912   0.785   4.070   2.329 -0.4663  0.3858 -0.3271
 2166TIP3    H127913   0.815   3.992   2.282  2.9079  0.9764  0.7534
 2166TIP3    H227914   0.701   4.043   2.368 -0.0565 -2.2254 -1.1657
 2167TIP3   OH227915   5.954   3.508  11.862  0.1426 -0.3909  0.1918
 2167TIP3    H127916   5.976   3.424  11.821 -0.2382 -0.5257  0.2666
 2167TIP3    H227917   6.014   3.514  11.937  1.4365  0.2553 -0.8797
 2168TIP3   OH227918   6.645   1.822   6.016 -0.0395 -0.1384 -0.2901
 2168TIP3    H127919   6.617   1.733   6.037  0.4072 -0.4293 -0.9358
 2168TIP3    H227920   6.606   1.840   5.931 -0.6612  0.5246  0.1301
 2169TIP3   OH227921   4.042   0.552  15.521  0.1660 -0.2783  0.4236
 2169TIP3    H127922   4.055   0.493  15.447  1.6158 -2.8053  2.6056
 2169TIP3    H227923   3.956   0.529  15.555  0.1713 -0.2081  0.4834
 2170TIP3   OH227924   3.638   3.075   2.012  0.5735 -0.2713  0.1760
 2170TIP3    H127925   3.724   3.115   2.023  0.7746 -0.4517 -0.6604
 2170TIP3    H227926   3.644   2.991   2.058  0.8268 -0.2491  0.1835
 2171TIP3   OH227927   4.791   1.171  12.079 -0.3694  0.0645 -0.7604
 2171TIP3    H127928   4.835   1.231  12.019 -1.5102  0.2768 -1.4081
 2171TIP3    H227929   4.726   1.127  12.025 -1.0603 -0.1120  0.2056
 2172TIP3   OH227930   3.965   1.081   4.918 -0.4468  0.4847 -0.5540
 2172TIP3    H127931   3.880   1.122   4.900 -0.8366 -0.4625 -0.9263
 2172TIP3    H227932   3.957   0.994   4.880  0.1322 -0.1740  0.8257
 2173TIP3   OH227933   5.108   4.359   4.792 -0.6067 -0.3047 -0.2003
 2173TIP3    H127934   5.075   4.273   4.819 -2.3770  0.4342  0.0850
 2173TIP3    H227935   5.035   4.419   4.809  0.7182  1.3168 -0.0704
 2174TIP3   OH227936   2.904   4.606   4.610  0.3222  0.0461 -0.5525
 2174TIP3    H127937   2.985   4.591   4.562  0.2105  0.4355 -0.8660
 2174TIP3    H227938   2.916   4.691   4.652 -0.6828  0.9979 -2.1705
 2175TIP3   OH227939   4.701   3.622   5.326 -0.4999 -0.1809 -0.1215
 2175TIP3    H127940   4.734   3.542   5.285 -1.4651  0.1838 -1.6174
 2175TIP3    H227941   4.778   3.662   5.365  0.0430 -1.6916  0.4054
 2176TIP3   OH227942   6.053   1.640  12.069  0.0092 -0.1912 -0.1273
 2176TIP3    H127943   6.099   1.558  12.049 -1.7356 -1.1164 -0.4465
 2176TIP3    H227944   5.986   1.614  12.132 -0.1971  1.1110  0.1915
 2177TIP3   OH227945   0.719   4.480   0.700 -0.3256  0.0521  0.1123
 2177TIP3    H127946   0.790   4.476   0.764 -0.3011  2.4752  0.2770
 2177TIP3    H227947   0.650   4.426   0.737  1.5090 -2.5949 -0.1979
 2178TIP3   OH227948   3.200   0.919  16.740  0.6094  0.5017  0.0079
 2178TIP3    H127949   3.145   0.996  16.752  0.0324  0.1247 -0.2485
 2178TIP3    H227950   3.164   0.854  16.800 -0.0566 -0.1926 -1.1364
 2179TIP3   OH227951   4.030   5.086   5.437  0.0553 -0.1502 -0.1047
 2179TIP3    H127952   4.101   5.081   5.501 -1.4318 -0.7138  1.5361
 2179TIP3    H227953   4.070   5.126   5.360  2.0094  0.0645  0.9930
 2180TIP3   OH227954   3.194   1.446   5.426  0.0390 -0.5856 -0.8010
 2180TIP3    H127955   3.245   1.433   5.346  2.6732  2.5109  0.2660
 2180TIP3    H227956   3.232   1.385   5.489  0.7882 -0.0755 -0.7465
 2181TIP3   OH227957   3.040   4.323  11.388  0.0258  0.8138  0.1071
 2181TIP3    H127958   3.055   4.261  11.460  0.4301  3.1768  2.1252
 2181TIP3    H227959   3.127   4.349  11.360 -0.1493  1.5752  0.2572
 2182TIP3   OH227960   5.827   0.540   6.547 -0.1643 -0.7199 -0.4825
 2182TIP3    H127961   5.884   0.586   6.484  1.9833 -0.6191  1.4667
 2182TIP3    H227962   5.795   0.609   6.605  1.3187 -1.3548  1.1276
 2183TIP3   OH227963   6.429   5.446   2.553 -0.1302 -0.5089 -0.9263
 2183TIP3    H127964   6.506   5.428   2.606  0.6838  1.1964 -1.5097
 2183TIP3    H227965   6.405   5.361   2.516 -0.6613 -1.7453  2.0394
 2184TIP3   OH227966   2.385   1.056  13.102  0.5586 -0.6121  0.4813
 2184TIP3    H127967   2.458   1.071  13.162  1.0908 -1.7929  0.1352
 2184TIP3    H227968   2.307   1.076  13.153  1.1176  0.6017  0.8682
 2185TIP3   OH227969   2.565   1.046  11.960  0.1031 -0.3966 -0.0195
 2185TIP3    H127970   2.601   1.070  11.875  0.5307  0.0427  0.2824
 2185TIP3    H227971   2.633   1.070  12.022 -1.0308  1.1769  0.6426
 2186TIP3   OH227972   5.953   5.074  12.642  0.2509  0.2199  0.0668
 2186TIP3    H127973   5.959   5.115  12.556 -0.4759  0.6028  0.1932
 2186TIP3    H227974   5.903   4.994  12.626 -1.0162  0.9472  0.3561
 2187TIP3   OH227975   0.171   4.327  16.461  0.2086 -0.7321  0.2047
 2187TIP3    H127976   0.120   4.248  16.479 -0.7359  0.0319  0.8864
 2187TIP3    H227977   0.113   4.399  16.482  0.6070  0.1777 -1.7220
 2188TIP3   OH227978   4.166   6.050   4.723 -0.1194 -0.5192  0.1432
 2188TIP3    H127979   4.255   6.031   4.755  0.0295 -1.8777 -0.9989
 2188TIP3    H227980   4.138   5.968   4.682 -1.9246 -0.1089  0.5327
 2189TIP3   OH227981   4.951   3.742   4.502 -0.1073 -0.1850  0.3634
 2189TIP3    H127982   5.021   3.779   4.556 -0.1688  1.0945 -0.3833
 2189TIP3    H227983   4.996   3.688   4.437  0.1727  0.3676  0.0947
 2190TIP3   OH227984   1.121   2.003   4.254  0.4055  0.2068 -0.1111
 2190TIP3    H127985   1.037   2.044   4.237 -0.8941 -1.9671  0.8109
 2190TIP3    H227986   1.144   2.031   4.343  0.8853  1.1792 -0.5428
 2191TIP3   OH227987   5.490   5.417   2.026  0.5829  0.0578  0.9776
 2191TIP3    H127988   5.468   5.324   2.014 -0.8659  0.4898  0.1352
 2191TIP3    H227989   5.575   5.416   2.071 -0.4852 -1.6955  3.0893
 2192TIP3   OH227990   4.869   4.499   0.714 -0.0675 -0.3223  0.0185
 2192TIP3    H127991   4.821   4.436   0.768 -0.8435  1.0399  0.9410
 2192TIP3    H227992   4.933   4.537   0.773 -1.4999  1.8090  0.2395
 2193TIP3   OH227993   4.809   0.869  13.869 -0.1684 -0.2340 -0.3247
 2193TIP3    H127994   4.869   0.905  13.935  0.5619  0.3062 -1.2784
 2193TIP3    H227995   4.853   0.790  13.837  0.2039  0.3584 -1.2835
 2194TIP3   OH227996   3.038   5.585   5.739 -0.2262 -0.3037  0.4654
 2194TIP3    H127997   2.976   5.629   5.797 -0.1063 -0.6703  0.8755
 2194TIP3    H227998   3.094   5.655   5.706 -0.2857 -0.0931  0.8076
 2195TIP3   OH227999   4.076   6.419  13.089  0.6843 -0.1710  0.6716
 2195TIP3    H128000   4.147   6.480  13.108  0.5960  0.1320  0.0455
 2195TIP3    H228001   4.028   6.459  13.016 -1.3299  0.5998  2.3662
 2196TIP3   OH228002   1.555   4.255  12.116  0.3914 -0.4108  0.1016
 2196TIP3    H128003   1.552   4.179  12.175 -3.3145 -1.7650 -1.6519
 2196TIP3    H228004   1.488   4.314  12.150 -0.2616 -0.2376 -1.4470
 2197TIP3   OH228005   4.689   4.655   6.130 -0.7572 -0.2332  0.5125
 2197TIP3    H128006   4.615   4.716   6.125 -0.3101  0.3184  0.5424
 2197TIP3    H228007   4.703   4.642   6.224 -2.3827 -2.2700  0.4839
 2198TIP3   OH228008   0.074   4.812   3.818  0.1450  0.3329  0.1323
 2198TIP3    H128009   0.010   4.799   3.887  0.6647  0.6964  0.6827
 2198TIP3    H228010   0.044   4.755   3.747 -0.6200  0.2812  0.4931
 2199TIP3   OH228011   0.254   5.213  12.546 -0.7510 -0.0173 -0.1131
 2199TIP3    H128012   0.213   5.177  12.625 -0.9097  0.2479 -0.0718
 2199TIP3    H228013   0.340   5.242  12.576 -0.6839 -0.2225 -0.1100
 2200TIP3   OH228014   1.878   1.934   1.482  0.3470 -0.2586 -0.2350
 2200TIP3    H128015   1.834   1.857   1.447  0.6551  0.0697 -1.3964
 2200TIP3    H228016   1.823   1.963   1.554 -1.2366 -0.0030 -1.5070
 2201TIP3   OH228017   3.963   5.993   2.542  0.6982 -0.3539 -0.7630
 2201TIP3    H128018   3.906   5.933   2.494  0.9728  0.6952 -2.4567
 2201TIP3    H228019   3.948   5.973   2.634 -0.6170 -1.7191 -1.2625
 2202TIP3   OH228020   6.690   6.601   4.224  0.2336 -0.3369  0.2569
 2202TIP3    H128021   6.663   6.643   4.142  2.1040 -2.1808 -1.3814
 2202TIP3    H228022   6.771   6.646   4.248  0.6914 -1.0335  0.0516
 2203TIP3   OH228023   2.036   6.521   1.568  0.0952 -0.5032 -0.5159
 2203TIP3    H128024   2.049   6.477   1.485 -0.0677  1.0451 -1.3796
 2203TIP3    H228025   2.005   6.609   1.545  1.9573  0.6485  1.0881
 2204TIP3   OH228026   4.157   6.369   3.959 -0.3286 -0.7211 -0.3187
 2204TIP3    H128027   4.224   6.394   3.895  0.4186  1.9285  1.3938
 2204TIP3    H228028   4.135   6.278   3.938  0.2489 -0.0604 -3.9690
 2205TIP3   OH228029   3.341   0.599   5.324  0.2922  0.2743  0.5885
 2205TIP3    H128030   3.309   0.645   5.401 -2.8500  2.0734 -1.6425
 2205TIP3    H228031   3.392   0.665   5.276 -0.9626  0.3184 -0.7182
 2206TIP3   OH228032   6.566   1.781  11.527  0.1668 -0.3793 -0.7110
 2206TIP3    H128033   6.583   1.687  11.518  0.2831 -0.4419  0.1334
 2206TIP3    H228034   6.556   1.794  11.621 -1.4898  0.1791 -0.9514
 2207TIP3   OH228035   2.052   6.445   4.564  0.0471  0.3537 -0.2070
 2207TIP3    H128036   1.988   6.516   4.556  0.1819  0.3328 -1.7539
 2207TIP3    H228037   2.103   6.451   4.483 -0.2994 -1.8400 -0.6194
 2208TIP3   OH228038   4.676   1.709   4.522  0.2995 -0.1308  1.3226
 2208TIP3    H128039   4.762   1.723   4.482 -1.1120 -0.2585 -1.8393
 2208TIP3    H228040   4.665   1.784   4.581  1.1647  1.7386 -0.8005
 2209TIP3   OH228041   0.925   5.170  11.316 -0.1743  0.0817 -0.0459
 2209TIP3    H128042   0.979   5.195  11.391 -1.0539 -0.8269  0.8949
 2209TIP3    H228043   0.955   5.083  11.292 -0.6830 -0.0973 -0.0321
 2210TIP3   OH228044   1.429   1.855  12.819 -0.4223  0.2659  0.1248
 2210TIP3    H128045   1.442   1.806  12.900  0.1808 -1.7594 -1.1529
 2210TIP3    H228046   1.343   1.827  12.788 -1.6205  2.6656  1.1218
 2211TIP3   OH228047   2.881   4.994   1.926  0.0337 -0.1070 -0.2875
 2211TIP3    H128048   2.871   5.089   1.929  0.2893 -0.0907  0.1756
 2211TIP3    H228049   2.894   4.969   2.018 -1.0994 -0.7079 -0.2924
 2212TIP3   OH228050   1.385   0.759  13.885 -0.7348  1.5347 -0.3620
 2212TIP3    H128051   1.322   0.724  13.822 -2.4440 -0.7436  2.5101
 2212TIP3    H228052   1.457   0.696  13.884 -1.7097  0.3488  1.4185
 2213TIP3   OH228053   3.067   5.177   6.184 -0.1476 -0.0296  0.3345
 2213TIP3    H128054   3.061   5.122   6.262  1.5065  0.4518  0.8362
 2213TIP3    H228055   3.122   5.126   6.124 -0.3263  0.1682  0.0060
 2214TIP3   OH228056   5.555   2.547  11.299 -0.3822 -0.2114 -0.3269
 2214TIP3    H128057   5.472   2.507  11.274 -1.2602 -0.5126  2.7806
 2214TIP3    H228058   5.545   2.640  11.279 -1.0407 -0.4158 -0.9626
 2215TIP3   OH228059   4.488   6.661  12.608  0.0365  0.2197 -0.1766
 2215TIP3    H128060   4.427   6.593  12.579  0.0228  0.7452 -1.4267
 2215TIP3    H228061   4.448   6.697  12.687 -0.4382 -0.5780 -0.0498
 2216TIP3   OH228062   5.508   6.638   3.623  0.1023 -0.4829  0.0458
 2216TIP3    H128063   5.567   6.634   3.699 -1.2437  0.7345  1.1982
 2216TIP3    H228064   5.511   6.729   3.596 -0.0355 -0.7542 -0.8830
 2217TIP3   OH228065   2.493   5.712   6.046  0.4442 -0.0922 -0.9383
 2217TIP3    H128066   2.414   5.749   6.085  0.4567 -1.8158  0.7881
 2217TIP3    H228067   2.554   5.786   6.041  0.1516  0.3774  1.5730
 2218TIP3   OH228068   1.911   2.450   4.032  0.5966  0.9703  0.6626
 2218TIP3    H128069   1.839   2.449   3.969  0.1588  1.6153  1.1383
 2218TIP3    H228070   1.869   2.472   4.115  1.1928  0.2986  1.1451
 2219TIP3   OH228071   6.603   0.846  15.020 -0.2415 -0.0089  1.3452
 2219TIP3    H128072   6.534   0.832  15.085  0.7943  0.0886  2.4786
 2219TIP3    H228073   6.666   0.904  15.063  0.3915  0.1546  0.2140
 2220TIP3   OH228074   6.144   5.734   0.632  0.1166  0.2676  0.4913
 2220TIP3    H128075   6.102   5.667   0.579  1.7641 -0.2824 -0.1608
 2220TIP3    H228076   6.092   5.813   0.618 -0.8910 -0.4868 -0.0061
 2221TIP3   OH228077   0.133   3.652  16.296 -0.2594  0.1369 -0.3479
 2221TIP3    H128078   0.186   3.647  16.376  1.1604 -0.3515 -1.3045
 2221TIP3    H228079   0.154   3.572  16.248 -2.1853 -0.2578 -0.5665
 2222TIP3   OH228080   1.325   3.838  13.622 -0.7735  0.0319  0.1646
 2222TIP3    H128081   1.382   3.884  13.561 -1.2895  0.5450  0.0650
 2222TIP3    H228082   1.323   3.748  13.590  0.3769 -0.1040  0.4620
 2223TIP3   OH228083   1.491   0.295  16.022  0.0115  0.1302  0.8379
 2223TIP3    H128084   1.443   0.277  16.102 -0.3762 -0.5035  0.4635
 2223TIP3    H228085   1.444   0.247  15.954  1.6150 -1.1289  0.5943
 2224TIP3   OH228086   0.214   0.961   1.046  0.1564 -0.0337 -0.2223
 2224TIP3    H128087   0.289   0.947   0.988  0.1892 -2.1261  0.2579
 2224TIP3    H228088   0.248   0.938   1.133 -0.9043 -0.5222  0.0670
 2225TIP3   OH228089   4.341   2.390   4.319  0.0342  0.1131  0.2888
 2225TIP3    H128090   4.345   2.440   4.401 -0.8777  1.1056 -0.2621
 2225TIP3    H228091   4.418   2.420   4.270 -0.5194  0.9962 -0.0476
 2226TIP3   OH228092   2.031   4.438   1.340  0.1171 -0.0884  0.0698
 2226TIP3    H128093   1.971   4.372   1.304  0.1705 -0.1077  0.0181
 2226TIP3    H228094   1.978   4.483   1.406  0.7626 -1.7327  1.7637
 2227TIP3   OH228095   1.964   1.414  17.045 -0.5422 -0.1646  0.3847
 2227TIP3    H128096   2.002   1.445  16.963 -1.2465  0.5166  0.3152
 2227TIP3    H228097   1.869   1.417  17.031 -0.6418 -2.6232  0.2640
 2228TIP3   OH228098   0.110   0.784   0.494 -0.4664  0.1343 -0.1325
 2228TIP3    H128099   0.106   0.834   0.412 -0.8727 -1.0177 -0.8213
 2228TIP3    H228100   0.168   0.835   0.550  0.8509  0.2743 -1.6008
 2229TIP3   OH228101   1.913   3.604  12.130 -0.3524  0.2346 -0.0457
 2229TIP3    H128102   1.889   3.601  12.038  0.0568  0.9147 -0.1761
 2229TIP3    H228103   1.930   3.513  12.153 -1.2083 -0.0280 -0.4376
 2230TIP3   OH228104   3.500   6.718  14.872  0.1795  0.4512  0.2044
 2230TIP3    H128105   3.407   6.737  14.881 -0.3291 -1.8335  0.2971
 2230TIP3    H228106   3.503   6.625  14.849  2.4390  0.4761  0.2470
 2231TIP3   OH228107   2.264   0.752   0.122  0.2935 -0.4445 -0.4780
 2231TIP3    H128108   2.213   0.673   0.143 -1.7328  0.7507 -0.7127
 2231TIP3    H228109   2.206   0.803   0.065  1.5992  1.1868 -0.3849
 2232TIP3   OH228110   0.121   6.719   5.434 -0.0205  0.2421  0.1897
 2232TIP3    H128111   0.124   6.811   5.409  0.2282  0.7806  2.1814
 2232TIP3    H228112   0.199   6.681   5.394 -0.5701  0.7015 -1.3506
 2233TIP3   OH228113   1.126   0.363   4.662 -0.2471 -0.0374  0.3280
 2233TIP3    H128114   1.031   0.348   4.661 -0.3755  0.8440 -1.1920
 2233TIP3    H228115   1.140   0.423   4.735 -0.9181  0.1611  0.2996
 2234TIP3   OH228116   5.496   2.165  13.316  0.1463 -0.0879 -0.1113
 2234TIP3    H128117   5.436   2.188  13.245  0.8167 -2.3741 -1.4714
 2234TIP3    H228118   5.583   2.186  13.282  0.5353 -1.9127 -0.3194
 2235TIP3   OH228119   3.133   4.583   1.710  0.4849 -0.3991  0.2598
 2235TIP3    H128120   3.226   4.607   1.711  1.4347 -3.7172 -0.3927
 2235TIP3    H228121   3.107   4.586   1.802  1.8253 -1.3548  0.6912
 2236TIP3   OH228122   3.545   6.453   0.529 -0.5566  0.3517  0.2109
 2236TIP3    H128123   3.482   6.391   0.491 -0.5575  0.6481 -0.2746
 2236TIP3    H228124   3.630   6.412   0.514 -0.6083  0.1133  0.5615
 2237TIP3   OH228125   6.662   4.833   1.239  0.2288 -0.0221 -0.2163
 2237TIP3    H128126   6.676   4.773   1.312  0.0439 -0.1797 -0.3115
 2237TIP3    H228127   6.607   4.784   1.178 -1.7871  1.0158  0.7109
 2238TIP3   OH228128   4.777   3.340   3.119  0.1242  0.3953  0.0610
 2238TIP3    H128129   4.708   3.406   3.111 -1.1612 -0.7030  1.6922
 2238TIP3    H228130   4.834   3.372   3.188  1.4856  1.4815 -1.5364
 2239TIP3   OH228131   3.447   5.248   4.308 -0.8026  0.3120  0.0558
 2239TIP3    H128132   3.426   5.338   4.282 -3.4688  0.3287  2.0666
 2239TIP3    H228133   3.375   5.196   4.273  1.0753 -1.1794 -1.6866
 2240TIP3   OH228134   5.797   3.434   0.593  0.0956  0.6255 -0.9147
 2240TIP3    H128135   5.768   3.525   0.585 -2.6172  0.0771  1.7253
 2240TIP3    H228136   5.869   3.437   0.657 -0.2076  0.8604 -0.5862
 2241TIP3   OH228137   1.808   6.512  13.431  0.3433  0.5615 -0.0171
 2241TIP3    H128138   1.717   6.543  13.424 -0.0581 -0.7913 -0.9282
 2241TIP3    H228139   1.801   6.417  13.427  1.8061  0.4506 -0.0211
 2242TIP3   OH228140   4.185   6.140   3.487  0.1205  0.0041 -0.1573
 2242TIP3    H128141   4.139   6.156   3.405 -1.4694  0.3375  0.7689
 2242TIP3    H228142   4.200   6.046   3.489 -0.3605 -0.0807 -0.5682
 2243TIP3   OH228143   1.058   3.545   3.993  0.4263 -0.3982 -0.0334
 2243TIP3    H128144   1.012   3.500   3.922 -0.8488 -1.4511  1.4165
 2243TIP3    H228145   1.063   3.480   4.063 -0.5540  1.3785  1.7283
 2244TIP3   OH228146   6.586   0.522   4.518 -0.0078 -0.2385  0.1590
 2244TIP3    H128147   6.511   0.547   4.464 -0.1254  1.6664  1.1903
 2244TIP3    H228148   6.582   0.580   4.594  1.4058 -1.4279  1.1664
 2245TIP3   OH228149   6.258   6.669  15.322  0.3210  0.0610  0.3777
 2245TIP3    H128150   6.171   6.632  15.308  0.6502 -0.0473 -1.5756
 2245TIP3    H228151   6.250   6.759  15.291  0.7205  0.2554  0.8428
 2246TIP3   OH228152   5.070   3.530  16.486 -0.1232 -0.8723 -0.6988
 2246TIP3    H128153   5.123   3.466  16.534 -0.2158 -1.0905 -0.8846
 2246TIP3    H228154   5.004   3.558  16.548  0.6823 -0.0196 -0.2225
 2247TIP3   OH228155   2.681   3.913  10.806  1.0209 -0.2009  0.3077
 2247TIP3    H128156   2.665   3.903  10.713 -0.8728  3.4303  0.1669
 2247TIP3    H228157   2.776   3.919  10.814  1.2176 -0.9231 -1.3026
 2248TIP3   OH228158   2.800   4.353  16.044 -0.5893 -0.6259  0.2800
 2248TIP3    H128159   2.738   4.366  16.116 -0.7027  0.3767  0.0065
 2248TIP3    H228160   2.834   4.441  16.026  2.4472 -1.4463  1.7763
 2249TIP3   OH228161   0.293   4.399  15.851  0.6404 -0.8235  0.3378
 2249TIP3    H128162   0.268   4.338  15.781 -0.2899 -0.1198  0.0521
 2249TIP3    H228163   0.221   4.395  15.913 -0.1056  1.0295 -0.3757
 2250TIP3   OH228164   2.325   3.236  10.504  0.7409 -0.7150 -0.3108
 2250TIP3    H128165   2.293   3.158  10.460  0.5362 -1.5658  1.3072
 2250TIP3    H228166   2.414   3.213  10.532  0.8420 -0.2115 -0.2119
 2251TIP3   OH228167   5.274   3.185   4.035 -0.5931  0.0325 -0.1366
 2251TIP3    H128168   5.273   3.211   4.128 -2.2388 -1.4205  0.2716
 2251TIP3    H228169   5.187   3.149   4.019 -0.1355 -0.2402 -2.1194
 2252TIP3   OH228170   2.999   1.815   1.980  0.2634 -0.2099 -0.2408
 2252TIP3    H128171   2.927   1.832   2.040  0.8354 -0.4455  0.5263
 2252TIP3    H228172   2.964   1.835   1.894 -0.1873  1.3703  0.2829
 2253TIP3   OH228173   1.850   5.446   3.365  0.1787 -0.1500  0.1648
 2253TIP3    H128174   1.924   5.499   3.337  0.4383 -0.2309  0.6796
 2253TIP3    H228175   1.890   5.373   3.413 -0.2353 -0.1488  0.5172
 2254TIP3   OH228176   3.423   1.336   3.615  0.9964  0.0568 -0.2148
 2254TIP3    H128177   3.479   1.353   3.691 -0.5797 -0.5399  1.1259
 2254TIP3    H228178   3.379   1.419   3.598 -0.5052 -0.4331  1.1209
 2255TIP3   OH228179   0.028   2.383  13.068  0.1062 -0.0087  0.0714
 2255TIP3    H128180  -0.002   2.292  13.067 -1.0582  0.3414  1.2547
 2255TIP3    H228181   0.051   2.399  13.160 -1.6419  1.4970  0.2724
 2256TIP3   OH228182   4.987   0.365  15.684  0.4539 -0.5470 -0.3709
 2256TIP3    H128183   4.899   0.374  15.721  0.2798  1.6719 -1.2327
 2256TIP3    H228184   4.975   0.310  15.606 -0.1067 -0.6471 -0.2123
 2257TIP3   OH228185   1.865   6.503  15.850 -0.0219  0.6277  0.8110
 2257TIP3    H128186   1.850   6.413  15.879  1.6943  0.4146  1.0850
 2257TIP3    H228187   1.821   6.509  15.765 -0.4417 -0.3639  0.9551
 2258TIP3   OH228188   2.654   0.863  15.575 -0.2704 -0.4602 -0.5372
 2258TIP3    H128189   2.721   0.897  15.515 -0.1781 -0.5222 -0.4698
 2258TIP3    H228190   2.652   0.925  15.647  0.3835 -0.9695 -0.0813
 2259TIP3   OH228191   5.248   3.304  12.411 -0.1754  0.0586  0.2332
 2259TIP3    H128192   5.272   3.374  12.472  3.6229 -1.1019  0.1718
 2259TIP3    H228193   5.260   3.343  12.324  0.3608 -0.1946  0.1978
 2260TIP3   OH228194   6.615   6.645   2.441  0.4283  0.1431 -0.4908
 2260TIP3    H128195   6.548   6.693   2.489  1.8099 -0.6536  2.3239
 2260TIP3    H228196   6.671   6.713   2.404  0.1095  0.7523  0.1304
 2261TIP3   OH228197   0.429   4.398   0.757 -0.3977 -0.3915  0.6831
 2261TIP3    H128198   0.348   4.347   0.758 -1.1856  0.8522  0.9676
 2261TIP3    H228199   0.450   4.411   0.849  0.9406 -1.9572  0.6242
 2262TIP3   OH228200   4.446   3.038  11.860 -0.3289  0.2407 -0.3811
 2262TIP3    H128201   4.413   2.948  11.867  2.3130 -0.7629 -0.4624
 2262TIP3    H228202   4.367   3.092  11.851 -2.0760 -1.8164  2.1411
 2263TIP3   OH228203   0.201   4.164  11.548  0.0890  0.0665  0.0131
 2263TIP3    H128204   0.156   4.244  11.521  1.6264  1.6011  1.8667
 2263TIP3    H228205   0.180   4.154  11.641 -0.5165 -2.0128 -0.3050
 2264TIP3   OH228206   0.353   6.292   5.291  0.3513 -0.1012 -0.1656
 2264TIP3    H128207   0.440   6.308   5.253  0.3759 -1.0041 -0.4913
 2264TIP3    H228208   0.370   6.229   5.362 -0.1327 -0.8328 -0.6947
 2265TIP3   OH228209   4.371   2.378   3.976 -0.0977 -0.0697  0.1322
 2265TIP3    H128210   4.411   2.294   3.996 -1.4266 -0.7664 -0.0861
 2265TIP3    H228211   4.282   2.357   3.947 -0.0162  1.3041 -1.2196
 2266TIP3   OH228212   1.910   0.294   1.875 -0.2612 -0.2786  0.7474
 2266TIP3    H128213   1.942   0.374   1.833  1.3070 -1.5204 -0.5182
 2266TIP3    H228214   1.825   0.277   1.832 -1.2903  1.4589  2.0501
 2267TIP3   OH228215   1.567   5.382  13.105  0.0718  0.1295  0.3158
 2267TIP3    H128216   1.533   5.471  13.099 -0.9905 -0.3267 -0.6777
 2267TIP3    H228217   1.652   5.386  13.060  0.3426  0.7915  0.8884
 2268TIP3   OH228218   1.328   1.410   3.947  0.0640  0.5220 -0.1856
 2268TIP3    H128219   1.350   1.380   3.859  0.2599 -0.4939  0.1931
 2268TIP3    H228220   1.286   1.495   3.934  0.8245  0.7516 -1.1944
 2269TIP3   OH228221   1.197   1.165   3.194  0.0409  0.5831 -0.2140
 2269TIP3    H128222   1.106   1.140   3.212  0.7882 -0.7338  1.7837
 2269TIP3    H228223   1.215   1.126   3.108 -1.4170  1.3147 -0.8898
 2270TIP3   OH228224   6.506   1.001   5.324  0.0840 -0.0139 -0.0530
 2270TIP3    H128225   6.438   1.025   5.388  1.0726 -1.5251  1.6207
 2270TIP3    H228226   6.587   0.999   5.375  1.5065  2.3013 -2.1504
 2271TIP3   OH228227   1.993   1.368  14.672  0.1855 -0.6432  1.2074
 2271TIP3    H128228   1.913   1.329  14.637  0.3396  0.4037 -0.3196
 2271TIP3    H228229   2.018   1.435  14.609  3.6100 -2.5469  0.3763
 2272TIP3   OH228230   6.484   6.649  12.229 -0.0261  0.2237  0.3123
 2272TIP3    H128231   6.484   6.723  12.289  0.1246  1.8601 -1.6401
 2272TIP3    H228232   6.393   6.640  12.202  0.3577  1.4652 -1.5087
 2273TIP3   OH228233   3.931   3.309   4.505  0.0785 -0.3653 -0.2239
 2273TIP3    H128234   3.865   3.248   4.539 -0.0505 -0.5837 -0.8600
 2273TIP3    H228235   3.884   3.392   4.496 -0.0977 -0.5065 -0.6237
 2274TIP3   OH228236   3.231   6.025  11.745 -0.4001 -0.5736 -0.3056
 2274TIP3    H128237   3.226   6.046  11.839  0.4882 -0.2351 -0.3274
 2274TIP3    H228238   3.299   5.958  11.739 -0.8356 -0.9950 -0.6515
 2275TIP3   OH228239   4.974   4.815   2.638  0.0340 -0.1846  0.2852
 2275TIP3    H128240   4.985   4.754   2.565  0.1304 -0.0892  0.2194
 2275TIP3    H228241   4.896   4.866   2.615 -0.4583 -0.7516  0.6746
 2276TIP3   OH228242   5.583   6.664  15.040 -0.4600  0.2864 -0.0491
 2276TIP3    H128243   5.666   6.691  15.002  0.0717 -0.5732  0.4761
 2276TIP3    H228244   5.523   6.659  14.966  0.4723 -1.0387 -0.7222
 2277TIP3   OH228245   0.478   4.757   2.985 -0.5361  0.0705  0.3951
 2277TIP3    H128246   0.545   4.825   2.993 -0.2126 -0.1973  0.0103
 2277TIP3    H228247   0.434   4.756   3.070 -1.6023  1.8598 -0.0967
 2278TIP3   OH228248   1.648   3.238   3.538 -0.2077 -0.2316 -0.3290
 2278TIP3    H128249   1.583   3.168   3.549 -0.3157 -0.1167 -0.2429
 2278TIP3    H228250   1.700   3.235   3.618 -2.8589  2.5752  1.6296
 2279TIP3   OH228251   6.323   5.292  13.385 -0.3645 -0.4145 -0.1195
 2279TIP3    H128252   6.349   5.252  13.468 -1.9106 -0.6748  0.2396
 2279TIP3    H228253   6.228   5.292  13.386 -0.4046 -0.0733 -1.7319
 2280TIP3   OH228254   3.611   3.677  17.015  0.5107  0.3940 -0.4866
 2280TIP3    H128255   3.534   3.621  17.019 -0.5075  1.7282 -1.1917
 2280TIP3    H228256   3.677   3.632  17.068 -0.1616 -1.6634 -1.3662
 2281TIP3   OH228257   0.204   0.280  16.462  0.3000 -0.0612  0.3434
 2281TIP3    H128258   0.154   0.311  16.386 -0.7473 -0.5513  0.8221
 2281TIP3    H228259   0.161   0.320  16.537  0.6485 -0.4594  0.7568
 2282TIP3   OH228260   0.489   4.318  11.077 -0.3684  0.3225 -0.0140
 2282TIP3    H128261   0.573   4.319  11.123  0.3666  0.9864 -1.3441
 2282TIP3    H228262   0.453   4.405  11.090 -0.1525  0.5179 -0.6885
 2283TIP3   OH228263   5.782   0.498  14.410  0.0225 -0.0973 -0.1521
 2283TIP3    H128264   5.773   0.521  14.502  1.6727  3.0315 -0.6915
 2283TIP3    H228265   5.720   0.555  14.365  1.7041  0.8618 -1.2671
 2284TIP3   OH228266   0.794   1.019   2.354  0.6835 -0.0752 -0.4041
 2284TIP3    H128267   0.849   1.068   2.416  1.5690  0.6779 -1.7540
 2284TIP3    H228268   0.786   0.932   2.393  0.8451  0.5180  0.9935
 2285TIP3   OH228269   6.368   4.955  15.930  0.2953  0.3179 -0.0305
 2285TIP3    H128270   6.331   5.040  15.908  0.2994  0.1668 -0.6486
 2285TIP3    H228271   6.445   4.947  15.873 -0.9255 -1.0048 -1.5682
 2286TIP3   OH228272   0.013   0.990  17.010  0.7793 -0.2733 -0.5659
 2286TIP3    H128273  -0.017   1.054  16.946  0.9550 -2.6295 -3.0972
 2286TIP3    H228274  -0.065   0.970  17.062  0.0567 -0.0600 -1.5525
 2287TIP3   OH228275   4.379   3.804  14.246  0.4520 -0.2790 -0.0456
 2287TIP3    H128276   4.450   3.800  14.311  1.8684 -0.2485 -1.5592
 2287TIP3    H228277   4.378   3.717  14.207 -0.9236 -0.5377  0.5436
 2288TIP3   OH228278   1.553   5.288  17.210  0.5975  0.1050 -0.1690
 2288TIP3    H128279   1.525   5.230  17.139  2.0320  0.1086 -0.7649
 2288TIP3    H228280   1.533   5.240  17.290 -1.0471  0.1021 -0.5639
 2289TIP3   OH228281   4.020   2.860  12.830  0.2080 -0.1459 -0.0141
 2289TIP3    H128282   3.984   2.921  12.765 -1.1116 -1.0739 -0.1807
 2289TIP3    H228283   4.114   2.861  12.813  0.1349  1.3004 -0.4796
 2290TIP3   OH228284   4.079   2.364  12.101  0.0391  0.5695  0.5115
 2290TIP3    H128285   4.147   2.327  12.045 -0.8487  0.0241 -0.2131
 2290TIP3    H228286   4.065   2.299  12.169 -1.0622 -0.1610 -0.3941
 2291TIP3   OH228287   4.093   3.818  11.103 -0.1537  0.2611 -0.0210
 2291TIP3    H128288   4.074   3.806  11.010 -0.6475 -1.4702  0.2898
 2291TIP3    H228289   4.054   3.903  11.125 -2.3566 -0.5366 -0.7806
 2292TIP3   OH228290   2.411   6.412  12.856 -1.1163 -0.0619 -0.3531
 2292TIP3    H128291   2.456   6.330  12.833  2.1387  0.9658  2.0208
 2292TIP3    H228292   2.437   6.473  12.788 -0.9664 -0.1665 -0.3912
 2293TIP3   OH228293   0.690   5.652  14.180  0.3778  0.7018 -0.0043
 2293TIP3    H128294   0.598   5.633  14.199  0.5564 -1.8302 -1.4750
 2293TIP3    H228295   0.739   5.598  14.242  0.8869  0.8126 -0.3113
 2294TIP3   OH228296   6.109   4.752  16.367 -0.5804  0.5843 -0.3815
 2294TIP3    H128297   6.062   4.798  16.437 -0.8424 -0.2834  0.0183
 2294TIP3    H228298   6.057   4.766  16.289 -0.6713  0.9444 -0.2562
 2295TIP3   OH228299   1.960   3.910  16.023  0.2306  0.2756  0.1461
 2295TIP3    H128300   1.969   3.938  15.932 -2.2332 -1.3208 -0.6185
 2295TIP3    H228301   2.024   3.840  16.033  2.3497  2.1601  0.4493
 2296TIP3   OH228302   5.570   2.631  15.504 -0.3193 -0.0918  0.0960
 2296TIP3    H128303   5.649   2.643  15.557 -0.7433 -0.6328  0.8490
 2296TIP3    H228304   5.502   2.679  15.551 -0.2190  1.2571 -1.0954
 2297TIP3   OH228305   3.791   0.465  15.576 -0.0023 -0.2334  0.0979
 2297TIP3    H128306   3.767   0.441  15.665  0.0367  0.3362  0.2629
 2297TIP3    H228307   3.782   0.384  15.526 -0.4297 -0.4551  0.5361
 2298TIP3   OH228308   5.383   0.115  16.100  0.4342  0.6010 -0.3582
 2298TIP3    H128309   5.458   0.173  16.086  0.8011 -0.2541 -2.0347
 2298TIP3    H228310   5.321   0.139  16.032 -2.0374  3.1339  2.6048
 2299TIP3   OH228311   2.810   0.513   3.607 -0.4826 -0.1251 -0.5406
 2299TIP3    H128312   2.748   0.567   3.559 -0.4793  0.7690  0.4524
 2299TIP3    H228313   2.757   0.440   3.641 -1.1806  1.0952  1.0458
 2300TIP3   OH228314   2.452   0.541   0.011  0.1261  0.2675 -0.7951
 2300TIP3    H128315   2.493   0.543  -0.076  0.2267  1.8398 -0.7224
 2300TIP3    H228316   2.393   0.615   0.011  1.3163  1.2538  1.0515
 2301TIP3   OH228317   2.521   4.096  16.427  0.5146  0.0647 -0.3352
 2301TIP3    H128318   2.498   4.003  16.419 -2.6651  0.7671  0.1303
 2301TIP3    H228319   2.583   4.099  16.500  1.0339 -1.7413 -0.6779
 2302TIP3   OH228320   6.143   4.470  14.268 -0.2358 -0.0348  0.6844
 2302TIP3    H128321   6.189   4.553  14.262 -1.5791  0.6316 -0.7079
 2302TIP3    H228322   6.050   4.494  14.272 -0.6722 -1.4808 -0.4443
 2303TIP3   OH228323   4.245   2.713   4.758 -0.0712  0.5486  0.4989
 2303TIP3    H128324   4.251   2.806   4.735  0.7057  0.5297  0.6112
 2303TIP3    H228325   4.172   2.680   4.705  1.0127  0.7412 -1.1370
 2304TIP3   OH228326   3.049   3.264   3.938 -0.2048 -0.2776 -0.1971
 2304TIP3    H128327   2.977   3.326   3.926 -0.6665 -0.8008 -0.1603
 2304TIP3    H228328   3.030   3.221   4.022 -0.1704 -0.8376 -0.4727
 2305TIP3   OH228329   5.665   6.173  16.310 -0.0008 -0.3053 -0.8149
 2305TIP3    H128330   5.683   6.131  16.394 -0.6642 -0.7043 -0.8684
 2305TIP3    H228331   5.581   6.217  16.322 -0.2357 -0.5935 -1.3441
 2306TIP3   OH228332   4.364   4.168  12.787  0.2240  0.1284 -0.4967
 2306TIP3    H128333   4.427   4.098  12.773  0.7460  1.0765 -3.2035
 2306TIP3    H228334   4.285   4.124  12.818  1.5412 -1.2796  0.9645
 2307TIP3   OH228335   6.560   3.134  14.982 -0.8856 -0.1964  0.7184
 2307TIP3    H128336   6.548   3.088  15.065  0.5411  0.2271  1.1608
 2307TIP3    H228337   6.523   3.074  14.917  1.3344 -2.2446  1.2364
 2308TIP3   OH228338   3.557   1.672   4.638  0.4562 -0.3163  0.4977
 2308TIP3    H128339   3.544   1.632   4.552  0.7153  0.1953  0.2152
 2308TIP3    H228340   3.479   1.724   4.653 -0.9671 -2.7584  1.9122
 2309TIP3   OH228341   4.904   6.490  14.516  0.0535  0.0094 -0.0615
 2309TIP3    H128342   4.860   6.568  14.481  1.3314  1.0147  0.5284
 2309TIP3    H228343   4.987   6.486  14.467  0.0497 -0.9149  0.0020
 2310TIP3   OH228344   1.899   0.644  12.756  0.1074 -0.3047 -0.1986
 2310TIP3    H128345   1.966   0.667  12.691  0.0870 -0.8148 -0.4049
 2310TIP3    H228346   1.831   0.711  12.745  1.1477  0.9673  0.8724
 2311TIP3   OH228347   1.193   1.331  11.100  0.4653 -0.1660 -0.3373
 2311TIP3    H128348   1.136   1.387  11.048 -0.5401  1.1531  2.1096
 2311TIP3    H228349   1.271   1.384  11.116  0.5574 -0.3879 -0.0547
 2312TIP3   OH228350   1.186   0.229  14.835 -0.0859 -0.9613 -0.1579
 2312TIP3    H128351   1.186   0.321  14.860  0.5345 -0.4319 -2.0407
 2312TIP3    H228352   1.247   0.187  14.896 -0.7038 -0.2224  0.9878
 2313TIP3   OH228353   2.254   0.249  15.202  0.4080 -0.2975  0.0283
 2313TIP3    H128354   2.290   0.212  15.122  0.8463 -4.1345  1.8828
 2313TIP3    H228355   2.327   0.296  15.243  0.9150 -0.6227 -0.5083
 2314TIP3   OH228356   4.050   2.652   4.343  0.2786 -0.0681  0.0822
 2314TIP3    H128357   4.085   2.705   4.272 -0.0352  0.8380  0.5990
 2314TIP3    H228358   4.044   2.712   4.418  1.7755 -1.3009  1.2259
 2315TIP3   OH228359   5.756   2.665   3.258 -0.1775 -1.2055 -0.0612
 2315TIP3    H128360   5.803   2.626   3.185  0.4456 -0.0021 -0.3064
 2315TIP3    H228361   5.806   2.638   3.336 -0.4057 -1.8423 -0.1311
 2316TIP3   OH228362   2.484   2.682  13.323  0.1561  0.2618 -0.5034
 2316TIP3    H128363   2.536   2.608  13.353 -0.2164 -0.3098 -1.2418
 2316TIP3    H228364   2.474   2.668  13.229  0.5763  1.5587 -0.7493
 2317TIP3   OH228365   0.582   3.275   5.282  0.3203  0.2045  0.6412
 2317TIP3    H128366   0.538   3.240   5.359 -0.8495 -1.3311 -0.6964
 2317TIP3    H228367   0.673   3.250   5.293 -0.6018 -4.1195 -0.6729
 2318TIP3   OH228368   0.218   3.507  12.833 -0.3001 -0.6970  0.1631
 2318TIP3    H128369   0.198   3.597  12.806  0.5035 -0.7801 -0.7467
 2318TIP3    H228370   0.140   3.457  12.807 -1.3272 -0.0621  1.8859
 2319TIP3   OH228371   5.797   3.601   4.069 -0.0114  0.7711 -0.2328
 2319TIP3    H128372   5.818   3.568   3.982 -0.7888 -0.8991  0.1880
 2319TIP3    H228373   5.870   3.573   4.124  0.1422  1.2216 -0.2034
 2320TIP3   OH228374   2.403   4.766   1.194  0.3100 -0.0618 -0.8959
 2320TIP3    H128375   2.451   4.778   1.276  1.3837  1.6474 -1.7507
 2320TIP3    H228376   2.422   4.676   1.169 -0.2490 -0.6998  0.8455
 2321TIP3   OH228377   5.622   2.551  11.550 -0.0848  0.1408  0.7849
 2321TIP3    H128378   5.701   2.584  11.508  0.8511 -1.1824  1.4606
 2321TIP3    H228379   5.557   2.549  11.480  1.3363 -1.6635 -0.5500
 2322TIP3   OH228380   5.633   0.280   0.904 -0.0365 -0.4441  0.3287
 2322TIP3    H128381   5.562   0.267   0.966  0.5040 -2.0911  0.6331
 2322TIP3    H228382   5.589   0.301   0.821 -0.8817 -1.5199  0.4949
 2323TIP3   OH228383   1.995   2.997   2.957  0.0588 -0.4506 -0.1149
 2323TIP3    H128384   1.952   3.042   3.030  0.7934  0.8590 -0.4824
 2323TIP3    H228385   1.964   2.907   2.964 -0.6619 -0.1202  1.2203
 2324TIP3   OH228386   5.697   6.584   2.216  0.6875  0.6060 -0.6716
 2324TIP3    H128387   5.725   6.539   2.296 -1.0719  0.8803  0.1204
 2324TIP3    H228388   5.778   6.620   2.180  1.5925 -0.0225  0.6692
 2325TIP3   OH228389   4.177   3.562  12.826 -0.4731  0.3198  0.8652
 2325TIP3    H128390   4.163   3.493  12.891 -0.4099 -0.7496 -0.2321
 2325TIP3    H228391   4.119   3.538  12.753  1.5736 -0.0948 -0.6638
 2326TIP3   OH228392   0.748   5.147  11.111 -0.1094 -0.2210 -0.0881
 2326TIP3    H128393   0.804   5.175  11.183 -0.9349  0.0338  0.4583
 2326TIP3    H228394   0.714   5.062  11.139  0.9643 -0.9555 -0.9576
 2327TIP3   OH228395   3.932   0.708   1.771 -0.1265 -0.1654 -0.1962
 2327TIP3    H128396   4.020   0.681   1.744  0.2826  1.2983 -0.3741
 2327TIP3    H228397   3.878   0.696   1.692 -0.1170 -1.1547 -0.0591
 2328TIP3   OH228398   6.625   5.591   4.147  0.1732  0.5411 -0.4193
 2328TIP3    H128399   6.721   5.596   4.145  0.3241 -0.5449  2.0925
 2328TIP3    H228400   6.605   5.498   4.138 -0.5223  0.5148  1.1398
 2329TIP3   OH228401   3.140   3.872   5.126 -0.3977  0.0660 -0.3269
 2329TIP3    H128402   3.177   3.793   5.086  0.9804 -0.1211  1.2537
 2329TIP3    H228403   3.132   3.851   5.219 -2.8126  0.7673 -0.3544
 2330TIP3   OH228404   0.322   5.688  12.997  0.3065  0.0690  0.0163
 2330TIP3    H128405   0.341   5.670  13.089 -0.3951  1.1434  0.3784
 2330TIP3    H228406   0.260   5.761  12.999  1.3304  1.0013 -1.3321
 2331TIP3   OH228407   1.161   3.473   4.409  0.2524 -0.3105  0.3329
 2331TIP3    H128408   1.114   3.426   4.340 -0.7251 -0.5507  1.1479
 2331TIP3    H228409   1.145   3.421   4.488  1.2113  0.0577  0.7747
 2332TIP3   OH228410   4.734   0.072  12.239  0.4129  0.2338 -0.3225
 2332TIP3    H128411   4.716   0.076  12.145  0.8202 -0.6800 -0.4496
 2332TIP3    H228412   4.750  -0.021  12.256 -1.0833  0.1784  0.9242
 2333TIP3   OH228413   6.493   4.856   0.633  0.2709 -0.1513 -0.3793
 2333TIP3    H128414   6.404   4.869   0.665  0.7174 -2.6593  2.0748
 2333TIP3    H228415   6.500   4.761   0.618  2.4918  0.0024 -0.5621
 2334TIP3   OH228416   5.462   2.779   0.491 -0.3403 -0.5724 -0.1032
 2334TIP3    H128417   5.401   2.759   0.561 -1.2513  0.0766 -0.6927
 2334TIP3    H228418   5.407   2.816   0.421  0.8593  1.0490 -0.2194
 2335TIP3   OH228419   1.574   6.621  13.366 -0.4478  0.4449  0.0842
 2335TIP3    H128420   1.562   6.715  13.372 -0.3277  0.4136  0.7972
 2335TIP3    H228421   1.490   6.587  13.336 -1.0907  0.5727  1.7416
 2336TIP3   OH228422   1.256   2.768   2.190 -0.1594  0.2463 -0.0114
 2336TIP3    H128423   1.184   2.715   2.222 -0.8765  0.9378 -0.4729
 2336TIP3    H228424   1.327   2.705   2.175 -0.9217 -0.5462 -0.3336
 2337TIP3   OH228425   4.491   6.188  16.760  0.5630  0.2144 -0.2370
 2337TIP3    H128426   4.461   6.136  16.685 -0.5397  0.1490  0.2493
 2337TIP3    H228427   4.461   6.277  16.741  0.4383  0.2310  0.0364
 2338TIP3   OH228428   4.326   0.128   1.843  0.1113  0.4048 -0.3179
 2338TIP3    H128429   4.255   0.066   1.830 -0.8559  1.3915  0.1121
 2338TIP3    H228430   4.283   0.214   1.842  1.1846  0.9697  0.7405
 2339TIP3   OH228431   1.177   6.499  13.003 -0.1397  0.1466  0.0015
 2339TIP3    H128432   1.250   6.438  13.010  0.4398  0.8427  0.0141
 2339TIP3    H228433   1.132   6.493  13.087  0.5031  0.4887  0.3657
 2340TIP3   OH228434   0.469   1.205   3.038 -0.3000  0.3615  0.0721
 2340TIP3    H128435   0.516   1.236   2.961 -0.8495  1.4053  0.1421
 2340TIP3    H228436   0.441   1.116   3.015 -0.4812  0.6707 -0.9453
 2341TIP3   OH228437   2.727   1.188   2.248 -0.5950 -0.0146 -0.1548
 2341TIP3    H128438   2.757   1.155   2.163 -0.7398  1.5788 -0.8376
 2341TIP3    H228439   2.645   1.142   2.263  0.5553 -2.0025  0.2085
 2342TIP3   OH228440   1.162   6.018   0.699 -0.5638  0.1442  0.5147
 2342TIP3    H128441   1.156   6.113   0.684  0.9078  0.3175  1.0113
 2342TIP3    H228442   1.241   6.007   0.751 -0.1903 -1.4750 -0.3870
 2343TIP3   OH228443   1.692   0.472   2.176 -0.6498  0.2694  0.0226
 2343TIP3    H128444   1.708   0.510   2.263 -0.5076 -0.7812  0.4590
 2343TIP3    H228445   1.719   0.541   2.115  0.1012  0.6838  0.7999
 2344TIP3   OH228446   2.423   1.139   0.841  0.1982 -0.6784 -0.1249
 2344TIP3    H128447   2.408   1.204   0.910 -1.2371 -1.9122  0.7828
 2344TIP3    H228448   2.506   1.164   0.802 -0.5229  1.9372 -0.0778
 2345TIP3   OH228449   3.820   0.041   2.088  0.6402 -0.1308  0.4282
 2345TIP3    H128450   3.777  -0.032   2.134 -0.0093 -0.7836 -1.1679
 2345TIP3    H228451   3.894   0.064   2.143  1.0550 -2.2526  0.7991
 2346TIP3   OH228452   1.113   2.654   3.165 -0.2672  0.0492  0.1353
 2346TIP3    H128453   1.125   2.644   3.260  2.8174  2.1059  0.0282
 2346TIP3    H228454   1.092   2.746   3.153  1.6832  0.3269 -1.3532
 2347TIP3   OH228455   5.703   5.300  13.615 -0.5594 -0.1372  0.6262
 2347TIP3    H128456   5.793   5.330  13.601 -0.7556 -0.0485 -0.4761
 2347TIP3    H228457   5.674   5.346  13.694 -0.2966  1.2827 -0.1052
 2348TIP3   OH228458   6.024   5.143   5.725 -0.0600 -0.3692 -0.0267
 2348TIP3    H128459   5.986   5.228   5.749 -0.2065 -0.4821  0.1496
 2348TIP3    H228460   6.036   5.099   5.809 -1.9466 -1.3583 -0.2632
 2349TIP3   OH228461   2.530   4.154  16.859  0.1368 -0.2085 -0.5797
 2349TIP3    H128462   2.448   4.145  16.908 -0.0686  0.1123 -0.8660
 2349TIP3    H228463   2.578   4.222  16.905  1.1014 -1.7623  0.7690
 2350TIP3   OH228464   5.378   3.631   0.864  0.0133 -0.0206 -0.5078
 2350TIP3    H128465   5.423   3.546   0.859  0.1195 -0.0108  0.1693
 2350TIP3    H228466   5.378   3.652   0.958 -1.8539 -0.2581 -0.4324
 2351TIP3   OH228467   3.972   5.419   1.175 -0.2125  0.2210  0.1023
 2351TIP3    H128468   3.914   5.343   1.162 -0.0521 -0.0685  1.0282
 2351TIP3    H228469   4.037   5.411   1.106 -0.7056 -0.0018 -0.3453
 2352TIP3   OH228470   0.265   2.467   0.336 -0.4399 -0.2815  0.2929
 2352TIP3    H128471   0.231   2.556   0.324 -1.0249 -0.7507 -1.6298
 2352TIP3    H228472   0.210   2.412   0.280  1.0172 -1.6133  0.1405
 2353TIP3   OH228473   6.339   6.384  15.935  0.6764 -1.0095 -0.5952
 2353TIP3    H128474   6.384   6.462  15.903 -1.3237 -0.3196 -1.7845
 2353TIP3    H228475   6.406   6.337  15.985  2.2637  0.7929 -0.9674
 2354TIP3   OH228476   2.779   4.785  15.145  0.3547  0.4695  0.2006
 2354TIP3    H128477   2.759   4.697  15.112 -2.3647  0.7986  0.8594
 2354TIP3    H228478   2.751   4.844  15.076  0.4796  0.8983  0.5137
 2355TIP3   OH228479   2.412   6.592   3.595 -0.3789 -0.2501 -0.1660
 2355TIP3    H128480   2.459   6.644   3.660  0.7438  0.6547 -1.6703
 2355TIP3    H228481   2.477   6.529   3.564 -1.2990 -1.5852  0.5443
 2356TIP3   OH228482   2.311   5.538   2.754  0.1024 -0.1526 -0.4920
 2356TIP3    H128483   2.251   5.489   2.698  1.0020  0.9515 -2.4972
 2356TIP3    H228484   2.377   5.473   2.781  0.1020 -0.5311 -1.3785
 2357TIP3   OH228485   0.080   3.686   1.826  0.9591  0.2789 -0.2518
 2357TIP3    H128486   0.088   3.635   1.907 -0.0489 -2.6634 -1.9289
 2357TIP3    H228487  -0.011   3.715   1.825  0.6577 -0.6498 -0.8400
 2358TIP3   OH228488   3.206   2.108   5.202  0.0951 -0.1061  0.1817
 2358TIP3    H128489   3.278   2.069   5.153  0.0759  0.1502 -0.0502
 2358TIP3    H228490   3.231   2.200   5.213  0.1190 -0.1694  0.6857
 2359TIP3   OH228491   4.421   3.447  11.853 -0.1296 -0.6096  0.1159
 2359TIP3    H128492   4.513   3.459  11.880  0.0371 -0.8191 -0.3605
 2359TIP3    H228493   4.391   3.535  11.831  0.2628 -0.6754 -0.7041
 2360TIP3   OH228494   0.514   4.469  12.511 -0.4278  0.0068 -0.1247
 2360TIP3    H128495   0.459   4.535  12.555 -0.4670 -0.6217  0.7949
 2360TIP3    H228496   0.462   4.389  12.516  0.6839 -0.6591  1.0105
 2361TIP3   OH228497   5.923   1.460   3.399 -0.4112 -0.0126 -0.3270
 2361TIP3    H128498   5.852   1.468   3.463 -0.6437  0.8385 -0.6909
 2361TIP3    H228499   5.950   1.550   3.381 -0.1950 -0.2580 -1.2640
 2362TIP3   OH228500   3.325   6.334  16.118 -0.2087 -0.0522  0.1222
 2362TIP3    H128501   3.410   6.358  16.080 -0.9180  1.7003 -0.3775
 2362TIP3    H228502   3.348   6.278  16.192  1.3415 -0.5162 -0.6767
 2363TIP3   OH228503   1.797   0.710  15.645 -0.2645  0.3893  0.2832
 2363TIP3    H128504   1.762   0.645  15.707  0.8229  0.0117  0.5173
 2363TIP3    H228505   1.892   0.700  15.652 -0.1282  0.4511 -1.3516
 2364TIP3   OH228506   0.004   1.216  15.674  0.3486 -0.1374 -0.4625
 2364TIP3    H128507   0.074   1.266  15.716 -0.3652  0.7052 -0.2507
 2364TIP3    H228508  -0.067   1.279  15.664 -1.0525 -1.4188  0.9814
 2365TIP3   OH228509   1.477   2.495  15.558 -0.2441  0.3674  0.1693
 2365TIP3    H128510   1.571   2.477  15.561 -0.5389 -1.0455  2.1809
 2365TIP3    H228511   1.471   2.591  15.561  1.1647  0.5363 -1.9470
 2366TIP3   OH228512   5.884   1.243  12.409 -0.6350  0.0687  0.0699
 2366TIP3    H128513   5.806   1.197  12.377 -0.2114  0.1384 -1.1018
 2366TIP3    H228514   5.955   1.210  12.354 -0.0063  0.7184  0.4875
 2367TIP3   OH228515   5.561   5.915   5.424  0.2400  0.2585 -0.1115
 2367TIP3    H128516   5.467   5.916   5.443  0.3399 -1.4259  0.5494
 2367TIP3    H228517   5.599   5.860   5.493  1.8924  1.9899  0.3996
 2368TIP3   OH228518   3.984   5.375  15.595  0.2164  0.3703 -0.5033
 2368TIP3    H128519   3.937   5.292  15.588  2.1171 -0.5810 -2.5303
 2368TIP3    H228520   3.965   5.421  15.513  0.7625  1.0876 -0.2415
 2369TIP3   OH228521   0.800   6.162  12.386  0.0352 -0.4521  0.2756
 2369TIP3    H128522   0.720   6.165  12.438 -0.7319 -0.3278 -0.8939
 2369TIP3    H228523   0.848   6.086  12.419 -0.7910 -0.8107  0.6470
 2370TIP3   OH228524   3.043   4.072   2.852  0.1889 -0.6110  0.4863
 2370TIP3    H128525   3.005   4.053   2.767  2.9398 -2.2950 -0.4472
 2370TIP3    H228526   3.026   3.994   2.905 -0.7396  0.0724  1.2145
 2371TIP3   OH228527   0.490   0.006   2.731 -0.1975  0.0390  0.3201
 2371TIP3    H128528   0.572  -0.043   2.728  0.3894  1.0592 -0.3778
 2371TIP3    H228529   0.438  -0.039   2.798  1.1380 -0.2856  1.1603
 2372TIP3   OH228530   0.388   4.303   4.880 -0.1621  0.0665 -0.3923
 2372TIP3    H128531   0.423   4.390   4.900  0.2292 -0.3464  0.7911
 2372TIP3    H228532   0.457   4.242   4.908 -0.5725 -0.6299 -0.8913
 2373TIP3   OH228533   3.885   6.203   3.872  0.0184  0.4999  0.1104
 2373TIP3    H128534   3.924   6.136   3.816  1.0938  1.3966 -0.2458
 2373TIP3    H228535   3.923   6.188   3.958 -0.5304  0.0195  0.2733
 2374TIP3   OH228536   6.685   1.785   6.405 -0.3597  0.6067  0.2587
 2374TIP3    H128537   6.617   1.843   6.369  0.5006  0.4761 -1.6657
 2374TIP3    H228538   6.761   1.799   6.347  0.8331 -0.1951  1.6038
 2375TIP3   OH228539   6.335   6.397  13.171  0.0359  0.5839  0.2511
 2375TIP3    H128540   6.397   6.350  13.116 -0.4262  0.4132 -0.1232
 2375TIP3    H228541   6.375   6.395  13.258  0.0256 -0.4839  0.2380
 2376TIP3   OH228542   6.026   4.576   2.295  0.0548 -0.6346 -0.3068
 2376TIP3    H128543   5.959   4.518   2.260  0.2728 -0.4317 -1.0592
 2376TIP3    H228544   6.098   4.572   2.232  0.0086  0.5640 -0.4409
 2377TIP3   OH228545   1.143   4.235  13.078 -0.1162 -0.1802  0.1672
 2377TIP3    H128546   1.052   4.258  13.057 -0.6997 -0.7520  1.9891
 2377TIP3    H228547   1.154   4.260  13.170  1.0851 -1.5498  0.4184
 2378TIP3   OH228548   0.502   3.006  14.850  0.8293  0.3853 -0.0601
 2378TIP3    H128549   0.556   2.948  14.904  2.4070  1.5337 -0.3693
 2378TIP3    H228550   0.432   3.034  14.909  1.8868  0.7290  1.0682
 2379TIP3   OH228551   3.003   5.223   4.272  0.6694 -0.0487 -0.0609
 2379TIP3    H128552   2.993   5.228   4.177 -0.6923  1.7477  0.1552
 2379TIP3    H228553   3.033   5.310   4.297  1.6127 -0.6967  1.1176
 2380TIP3   OH228554   5.504   5.190   2.496  0.7884 -0.2605  0.2447
 2380TIP3    H128555   5.547   5.108   2.522 -1.4786 -1.6936 -0.2664
 2380TIP3    H228556   5.458   5.218   2.575 -0.6982 -1.0213 -0.3279
 2381TIP3   OH228557   0.419   4.968   4.967 -0.2881  0.4390  0.3919
 2381TIP3    H128558   0.393   5.058   4.946 -2.5637 -0.1002  0.7137
 2381TIP3    H228559   0.336   4.920   4.973  0.9524 -2.1508 -1.8740
 2382TIP3   OH228560   3.637   2.723  15.141 -0.1237 -0.8683  0.0413
 2382TIP3    H128561   3.677   2.636  15.138  0.5989 -0.6187  1.9874
 2382TIP3    H228562   3.559   2.712  15.195  1.1938  0.1464  2.1986
 2383TIP3   OH228563   5.958   2.885   4.495 -0.2491  0.2101 -0.1655
 2383TIP3    H128564   5.906   2.926   4.564 -0.8031  0.2736 -0.6173
 2383TIP3    H228565   5.910   2.805   4.473  0.6921 -0.5602  0.5292
 2384TIP3   OH228566   1.092   2.559   5.110 -0.0547  0.2159 -0.4028
 2384TIP3    H128567   1.130   2.545   5.197 -1.7288  1.0053  0.4630
 2384TIP3    H228568   1.026   2.626   5.123 -1.4573 -0.8237 -1.9682
 2385TIP3   OH228569   3.729   6.330   3.458 -0.4217 -0.1002 -0.3150
 2385TIP3    H128570   3.811   6.380   3.449 -0.7394  0.3595 -0.6766
 2385TIP3    H228571   3.681   6.376   3.526 -1.1864  0.7366 -1.4024
 2386TIP3   OH228572   1.576   0.786  15.972 -1.0297 -0.6765 -0.2143
 2386TIP3    H128573   1.643   0.835  16.020 -1.3961 -1.0711  0.6921
 2386TIP3    H228574   1.528   0.853  15.923 -0.8060 -0.2549  0.1423
 2387TIP3   OH228575   4.661   3.216   0.260 -0.0683  0.1569 -0.0299
 2387TIP3    H128576   4.715   3.187   0.187  0.0449 -0.2697  0.2207
 2387TIP3    H228577   4.572   3.218   0.225  0.1087  0.9100 -0.4584
 2388TIP3   OH228578   3.234   5.713  16.801  0.4345 -0.2495 -0.3055
 2388TIP3    H128579   3.172   5.782  16.824  1.0152  0.3925 -0.6562
 2388TIP3    H228580   3.315   5.759  16.781  1.2087 -1.1325  0.7744
 2389TIP3   OH228581   6.676   2.590  12.942  0.0188  0.4531 -0.2520
 2389TIP3    H128582   6.705   2.515  12.995 -1.0395  0.3204  0.1373
 2389TIP3    H228583   6.746   2.655  12.953  1.9319 -1.1778 -2.1480
 2390TIP3   OH228584   5.027   6.227   1.040 -0.1531 -0.6969  0.1947
 2390TIP3    H128585   5.036   6.134   1.063  0.0538 -0.3661  1.4888
 2390TIP3    H228586   4.934   6.239   1.024 -0.0012 -1.4273 -1.3078
 2391TIP3   OH228587   2.829   2.580   0.108  0.4668  0.4977  0.8594
 2391TIP3    H128588   2.748   2.531   0.124 -0.1602  1.5125  0.8103
 2391TIP3    H228589   2.810   2.634   0.032  2.0611 -1.1862 -0.7829
 2392TIP3   OH228590   2.378   5.093  13.360  0.2095 -0.4035 -0.1643
 2392TIP3    H128591   2.333   5.028  13.413  1.2246 -1.3319 -0.4239
 2392TIP3    H228592   2.317   5.113  13.289 -0.7637  0.1391  0.8049
 2393TIP3   OH228593   2.140   3.329  12.032 -0.3459 -0.4829 -0.0442
 2393TIP3    H128594   2.074   3.339  12.100  0.2003 -0.8325  0.5444
 2393TIP3    H228595   2.219   3.302  12.079  0.2782  0.1416 -0.7090
 2394TIP3   OH228596   3.727   2.579   5.125  0.5275  0.1435  0.2875
 2394TIP3    H128597   3.703   2.563   5.034  1.8190 -1.0042  0.1278
 2394TIP3    H228598   3.772   2.498   5.152 -0.6264  0.1129  2.1987
 2395TIP3   OH228599   1.593   5.032   1.340 -0.3027 -0.1297  0.1259
 2395TIP3    H128600   1.527   5.065   1.278 -3.1842 -2.9328  1.5818
 2395TIP3    H228601   1.640   4.964   1.292 -1.7499 -1.4889  0.6144
 2396TIP3   OH228602   5.612   3.707   3.447 -0.2833 -0.0925 -0.0746
 2396TIP3    H128603   5.708   3.709   3.453 -0.3053 -0.9112  0.6950
 2396TIP3    H228604   5.585   3.646   3.515 -1.4255  0.8698  0.3514
 2397TIP3   OH228605   5.769   4.418   1.246  0.7142  0.0319  0.2565
 2397TIP3    H128606   5.806   4.435   1.333 -0.1132 -0.5863  0.7266
 2397TIP3    H228607   5.765   4.323   1.239  1.7094  0.0535 -0.8605
 2398TIP3   OH228608   4.500   1.962  12.894  0.9056 -0.0158  0.3809
 2398TIP3    H128609   4.430   1.947  12.831  1.3753  2.8547 -0.9234
 2398TIP3    H228610   4.549   1.880  12.897 -2.3830 -2.0356  1.2249
 2399TIP3   OH228611   6.032   5.660  15.143  0.2546 -0.4001  0.2615
 2399TIP3    H128612   6.022   5.566  15.153 -2.0096  0.1253  3.8949
 2399TIP3    H228613   5.952   5.688  15.097  1.2248 -0.3103 -1.3945
 2400TIP3   OH228614   5.417   4.103   0.052 -0.1550  0.1289  0.9657
 2400TIP3    H128615   5.418   4.161  -0.025  0.8984 -1.2095 -0.0641
 2400TIP3    H228616   5.391   4.018   0.016  0.5552 -0.5515  2.0665
 2401TIP3   OH228617   1.467   3.138  16.765  0.6173  0.4979 -0.1896
 2401TIP3    H128618   1.475   3.110  16.856  0.4370 -0.6264 -0.5231
 2401TIP3    H228619   1.518   3.219  16.761 -0.8153  1.4953  1.3097
 2402TIP3   OH228620   1.493   2.218  14.876 -0.1641  0.1588 -0.5486
 2402TIP3    H128621   1.461   2.138  14.917 -0.1467  0.4151 -0.0299
 2402TIP3    H228622   1.434   2.232  14.802 -0.6117  0.0559 -0.2172
 2403TIP3   OH228623   3.681   5.876  12.289  0.1225  0.1283 -0.2695
 2403TIP3    H128624   3.608   5.865  12.350 -1.5055 -1.8775 -2.4846
 2403TIP3    H228625   3.738   5.800  12.305  1.7853  1.6811  1.4473
 2404TIP3   OH228626   3.768   3.951   3.973 -0.0373 -0.5147 -0.2010
 2404TIP3    H128627   3.852   3.904   3.967  0.7910  0.9042  0.0919
 2404TIP3    H228628   3.757   3.968   4.067 -0.5850 -0.5836 -0.2553
 2405TIP3   OH228629   4.652   0.955  14.433 -0.0346 -0.2224  0.2737
 2405TIP3    H128630   4.612   1.027  14.482 -1.2988 -0.7513  0.0232
 2405TIP3    H228631   4.740   0.988  14.411 -0.6687  1.3164 -0.0229
 2406TIP3   OH228632   4.925   4.346  16.027 -0.0957  0.6124  0.1673
 2406TIP3    H128633   4.856   4.303  16.078 -0.1297 -0.7552 -1.0028
 2406TIP3    H228634   4.882   4.369  15.944  0.7479  0.0570 -0.4355
 2407TIP3   OH228635   5.247   2.938  11.981  0.3055 -0.4038  0.1701
 2407TIP3    H128636   5.340   2.961  11.988  0.4176 -0.9064  0.3794
 2407TIP3    H228637   5.247   2.847  11.949 -0.1224 -0.2371 -0.3136
 2408TIP3   OH228638   6.675   3.625   0.906  0.7339 -0.0222 -0.1497
 2408TIP3    H128639   6.657   3.714   0.875  2.6536 -0.3801 -2.4096
 2408TIP3    H228640   6.714   3.637   0.992  1.4165  1.3519 -0.6364
 2409TIP3   OH228641   4.441   4.151   3.511  0.0657 -0.6967  0.2541
 2409TIP3    H128642   4.393   4.081   3.466 -0.9627 -0.0715  0.3719
 2409TIP3    H228643   4.381   4.225   3.511  1.6623  0.6086 -1.0428
 2410TIP3   OH228644   2.250   3.443   0.117 -0.2137  0.5852 -0.0833
 2410TIP3    H128645   2.324   3.500   0.099 -0.4349  0.4574 -1.4199
 2410TIP3    H228646   2.281   3.355   0.097  0.1133  0.2081  1.9338
 2411TIP3   OH228647   2.051   1.147   1.582 -0.4912  0.6285 -0.0381
 2411TIP3    H128648   2.058   1.128   1.488  0.3489  0.3764  0.0725
 2411TIP3    H228649   2.055   1.243   1.587  0.1224  0.6168 -0.2151
 2412TIP3   OH228650   5.404   1.650  17.152  0.0963 -0.0735  0.3257
 2412TIP3    H128651   5.392   1.563  17.113 -0.2350  0.0558  0.1386
 2412TIP3    H228652   5.484   1.683  17.110 -0.8640  0.5151 -1.0730
 2413TIP3   OH228653   0.466   3.103  17.189  0.3762 -0.6015  0.0327
 2413TIP3    H128654   0.553   3.126  17.158  0.2545  1.4289  1.1246
 2413TIP3    H228655   0.413   3.094  17.109  0.8751  1.1342 -0.5063
 2414TIP3   OH228656   2.483   1.659   6.195  0.0423  0.2297 -0.3218
 2414TIP3    H128657   2.406   1.687   6.243 -0.3596 -0.8526 -0.3064
 2414TIP3    H228658   2.557   1.678   6.253 -0.4156 -0.8402  0.6379
 2415TIP3   OH228659   2.320   6.287  16.197  0.2906 -0.1992 -0.5116
 2415TIP3    H128660   2.295   6.331  16.116 -1.8669  1.7998  1.1310
 2415TIP3    H228661   2.343   6.358  16.257  0.5628 -1.5330  1.0175
 2416TIP3   OH228662   2.250   6.112   0.849 -0.3759 -0.0555 -0.6153
 2416TIP3    H128663   2.315   6.043   0.843  1.2970  1.3328  0.7831
 2416TIP3    H228664   2.299   6.193   0.832 -2.2136  0.8163 -1.8834
 2417TIP3   OH228665   0.239   4.803  11.317 -0.3100  0.3279  0.1297
 2417TIP3    H128666   0.281   4.766  11.239  0.0563  1.1538 -0.0684
 2417TIP3    H228667   0.155   4.837  11.285 -0.3208  0.3410  0.1721
 2418TIP3   OH228668   3.605   6.473   4.979 -0.4885 -0.0389 -0.2397
 2418TIP3    H128669   3.542   6.479   4.907 -0.3713  0.3280 -0.3095
 2418TIP3    H228670   3.555   6.435   5.051 -0.4676 -0.9441 -0.6821
 2419TIP3   OH228671   4.125   5.670   2.612 -0.2437  0.0148 -0.7583
 2419TIP3    H128672   4.130   5.744   2.552  0.6894  0.7061  0.1579
 2419TIP3    H228673   4.074   5.702   2.686 -0.5517 -0.5224 -0.7343
 2420TIP3   OH228674   1.649   3.922  12.031 -0.0572 -0.8501  0.1038
 2420TIP3    H128675   1.724   3.951  11.980 -1.8167  0.5022 -1.7824
 2420TIP3    H228676   1.642   3.828  12.013  0.8881 -0.8938 -0.0602
 2421TIP3   OH228677   5.461   1.870  12.262 -0.1119  0.0691 -0.2809
 2421TIP3    H128678   5.545   1.880  12.308 -0.3203  2.1408 -0.2916
 2421TIP3    H228679   5.469   1.788  12.214  1.3050 -0.5535  0.9878
 2422TIP3   OH228680   0.901   1.905   6.517  0.0307 -0.3319 -0.0117
 2422TIP3    H128681   0.818   1.860   6.533 -0.1511 -0.2487 -0.7169
 2422TIP3    H228682   0.966   1.834   6.514  0.2019 -0.2817  1.9316
 2423TIP3   OH228683   3.236   1.023  17.026  0.2172 -0.2705  0.1105
 2423TIP3    H128684   3.142   1.028  17.043 -0.0167  1.6807 -1.5475
 2423TIP3    H228685   3.274   1.000  17.110 -1.6088  0.6575  1.2303
 2424TIP3   OH228686   1.181   2.858  15.897  0.0175  0.1881  0.0011
 2424TIP3    H128687   1.216   2.799  15.831  1.1694  1.6837 -0.7659
 2424TIP3    H228688   1.250   2.866  15.962 -0.4382  0.0815  0.5037
 2425TIP3   OH228689   3.422   1.040  13.953  0.1630 -0.1619  0.0457
 2425TIP3    H128690   3.350   1.057  14.014 -1.3439  1.5905 -2.1408
 2425TIP3    H228691   3.420   0.945  13.941 -1.7798 -0.1460  0.0329
 2426TIP3   OH228692   4.827   1.994   2.801 -0.1413 -0.2506  0.4315
 2426TIP3    H128693   4.754   2.054   2.817 -0.9648 -0.9627 -0.5277
 2426TIP3    H228694   4.895   2.022   2.862 -0.7249  1.2709  0.4173
 2427TIP3   OH228695   0.311   3.414  17.079  0.4037  0.1743  0.2930
 2427TIP3    H128696   0.401   3.383  17.077  0.3576  0.0676 -0.2135
 2427TIP3    H228697   0.272   3.369  17.153  0.3099 -1.0789 -0.5040
 2428TIP3   OH228698   3.997   2.958  16.741 -0.3008 -0.0893  0.2686
 2428TIP3    H128699   4.091   2.942  16.743  0.0177  1.7937  0.7371
 2428TIP3    H228700   3.960   2.893  16.801  0.8949  0.4461  1.6074
 2429TIP3   OH228701   6.507   6.477  13.743 -0.4172  0.2316 -0.1080
 2429TIP3    H128702   6.549   6.564  13.748  0.3129  0.1652 -3.9052
 2429TIP3    H228703   6.580   6.416  13.749 -0.7199 -0.0886  0.3182
 2430TIP3   OH228704   0.268   3.153   3.958  0.1780  0.4214  0.1436
 2430TIP3    H128705   0.218   3.204   4.022  0.2836  1.8476 -0.8768
 2430TIP3    H228706   0.299   3.077   4.007 -3.4706 -0.8307  0.6502
 2431TIP3   OH228707   3.103   6.109  11.225 -0.0195  0.1003  0.0854
 2431TIP3    H128708   3.113   6.143  11.136  2.1687  0.1379  0.3138
 2431TIP3    H228709   3.016   6.069  11.226 -0.9628  1.9988 -1.4231
 2432TIP3   OH228710   0.176   3.179   0.335  0.2090  0.2241  0.4982
 2432TIP3    H128711   0.177   3.274   0.321  0.2588  0.0283 -0.8816
 2432TIP3    H228712   0.260   3.149   0.302 -0.6106 -0.5479 -0.9542
 2433TIP3   OH228713   2.631   2.845  11.886 -0.4403  0.4279  0.5059
 2433TIP3    H128714   2.663   2.919  11.834 -1.3760  0.5730  0.1269
 2433TIP3    H228715   2.617   2.881  11.973  1.3282  0.1355  0.9186
 2434TIP3   OH228716   3.938   4.558  10.937 -0.3509 -0.1196  0.1252
 2434TIP3    H128717   3.910   4.552  11.028 -0.9777 -0.9435 -0.1174
 2434TIP3    H228718   3.858   4.577  10.888 -0.2492 -1.0022 -0.4011
 2435TIP3   OH228719   2.124   0.538   2.093 -0.1721 -0.8899  0.9240
 2435TIP3    H128720   2.143   0.445   2.080  0.1237 -1.1602  3.0944
 2435TIP3    H228721   2.113   0.547   2.188 -0.1271  1.3004  0.7417
 2436TIP3   OH228722   5.132   1.692   2.823  0.1622 -0.6271 -0.4272
 2436TIP3    H128723   5.214   1.668   2.780  0.8101 -1.3231  1.1423
 2436TIP3    H228724   5.109   1.777   2.785  0.7569 -1.1683 -2.0397
 2437TIP3   OH228725   4.255   2.096   6.627 -0.7555  0.3108 -0.5454
 2437TIP3    H128726   4.315   2.029   6.595 -2.0832 -1.2226  0.0948
 2437TIP3    H228727   4.170   2.072   6.590 -1.4770  0.9422  0.6691
 2438TIP3   OH228728   6.510   1.063  15.608 -0.4259 -0.6033  0.3551
 2438TIP3    H128729   6.570   0.992  15.589 -0.7853 -0.2737 -2.2012
 2438TIP3    H228730   6.424   1.028  15.585 -0.8256  0.0307  0.8678
 2439TIP3   OH228731   0.186   2.085   1.630  0.4224 -0.2175  0.5581
 2439TIP3    H128732   0.150   2.118   1.548 -0.5905  1.3638  1.6186
 2439TIP3    H228733   0.180   1.990   1.622 -2.6281 -0.0426  0.0626
 2440TIP3   OH228734   6.455   4.385  12.558  0.4069 -0.4334  0.0243
 2440TIP3    H128735   6.424   4.305  12.601  0.0263 -0.1278  0.3243
 2440TIP3    H228736   6.481   4.357  12.470 -1.2401 -0.5888 -0.4163
 2441TIP3   OH228737   6.366   0.388   5.241 -0.2519  0.1630 -0.7829
 2441TIP3    H128738   6.337   0.479   5.249 -2.0346 -0.3635 -1.0199
 2441TIP3    H228739   6.285   0.338   5.234  0.7169 -1.4606 -0.5488
 2442TIP3   OH228740   5.671   3.064  16.094  0.1130 -0.0014  0.3043
 2442TIP3    H128741   5.715   3.036  16.174 -1.2428  0.6338  1.2997
 2442TIP3    H228742   5.739   3.062  16.027  1.2748 -0.5271  1.4770
 2443TIP3   OH228743   3.510   2.716   1.864  0.0111  0.0117 -0.6297
 2443TIP3    H128744   3.518   2.622   1.846  1.3380  0.1526 -0.8329
 2443TIP3    H228745   3.513   2.722   1.960 -0.6628 -0.1980 -0.5928
 2444TIP3   OH228746   6.580   6.025  12.013 -0.1820 -0.4986  0.2918
 2444TIP3    H128747   6.574   6.090  11.943 -1.9073 -0.7992  0.1550
 2444TIP3    H228748   6.594   5.942  11.967 -0.2270 -0.5476  0.3674
 2445TIP3   OH228749   2.218   6.449   3.742 -0.1250  0.0282 -0.3012
 2445TIP3    H128750   2.244   6.483   3.657  0.9552 -0.0475 -0.0114
 2445TIP3    H228751   2.123   6.444   3.738 -0.0776 -0.0522 -1.5325
 2446TIP3   OH228752   5.642   4.188   2.065 -0.4373  0.3502  0.4533
 2446TIP3    H128753   5.734   4.175   2.040 -0.0969  0.5221  1.5971
 2446TIP3    H228754   5.632   4.283   2.072 -0.2135  0.2569  2.1243
 2447TIP3   OH228755   4.075   5.903  14.887  0.2366  0.0535  0.1270
 2447TIP3    H128756   4.130   5.961  14.940  1.3201  1.3829 -2.3679
 2447TIP3    H228757   4.074   5.944  14.800 -2.3862 -1.4873 -0.6120
 2448TIP3   OH228758   2.431   5.540   0.246  0.9100  0.5689 -0.0954
 2448TIP3    H128759   2.415   5.515   0.156 -0.8120  0.2794  0.2715
 2448TIP3    H228760   2.514   5.498   0.269  0.3170 -1.0710 -0.8859
 2449TIP3   OH228761   2.122   0.705  12.092  0.9024 -0.1542 -0.6781
 2449TIP3    H128762   2.059   0.657  12.038  1.0376 -1.4451  0.2857
 2449TIP3    H228763   2.112   0.796  12.066 -2.8994 -0.0295  1.0442
 2450TIP3   OH228764   1.870   6.551  12.784  0.1925 -0.4681 -0.5915
 2450TIP3    H128765   1.777   6.532  12.771 -0.1878  0.0766  1.1846
 2450TIP3    H228766   1.895   6.497  12.858  0.7762  0.9248  0.2443
 2451TIP3   OH228767   1.551   3.197  14.134 -0.4467  0.3436 -0.0154
 2451TIP3    H128768   1.620   3.142  14.097 -1.3972 -0.3216 -0.8520
 2451TIP3    H228769   1.541   3.166  14.224  0.7136  0.8154  0.2776
 2452TIP3   OH228770   0.220   3.190   2.973  0.2240  0.0417 -0.1903
 2452TIP3    H128771   0.301   3.217   2.930 -0.2827  2.5007  0.2675
 2452TIP3    H228772   0.151   3.239   2.927 -0.6448  0.4235  1.4578
 2453TIP3   OH228773   1.423   4.339  12.598 -0.2943  0.1340  0.2953
 2453TIP3    H128774   1.484   4.413  12.592 -0.9695  0.6776  0.0164
 2453TIP3    H228775   1.462   4.280  12.662  0.2822  0.7099  0.4772
 2454TIP3   OH228776   5.691   6.478   3.072  0.0435  0.2575 -0.0041
 2454TIP3    H128777   5.681   6.471   2.977 -0.6690 -0.2774  0.1014
 2454TIP3    H228778   5.785   6.472   3.087  0.0556 -1.0891 -0.5721
 2455TIP3   OH228779   6.322   5.908  17.059 -0.3187  0.2204 -0.6570
 2455TIP3    H128780   6.350   5.818  17.076  0.9324  0.7349  0.0365
 2455TIP3    H228781   6.311   5.946  17.146  1.5228  1.4617 -0.9602
 2456TIP3   OH228782   2.727   5.911   1.231 -0.0262  0.4713  0.3671
 2456TIP3    H128783   2.766   5.946   1.150  0.9439  0.5214  0.8566
 2456TIP3    H228784   2.766   5.824   1.241 -1.8468 -0.4652 -0.4251
 2457TIP3   OH228785   4.504   6.285   2.530 -0.3183  0.3561 -0.3134
 2457TIP3    H128786   4.595   6.270   2.504 -0.7952  0.7122 -2.3190
 2457TIP3    H228787   4.461   6.200   2.515 -0.4220  0.3206  0.1736
 2458TIP3   OH228788   4.507   2.066   1.128  0.6182  0.5674  0.0747
 2458TIP3    H128789   4.526   2.050   1.035 -0.9294  1.1291 -0.3572
 2458TIP3    H228790   4.557   1.999   1.174  0.4825 -0.4733 -1.2467
 2459TIP3   OH228791   4.991   1.328  11.958 -0.1180  0.0398 -0.1485
 2459TIP3    H128792   5.080   1.336  11.924 -0.5337  1.1622 -0.9956
 2459TIP3    H228793   4.996   1.362  12.048  0.6219 -1.3302  0.3421
 2460TIP3   OH228794   4.523   2.953   5.849  0.1297 -0.0716 -0.6329
 2460TIP3    H128795   4.566   3.004   5.918 -0.1468  0.1618 -0.6306
 2460TIP3    H228796   4.558   2.989   5.767  0.3314 -0.2347 -0.6165
 2461TIP3   OH228797   2.835   0.848   6.075  0.6201 -0.0966  0.1711
 2461TIP3    H128798   2.821   0.832   5.982  0.6106 -1.1856  0.3562
 2461TIP3    H228799   2.907   0.790   6.099  0.2583 -0.2231  0.9632
 2462TIP3   OH228800   3.250   5.801  14.969 -0.1655 -0.0470  0.2738
 2462TIP3    H128801   3.209   5.732  14.916 -2.4239  1.2214  0.2836
 2462TIP3    H228802   3.278   5.867  14.906  1.7905 -0.8240  0.2824
 2463TIP3   OH228803   3.188   1.384  13.040  0.1005 -0.2679  0.0855
 2463TIP3    H128804   3.217   1.298  13.009 -0.3219 -0.2044 -0.4908
 2463TIP3    H228805   3.245   1.447  12.996 -0.1955 -0.2032 -0.2071
 2464TIP3   OH228806   3.981   2.511  11.855 -0.1128 -0.3010  0.1631
 2464TIP3    H128807   3.925   2.458  11.912  2.1372 -3.2112 -0.1861
 2464TIP3    H228808   4.070   2.484  11.877  0.9594  1.2210 -2.1302
 2465TIP3   OH228809   5.556   2.384   1.085 -0.2793 -0.1080  0.1542
 2465TIP3    H128810   5.516   2.313   1.035 -1.2870  1.1151 -0.8231
 2465TIP3    H228811   5.582   2.343   1.168 -1.1310 -1.5393 -0.2611
 2466TIP3   OH228812   0.558   6.316   1.412 -0.2138 -0.0000 -0.1075
 2466TIP3    H128813   0.646   6.287   1.385 -0.4446  0.3020 -1.2279
 2466TIP3    H228814   0.499   6.254   1.368 -0.6068  0.5395 -0.3405
 2467TIP3   OH228815   1.165   0.198   0.598  0.1593  0.8020 -0.4506
 2467TIP3    H128816   1.226   0.163   0.662  0.8707 -0.6501 -1.8727
 2467TIP3    H228817   1.099   0.243   0.649  0.9010 -0.0268  1.2673
 2468TIP3   OH228818   0.297   0.309   4.013  0.0260  0.4415 -0.5402
 2468TIP3    H128819   0.211   0.289   4.051  0.6895  0.1541  0.8380
 2468TIP3    H228820   0.314   0.399   4.038  0.1883  0.4546 -0.6956
 2469TIP3   OH228821   1.211   0.679  12.528  0.4848  0.0430 -0.4661
 2469TIP3    H128822   1.283   0.671  12.465  1.2720  0.2254  0.4106
 2469TIP3    H228823   1.210   0.596  12.574  0.3460  0.1690 -0.2398
 2470TIP3   OH228824   4.849   0.173   1.067  0.0822  0.0385 -0.5157
 2470TIP3    H128825   4.785   0.147   1.133 -1.2000 -0.3838 -1.8909
 2470TIP3    H228826   4.922   0.209   1.117 -0.8011 -0.4012  1.1298
 2471TIP3   OH228827   6.451   0.704   0.598 -0.6592  0.2042  0.1787
 2471TIP3    H128828   6.461   0.785   0.548 -1.4461  0.6082  0.6785
 2471TIP3    H228829   6.539   0.664   0.596 -0.5397  0.4955 -1.0216
 2472TIP3   OH228830   5.037   0.732   4.229 -0.1603  0.0110  0.6026
 2472TIP3    H128831   5.034   0.723   4.325  2.2178 -0.7265  0.6333
 2472TIP3    H228832   5.065   0.822   4.214  0.2581 -0.1175  0.6113
 2473TIP3   OH228833   2.200   1.630   2.960 -0.3397  0.0931 -0.0418
 2473TIP3    H128834   2.278   1.579   2.940  0.6950  1.4712  0.4050
 2473TIP3    H228835   2.149   1.574   3.019  0.7276 -0.4640  0.3630
 2474TIP3   OH228836   5.369   4.670  14.924 -0.2304  0.4727  0.0910
 2474TIP3    H128837   5.452   4.672  14.878  1.1073  0.7699  2.4520
 2474TIP3    H228838   5.351   4.577  14.938  0.0595  0.4400  0.2303
 2475TIP3   OH228839   3.191   0.207   1.224 -0.3989 -0.5031 -0.0976
 2475TIP3    H128840   3.218   0.291   1.187 -0.5416 -0.1186  0.6546
 2475TIP3    H228841   3.167   0.154   1.148 -1.5519  0.5762 -0.5034
 2476TIP3   OH228842   1.869   4.034  13.320 -0.4875 -0.1974 -0.5701
 2476TIP3    H128843   1.944   4.071  13.274 -0.8302  1.1375 -0.0887
 2476TIP3    H228844   1.885   3.940  13.321  0.9820  0.0405 -0.8047
 2477TIP3   OH228845   0.743   3.431  15.962  0.3941  0.2993  0.1357
 2477TIP3    H128846   0.723   3.342  15.931  0.5675  0.3891 -0.2384
 2477TIP3    H228847   0.657   3.469  15.983  0.1324  0.7631 -1.6746
 2478TIP3   OH228848   3.274   2.424   1.770  0.1200  0.2649 -0.5631
 2478TIP3    H128849   3.250   2.447   1.680 -0.6755 -0.4969 -0.5522
 2478TIP3    H228850   3.369   2.429   1.772  0.1554 -0.0141 -1.5288
 2479TIP3   OH228851   4.944   1.658  15.646 -0.0539  0.1438  0.0461
 2479TIP3    H128852   4.861   1.639  15.689 -0.6341 -0.2083 -1.1925
 2479TIP3    H228853   4.940   1.752  15.626  0.4815  0.4430  1.2886
 2480TIP3   OH228854   0.856   3.853   0.995  0.3565 -0.1855 -0.4946
 2480TIP3    H128855   0.775   3.871   1.043  0.8630 -2.4013  1.2927
 2480TIP3    H228856   0.905   3.935   1.000 -0.4599  0.2440  1.0713
 2481TIP3   OH228857   5.459   0.676   0.608  0.3829  0.1619  0.2654
 2481TIP3    H128858   5.400   0.629   0.667 -1.8651  1.0844 -1.1934
 2481TIP3    H228859   5.482   0.611   0.542 -0.6694  0.3548 -0.3082
 2482TIP3   OH228860   4.803   6.435  10.182 -0.1978  0.2053 -0.3583
 2482TIP3    H128861   4.746   6.365  10.215  0.6304 -0.7607 -0.9405
 2482TIP3    H228862   4.779   6.512  10.233 -0.7221 -0.6490  0.6975
 2483TIP3   OH228863   3.588   2.373  12.471 -0.3481 -0.1969  0.2914
 2483TIP3    H128864   3.558   2.312  12.405 -2.0431 -1.7837  2.4546
 2483TIP3    H228865   3.672   2.338  12.500 -0.3750 -0.3888  0.1353
 2484TIP3   OH228866   4.130   1.175  11.900 -0.1397  0.0014  0.1464
 2484TIP3    H128867   4.092   1.207  11.819  4.0588  1.3363 -1.4664
 2484TIP3    H228868   4.111   1.082  11.901 -1.2444  0.1858 -1.7764
 2485TIP3   OH228869   6.158   2.030  12.363 -0.0761  0.1935  0.4055
 2485TIP3    H128870   6.091   1.995  12.305 -0.3417  1.5430 -0.1331
 2485TIP3    H228871   6.236   1.977  12.345 -0.1037  0.7047 -1.3460
 2486TIP3   OH228872   4.030   2.888  14.471 -0.4727  0.0228 -0.3326
 2486TIP3    H128873   3.970   2.855  14.405 -0.2428 -1.8746  0.3727
 2486TIP3    H228874   4.107   2.915  14.422 -0.0509 -1.9582 -0.8259
 2487TIP3   OH228875   5.452   5.118   1.998 -0.0358 -0.3152 -0.6379
 2487TIP3    H128876   5.519   5.049   1.994  1.9544  1.4491  0.9704
 2487TIP3    H228877   5.466   5.168   1.917  0.1744 -0.3223 -0.6075
 2488TIP3   OH228878   4.260   1.431   5.887 -0.3206 -0.7640 -0.3335
 2488TIP3    H128879   4.239   1.438   5.980 -0.2335  0.7750 -0.4188
 2488TIP3    H228880   4.182   1.462   5.842  0.0250 -0.4854 -0.7497
 2489TIP3   OH228881   3.006   0.235   5.152  0.2029 -0.0498  0.5568
 2489TIP3    H128882   3.072   0.173   5.121 -1.1849 -0.8835 -0.8246
 2489TIP3    H228883   3.029   0.318   5.111  0.5306 -0.2793  0.2757
 2490TIP3   OH228884   2.358   5.852   0.904 -0.6172  0.2808 -0.2037
 2490TIP3    H128885   2.401   5.826   0.985 -0.2284  0.9370 -0.2000
 2490TIP3    H228886   2.288   5.787   0.893 -1.9461  1.3331  1.6973
 2491TIP3   OH228887   6.528   5.476   0.897 -0.1992 -0.3176 -0.3278
 2491TIP3    H128888   6.476   5.507   0.824 -2.3748 -0.8859  0.9300
 2491TIP3    H228889   6.481   5.398   0.929  1.1835 -0.6005  1.0879
 2492TIP3   OH228890   4.071   3.391   1.642  0.0133 -0.0654  0.4604
 2492TIP3    H128891   4.116   3.342   1.574 -1.4901 -0.3523 -0.3573
 2492TIP3    H228892   4.129   3.465   1.661  1.0820 -0.7420 -0.1309
 2493TIP3   OH228893   6.130   1.474  16.619 -0.2585  0.6041 -0.6701
 2493TIP3    H128894   6.192   1.463  16.547 -1.2562 -0.3477 -1.3890
 2493TIP3    H228895   6.167   1.422  16.691 -0.9065 -1.0783 -1.5321
 2494TIP3   OH228896   0.572   2.611   2.175 -0.3198  0.8308 -0.0770
 2494TIP3    H128897   0.544   2.631   2.264  0.6547  0.6552  0.2834
 2494TIP3    H228898   0.651   2.663   2.163  0.6397 -0.6018 -0.1428
 2495TIP3   OH228899   0.334   5.309   5.707 -0.0810 -0.4097  0.4970
 2495TIP3    H128900   0.310   5.261   5.628 -1.2298 -0.0975  0.6453
 2495TIP3    H228901   0.425   5.334   5.694 -0.6132  0.6615 -1.2252
 2496TIP3   OH228902   0.407   1.683   6.271 -0.5331 -0.0570 -0.2422
 2496TIP3    H128903   0.342   1.741   6.312 -0.0036 -0.6448  1.4501
 2496TIP3    H228904   0.491   1.725   6.290 -0.2817 -0.2633 -0.8743
 2497TIP3   OH228905   6.023   0.444  12.669 -0.1221  0.1701  0.3195
 2497TIP3    H128906   6.034   0.538  12.655  0.0865  0.0145 -0.5755
 2497TIP3    H228907   5.945   0.437  12.724  0.3958  0.9168  1.1551
 2498TIP3   OH228908   6.745   2.759   3.322 -0.0057  0.1066 -0.3198
 2498TIP3    H128909   6.775   2.835   3.271 -0.2938  0.2705 -0.2481
 2498TIP3    H228910   6.824   2.706   3.334  0.4242  0.9078  0.5221
 2499TIP3   OH228911   2.751   3.086   5.339  0.3566  0.1012 -0.0424
 2499TIP3    H128912   2.821   3.024   5.360 -1.0331 -1.2660  0.6135
 2499TIP3    H228913   2.766   3.160   5.398  0.0315 -1.0855  1.5380
 2500TIP3   OH228914   0.137   0.815  12.926  0.5012 -0.0975  0.2872
 2500TIP3    H128915   0.167   0.748  12.987  1.1712 -0.3240 -0.2915
 2500TIP3    H228916   0.216   0.858  12.895  0.0854  0.8829  0.5479
 2501TIP3   OH228917   0.669   2.607  13.914  0.0982 -0.6151  0.0239
 2501TIP3    H128918   0.578   2.628  13.934  0.0496 -0.9540  0.1528
 2501TIP3    H228919   0.720   2.660  13.976  0.0822  1.8088 -1.9402
 2502TIP3   OH228920   5.928   1.191   4.410  0.0103 -0.3885 -0.6994
 2502TIP3    H128921   5.920   1.137   4.331 -0.5649 -1.0016 -0.2240
 2502TIP3    H228922   5.869   1.265   4.394  1.1113  0.3300 -1.5272
 2503TIP3   OH228923   3.492   6.149  17.041  0.0440 -0.1521  0.2183
 2503TIP3    H128924   3.413   6.192  17.007 -0.4251 -1.0064  0.2186
 2503TIP3    H228925   3.478   6.145  17.136  0.1792 -0.1115  0.2392
 2504TIP3   OH228926   5.823   4.141  12.906 -0.2387 -0.1847 -0.0961
 2504TIP3    H128927   5.813   4.134  13.001  1.2606  0.3219  0.1255
 2504TIP3    H228928   5.771   4.217  12.882 -1.8290 -1.1987  0.1001
 2505TIP3   OH228929   1.198   2.877   0.236 -0.2007  0.7394  0.1402
 2505TIP3    H128930   1.172   2.785   0.246 -1.0741  0.9219 -0.4098
 2505TIP3    H228931   1.230   2.902   0.323 -0.1379 -0.0257  0.3438
 2506TIP3   OH228932   2.070   0.464   1.417 -0.2681  0.2027  0.9202
 2506TIP3    H128933   2.039   0.374   1.415 -0.8738  0.4231 -1.5863
 2506TIP3    H228934   2.009   0.512   1.361  1.3465  1.7062  0.3728
 2507TIP3   OH228935   3.241   0.620   0.728  0.6470 -0.7725  0.2690
 2507TIP3    H128936   3.319   0.675   0.722  0.4274 -0.4406  0.4498
 2507TIP3    H228937   3.264   0.541   0.680  1.3413 -0.9612  0.9006
 2508TIP3   OH228938   1.441   1.873   6.539 -0.5098 -0.2021 -0.2789
 2508TIP3    H128939   1.505   1.882   6.609 -1.1059 -0.5957  0.3132
 2508TIP3    H228940   1.359   1.904   6.577 -0.8836 -0.6314 -0.7332
 2509TIP3   OH228941   4.735   0.925   2.848 -0.4780 -0.3748  0.1403
 2509TIP3    H128942   4.770   1.009   2.878 -0.1545 -0.5865  0.3529
 2509TIP3    H228943   4.809   0.882   2.806 -0.6646 -0.5206 -0.0346
 2510TIP3   OH228944   5.789   6.754  11.007  0.9618 -0.0362 -0.3113
 2510TIP3    H128945   5.745   6.802  10.937  0.9917 -0.7272 -0.8031
 2510TIP3    H228946   5.732   6.766  11.084  0.7228  0.3742 -0.5516
 2511TIP3   OH228947   0.912   0.107  11.502 -0.3041 -0.5453 -0.0878
 2511TIP3    H128948   0.941   0.124  11.412 -2.0524 -1.4648 -0.8589
 2511TIP3    H228949   0.835   0.162  11.514  0.0272 -0.2899  0.9167
 2512TIP3   OH228950   1.312   3.593   0.372 -0.2421  0.0565  0.0677
 2512TIP3    H128951   1.284   3.604   0.462  1.1412 -2.0458  0.7835
 2512TIP3    H228952   1.340   3.502   0.366  0.9888  0.5401 -2.1226
 2513TIP3   OH228953   0.908   4.442   2.069 -1.3078 -0.1613  0.8466
 2513TIP3    H128954   0.868   4.355   2.065  1.1924 -1.3775  0.9551
 2513TIP3    H228955   1.002   4.425   2.057 -0.6659  2.4218  1.9171
 2514TIP3   OH228956   4.092   0.913  14.503  0.4940  0.1375  0.1168
 2514TIP3    H128957   4.176   0.880  14.534  0.9453  1.4563  0.3481
 2514TIP3    H228958   4.086   0.884  14.412  1.5081  0.6150 -0.1097
 2515TIP3   OH228959   2.732   0.322   1.058  0.3884 -0.1509  0.2054
 2515TIP3    H128960   2.726   0.417   1.054  3.9898  0.1887  1.3467
 2515TIP3    H228961   2.750   0.296   0.967  0.1495  0.2862  0.0286
 2516TIP3   OH228962   6.549   5.173  12.669 -0.2707 -0.5319 -0.1747
 2516TIP3    H128963   6.587   5.231  12.603  0.4977 -0.9810 -0.1295
 2516TIP3    H228964   6.454   5.185  12.660 -0.2186 -1.3634 -2.0638
 2517TIP3   OH228965   1.392   4.022  12.181 -0.0278  0.1574  0.0782
 2517TIP3    H128966   1.348   4.089  12.129 -1.1050  0.3367  1.2085
 2517TIP3    H228967   1.458   3.986  12.122  0.1496  1.7794 -0.7322
 2518TIP3   OH228968   1.244   3.873  14.732  0.4991 -0.1178  0.2365
 2518TIP3    H128969   1.174   3.929  14.767  0.9273  1.4175 -1.2910
 2518TIP3    H228970   1.226   3.786  14.768 -1.6945  0.4515  0.5787
 2519TIP3   OH228971   6.056   0.166   5.056  0.3208 -0.6009 -0.2686
 2519TIP3    H128972   6.142   0.166   5.013  0.5244  2.4695  0.0245
 2519TIP3    H228973   6.002   0.222   5.000 -0.8568 -0.6880  0.7695
 2520TIP3   OH228974   5.334   0.967  11.662 -0.3308 -0.2866  0.1713
 2520TIP3    H128975   5.295   0.879  11.657 -0.7757  0.0473 -2.8580
 2520TIP3    H228976   5.266   1.020  11.704 -1.1196 -0.8116 -0.4245
 2521TIP3   OH228977   6.152   5.417   3.720  0.1375  0.2294 -0.3118
 2521TIP3    H128978   6.182   5.508   3.712  0.7427  0.2308  1.6032
 2521TIP3    H228979   6.084   5.419   3.787 -1.0108 -0.4811 -1.4468
 2522TIP3   OH228980   5.666   2.282  14.745 -0.1013  0.0044  0.1831
 2522TIP3    H128981   5.703   2.296  14.658  0.4684 -0.8403  0.2792
 2522TIP3    H228982   5.737   2.304  14.805 -0.6266  0.9887  0.4524
 2523TIP3   OH228983   0.171   6.404  11.768  0.1688 -0.1062 -0.2554
 2523TIP3    H128984   0.123   6.353  11.703  0.2387 -2.1930  1.2828
 2523TIP3    H228985   0.256   6.359  11.775  0.1984  0.1556  1.1895
 2524TIP3   OH228986   4.408   1.856  16.923 -0.1880  0.0423  0.3226
 2524TIP3    H128987   4.420   1.925  16.989 -0.7114 -0.8592  1.3801
 2524TIP3    H228988   4.480   1.869  16.861 -0.3003  1.5562  0.4888
 2525TIP3   OH228989   0.974   6.614   5.484  0.9442  0.0310  0.4026
 2525TIP3    H128990   1.007   6.526   5.465  1.2415  0.1661  0.2847
 2525TIP3    H228991   1.005   6.668   5.411  0.3638  0.1409  0.2371
 2526TIP3   OH228992   5.493   1.299  16.514  0.1128 -0.1562 -0.3304
 2526TIP3    H128993   5.451   1.306  16.600 -0.3083  0.1700 -0.5557
 2526TIP3    H228994   5.511   1.389  16.488  0.1055 -0.2438 -0.6474
 2527TIP3   OH228995   4.927   6.573  14.097 -0.0733 -0.6968  0.5239
 2527TIP3    H128996   4.996   6.547  14.159  0.6963  1.1934  0.4833
 2527TIP3    H228997   4.857   6.608  14.153 -1.3642 -3.3030  0.6233
 2528TIP3   OH228998   2.120   6.621  16.127  0.0748 -0.1946 -0.0665
 2528TIP3    H128999   2.093   6.539  16.084  0.6066 -0.4513  0.0834
 2528TIP3    H229000   2.067   6.688  16.085  0.4418 -0.4718 -1.0001
 2529TIP3   OH229001   1.928   1.217  11.791 -0.0308  0.0545  0.0045
 2529TIP3    H129002   1.985   1.262  11.853 -0.4103 -1.2659  1.3372
 2529TIP3    H229003   1.956   1.249  11.705  2.0738  0.1455  0.6941
 2530TIP3   OH229004   3.315   1.712   2.545 -0.5448 -0.3287 -0.2801
 2530TIP3    H129005   3.260   1.744   2.474 -1.4749 -0.1538  0.4979
 2530TIP3    H229006   3.368   1.788   2.571  0.4379 -0.6381 -1.3735
 2531TIP3   OH229007   6.542   6.533   2.877  0.2271 -0.6068  0.6362
 2531TIP3    H129008   6.566   6.547   2.969  0.5000 -0.3516  0.5259
 2531TIP3    H229009   6.605   6.470   2.844  2.5477  2.1673 -0.4348
 2532TIP3   OH229010   1.033   6.456   1.842 -0.0584 -0.1653 -0.4978
 2532TIP3    H129011   1.027   6.547   1.871  0.4052 -0.1305 -0.4946
 2532TIP3    H229012   0.945   6.421   1.850  0.3162 -0.5629  2.2802
 2533TIP3   OH229013   3.428   2.520   6.681 -0.9741 -0.3733 -0.4752
 2533TIP3    H129014   3.347   2.511   6.731 -1.0992 -2.0318 -0.9475
 2533TIP3    H229015   3.484   2.574   6.736 -2.0069 -0.1258  0.3535
 2534TIP3   OH229016   0.047   3.442  15.838 -0.1279  0.1129  0.3073
 2534TIP3    H129017  -0.011   3.370  15.863 -0.4059  1.1197  2.7186
 2534TIP3    H229018   0.133   3.415  15.871  0.5986 -0.9060 -2.3466
 2535TIP3   OH229019   2.035   2.481   5.596  0.3265 -0.1478  0.3981
 2535TIP3    H129020   2.058   2.569   5.625  1.5088 -0.2883 -0.0824
 2535TIP3    H229021   2.015   2.433   5.677 -1.6442  0.9174  0.5590
 2536TIP3   OH229022   0.833   0.358  14.198  0.4762 -0.6495  0.0622
 2536TIP3    H129023   0.766   0.330  14.136  0.5804  0.8632 -0.7757
 2536TIP3    H229024   0.843   0.452  14.182  0.8976 -0.3289  2.0127
 2537TIP3   OH229025   1.101   0.802  15.191  0.3862 -0.2979  0.0359
 2537TIP3    H129026   1.008   0.797  15.213  0.4750  0.7684  0.6783
 2537TIP3    H229027   1.103   0.845  15.105  0.2971 -0.0807  0.1420
 2538TIP3   OH229028   1.067   0.050  11.150  0.4275 -0.3129  0.1249
 2538TIP3    H129029   1.059  -0.041  11.177 -1.4150 -0.5459 -1.1474
 2538TIP3    H229030   0.990   0.067  11.097  1.4103  1.6235 -0.7522
 2539TIP3   OH229031   4.900   5.483  14.733 -0.4167 -0.0513  0.7976
 2539TIP3    H129032   4.829   5.497  14.671 -0.9363  2.8317  1.9835
 2539TIP3    H229033   4.898   5.389  14.751 -3.2030 -0.1914 -0.0736
 2540TIP3   OH229034   4.120   2.603  16.486  0.3237  0.1573  0.0749
 2540TIP3    H129035   4.064   2.601  16.409  0.8717 -1.3574 -0.3152
 2540TIP3    H229036   4.113   2.692  16.520 -0.9973  0.4403 -0.9329
 2541TIP3   OH229037   4.882   4.305  13.548  0.3680 -1.0208  0.5649
 2541TIP3    H129038   4.948   4.294  13.616 -1.3124 -0.2568  2.3650
 2541TIP3    H229039   4.808   4.347  13.592 -0.7770 -0.5161 -1.7265
 2542TIP3   OH229040   4.921   3.474  12.014  0.1688  0.0187  0.3274
 2542TIP3    H129041   4.901   3.387  12.049  0.2994  0.1909  0.8347
 2542TIP3    H229042   4.873   3.478  11.931 -0.4488 -0.2564  0.6646
 2543TIP3   OH229043   2.719   4.154   2.827  0.3110 -0.0539 -0.5388
 2543TIP3    H129044   2.655   4.157   2.899 -0.3148 -0.4561 -1.0727
 2543TIP3    H229045   2.669   4.121   2.753  1.6511 -2.4083 -0.4261
 2544TIP3   OH229046   6.484   3.007   5.416  0.3688  0.2847 -0.7527
 2544TIP3    H129047   6.428   3.075   5.379 -0.0728 -0.2081 -0.9843
 2544TIP3    H229048   6.494   3.031   5.508  0.0106  0.5240 -0.7769
 2545TIP3   OH229049   3.836   5.872   0.558 -0.0376  0.1276 -0.1510
 2545TIP3    H129050   3.783   5.950   0.541  0.5485  0.7172  0.7197
 2545TIP3    H229051   3.903   5.875   0.490  1.1707  1.4668  1.0701
 2546TIP3   OH229052   1.174   4.744   3.368  0.1303 -0.0710  0.2636
 2546TIP3    H129053   1.223   4.674   3.325  1.5093  1.6329 -1.0602
 2546TIP3    H229054   1.111   4.773   3.303 -0.0056  0.3291  0.5672
 2547TIP3   OH229055   6.326   2.884   0.068 -0.1626 -0.6407  0.4724
 2547TIP3    H129056   6.371   2.800   0.070  0.1508 -0.5281 -1.0541
 2547TIP3    H229057   6.244   2.869   0.115 -1.6668 -2.7487 -2.6550
 2548TIP3   OH229058   0.363   2.626  16.910  0.0652 -0.0883  0.5140
 2548TIP3    H129059   0.273   2.618  16.879 -0.0220 -1.1848  1.0176
 2548TIP3    H229060   0.358   2.691  16.980 -0.2631  0.1629  0.2604
 2549TIP3   OH229061   4.767   2.104  10.833 -0.0051  0.2178 -0.2912
 2549TIP3    H129062   4.827   2.053  10.887 -1.1601  0.3141  1.1372
 2549TIP3    H229063   4.737   2.174  10.891 -0.1485  1.1992 -1.5244
 2550TIP3   OH229064   5.323   5.308   3.931 -0.1190  0.8676  0.3772
 2550TIP3    H129065   5.319   5.309   4.027 -0.9154 -1.6616  0.3971
 2550TIP3    H229066   5.397   5.252   3.910 -0.9634  0.0482 -0.4789
 2551TIP3   OH229067   2.014   3.863  13.066 -0.1969 -0.1429 -0.2051
 2551TIP3    H129068   1.969   3.821  13.140 -2.2015  1.1932 -0.6406
 2551TIP3    H229069   2.011   3.798  12.996 -0.6735 -0.4117  0.0623
 2552TIP3   OH229070   4.962   3.083  15.984  0.1258  0.3611  0.2205
 2552TIP3    H129071   5.036   3.136  15.953 -0.2912  0.5863 -0.4137
 2552TIP3    H229072   4.938   3.029  15.909 -0.5281  0.4948  0.3236
 2553TIP3   OH229073   5.499   6.431   4.918  0.7675 -0.3214 -0.1879
 2553TIP3    H129074   5.532   6.365   4.858 -0.3271  0.6965 -1.9377
 2553TIP3    H229075   5.536   6.407   5.003  1.7470 -2.1839 -1.1251
 2554TIP3   OH229076   2.432   1.662   0.181  0.0600  0.2265 -0.2436
 2554TIP3    H129077   2.441   1.755   0.205 -0.3263  0.5786 -1.3956
 2554TIP3    H229078   2.478   1.615   0.249  0.7115  1.3091  0.0778
 2555TIP3   OH229079   1.036   1.117   2.580 -0.0146  0.0287 -0.4046
 2555TIP3    H129080   1.102   1.142   2.645 -1.2522 -0.6694  1.1608
 2555TIP3    H229081   1.031   1.022   2.585 -0.4523  0.0014 -1.2139
 2556TIP3   OH229082   4.065   3.984  12.227 -0.1306  0.6406  0.1474
 2556TIP3    H129083   4.152   3.969  12.264 -0.2871 -0.1756  0.2020
 2556TIP3    H229084   4.063   4.077  12.205  0.3088  0.9281  1.3003
 2557TIP3   OH229085   1.460   5.341  16.837  0.2088  0.5905  0.1417
 2557TIP3    H129086   1.439   5.434  16.832  1.7920  0.9558 -0.1416
 2557TIP3    H229087   1.401   5.306  16.904  0.2760  1.9948  0.9435
 2558TIP3   OH229088   5.276   1.255   3.778 -0.0178 -0.2772 -0.3171
 2558TIP3    H129089   5.296   1.232   3.687 -0.2809  0.2025 -0.5018
 2558TIP3    H229090   5.318   1.340   3.791 -0.0690 -0.2955 -0.0224
 2559TIP3   OH229091   3.619   0.707  14.117  0.3836  0.1271  0.0679
 2559TIP3    H129092   3.527   0.703  14.143  0.4315  0.2548  0.2522
 2559TIP3    H229093   3.642   0.799  14.124  0.3688  0.1818 -0.5159
 2560TIP3   OH229094   6.392   1.153  12.894  0.4422 -0.4120  0.1076
 2560TIP3    H129095   6.452   1.226  12.909 -0.1209 -0.2362  1.5121
 2560TIP3    H229096   6.450   1.079  12.874  1.0679  0.0406  0.2247
 2561TIP3   OH229097   6.608   0.031   0.839 -0.2853  0.0292 -0.6072
 2561TIP3    H129098   6.528  -0.008   0.803  1.9838 -3.4869 -2.0566
 2561TIP3    H229099   6.667   0.038   0.765  1.8961 -0.4108  1.0429
 2562TIP3   OH229100   5.904   3.384   5.169 -0.0309  0.1835  0.1817
 2562TIP3    H129101   5.813   3.387   5.197  0.8146  1.2478  3.0798
 2562TIP3    H229102   5.941   3.308   5.215  0.8617  0.6047  0.1838
 2563TIP3   OH229103   4.824   6.306  16.644  0.1962  0.7192 -0.2214
 2563TIP3    H129104   4.780   6.389  16.663 -0.4783  0.4238 -0.4938
 2563TIP3    H229105   4.913   6.332  16.618  0.6442  1.2307  1.7542
 2564TIP3   OH229106   6.702   6.116   1.391 -0.8663  0.1976  0.5239
 2564TIP3    H129107   6.711   6.069   1.473  0.8563  1.9272  1.3780
 2564TIP3    H229108   6.607   6.123   1.377 -1.1708 -0.0704  2.3724
 2565TIP3   OH229109   3.885   2.425  14.134 -0.6048  0.0175  0.1485
 2565TIP3    H129110   3.823   2.357  14.106  0.8304 -0.9345 -0.7888
 2565TIP3    H229111   3.965   2.405  14.085  0.4253  1.2535  1.3211
 2566TIP3   OH229112   6.340   0.019  10.637  0.2885 -0.1898 -0.2944
 2566TIP3    H129113   6.297  -0.038  10.573  0.4854  1.1692 -1.6506
 2566TIP3    H229114   6.425  -0.022  10.652  0.1869 -0.5804 -0.7764
 2567TIP3   OH229115   0.109   2.160  16.145  0.1466  0.0594  0.0575
 2567TIP3    H129116   0.204   2.150  16.148  0.0614 -0.6003  4.0813
 2567TIP3    H229117   0.084   2.179  16.236 -3.3193  2.8643 -1.3224
 2568TIP3   OH229118   1.993   1.014   2.864  0.2377  0.1691  0.9674
 2568TIP3    H129119   2.021   0.924   2.846  1.1092  0.6225  0.0423
 2568TIP3    H229120   1.967   1.013   2.956 -1.9320 -1.5903  0.3866
 2569TIP3   OH229121   2.346   4.049   2.536  0.8084  0.3286 -0.2411
 2569TIP3    H129122   2.278   4.072   2.472  0.3999  1.4254  0.5863
 2569TIP3    H229123   2.299   4.003   2.605  0.7000  2.1560  0.9248
 2570TIP3   OH229124   6.128   3.929   1.005 -0.5254  0.0122  0.2913
 2570TIP3    H129125   6.204   3.894   0.959 -1.2560 -1.1994 -0.0013
 2570TIP3    H229126   6.060   3.863   0.993 -2.0813  1.7383 -0.6830
 2571TIP3   OH229127   1.089   6.205  12.718  0.1964 -0.4943 -0.1966
 2571TIP3    H129128   1.062   6.233  12.630  0.4171 -0.2850 -0.2000
 2571TIP3    H229129   1.075   6.283  12.772  1.3683 -0.1878 -0.3197
 2572TIP3   OH229130   3.892   6.337   4.235 -0.4089  0.9528 -0.2159
 2572TIP3    H129131   3.856   6.387   4.309  1.6999  0.6778  1.0175
 2572TIP3    H229132   3.915   6.404   4.170 -0.0421  1.3732  0.3484
 2573TIP3   OH229133   3.446   2.787   0.452 -0.1374 -0.0247  0.3656
 2573TIP3    H129134   3.441   2.708   0.398  1.5288  0.0588  0.0453
 2573TIP3    H229135   3.493   2.850   0.397  0.9278  0.3055  1.6274
 2574TIP3   OH229136   3.508   0.698  12.026 -0.2008 -0.5501 -0.1939
 2574TIP3    H129137   3.429   0.650  12.000  0.5289 -1.7455 -0.2595
 2574TIP3    H229138   3.578   0.656  11.976  0.4023  0.8455 -0.5314
 2575TIP3   OH229139   2.795   1.649   0.197  0.2470  0.1964 -0.1793
 2575TIP3    H129140   2.810   1.554   0.195 -0.3179  0.1203 -0.8232
 2575TIP3    H229141   2.816   1.674   0.287  1.4740 -0.3556 -0.3011
 2576TIP3   OH229142   3.455   5.580  13.925  0.3269 -0.0089 -0.0879
 2576TIP3    H129143   3.519   5.645  13.895 -1.4064  1.6215 -0.4101
 2576TIP3    H229144   3.434   5.529  13.846 -1.5690  1.9502 -0.9014
 2577TIP3   OH229145   5.982   5.419   5.484 -0.1014 -0.5830 -0.3601
 2577TIP3    H129146   6.053   5.395   5.544 -1.0622 -1.6391  0.3870
 2577TIP3    H229147   5.937   5.491   5.528 -1.1076 -1.6840  0.4486
 2578TIP3   OH229148   6.489   5.875   5.639 -0.5578  0.2665 -0.0810
 2578TIP3    H129149   6.416   5.813   5.641 -0.9584  0.6625 -1.5139
 2578TIP3    H229150   6.447   5.961   5.630  0.0368  0.6467  0.7230
 2579TIP3   OH229151   2.919   5.648  16.786 -0.2046 -0.0276  0.0924
 2579TIP3    H129152   2.897   5.570  16.838  0.5091 -1.0476 -1.1185
 2579TIP3    H229153   3.013   5.643  16.774 -0.3558  0.2410 -1.2415
 2580TIP3   OH229154   0.847   3.613  12.392  0.2215 -0.5033  0.0465
 2580TIP3    H129155   0.838   3.676  12.464 -0.6207  0.1786 -0.6536
 2580TIP3    H229156   0.905   3.657  12.329  0.1918 -0.7160 -0.1298
 2581TIP3   OH229157   5.762   4.738   4.350 -0.0521 -0.0519  0.0921
 2581TIP3    H129158   5.732   4.651   4.324  0.1276  0.0599 -0.4877
 2581TIP3    H229159   5.857   4.736   4.339 -0.1464  0.5406 -0.9072
 2582TIP3   OH229160   0.711   4.000   3.349 -0.0116  0.0847  0.2749
 2582TIP3    H129161   0.782   3.936   3.347  0.3530  0.4452  1.3303
 2582TIP3    H229162   0.742   4.072   3.294  0.6117  0.4065  1.0352
 2583TIP3   OH229163   4.195   5.660   1.487 -0.1270  0.2478  0.7048
 2583TIP3    H129164   4.268   5.608   1.454  0.0613 -0.0207  1.5419
 2583TIP3    H229165   4.192   5.640   1.581 -0.8703  0.7479  0.7858
 2584TIP3   OH229166   3.622   3.009   4.347  0.2944 -0.2366  0.1833
 2584TIP3    H129167   3.528   3.025   4.345 -0.1077 -2.3004  1.0146
 2584TIP3    H229168   3.659   3.078   4.292 -1.8399 -0.3961 -1.5491
 2585TIP3   OH229169   6.061   3.664   4.097 -0.4445  0.1859 -0.0674
 2585TIP3    H129170   6.068   3.600   4.168  3.0151  2.7848  2.0870
 2585TIP3    H229171   6.098   3.619   4.021 -1.8999 -1.7859  0.3563
 2586TIP3   OH229172   3.834   2.711   0.473 -0.2004  0.4663 -1.0775
 2586TIP3    H129173   3.922   2.677   0.489 -0.9174 -0.0188  2.3437
 2586TIP3    H229174   3.847   2.806   0.464  0.4436  0.7836  2.3151
 2587TIP3   OH229175   1.776   6.502   1.375 -0.0910  0.1154  0.4656
 2587TIP3    H129176   1.824   6.580   1.348  0.8637 -0.2908  0.9712
 2587TIP3    H229177   1.727   6.530   1.453  0.4873  0.1307  0.8272
 2588TIP3   OH229178   0.058   2.806  13.962  0.1612 -0.7430  0.1612
 2588TIP3    H129179   0.077   2.746  13.890  0.2868  0.1611 -0.5647
 2588TIP3    H229180   0.004   2.875  13.922 -0.8276 -0.8926  1.2061
 2589TIP3   OH229181   4.701   5.933   3.055  0.2446 -0.1257 -0.5139
 2589TIP3    H129182   4.634   6.001   3.042  1.5235  0.9260 -1.8164
 2589TIP3    H229183   4.760   5.971   3.121  0.2422 -0.5363 -0.2759
 2590TIP3   OH229184   5.180   3.697  14.714  0.0350 -0.9552 -0.2855
 2590TIP3    H129185   5.253   3.655  14.668  0.2979 -0.4360 -0.3504
 2590TIP3    H229186   5.196   3.676  14.806 -0.1681 -1.5034 -0.3747
 2591TIP3   OH229187   3.040   5.091   1.423 -0.5762  0.3063 -0.1025
 2591TIP3    H129188   3.025   5.025   1.355 -1.5859  0.7572 -0.3178
 2591TIP3    H229189   3.107   5.149   1.386  0.5432 -0.7472  0.2033
 2592TIP3   OH229190   3.400   0.727  13.505 -0.2858  0.3799  0.3920
 2592TIP3    H129191   3.415   0.669  13.431 -0.3988  0.8321  0.0109
 2592TIP3    H229192   3.331   0.684  13.556 -0.6915  0.4094 -0.1328
 2593TIP3   OH229193   2.078   6.612   0.267 -0.0651  0.0771 -0.0636
 2593TIP3    H129194   2.123   6.632   0.185  1.2322 -1.3359  0.2797
 2593TIP3    H229195   2.129   6.658   0.334  0.4804 -0.9472  0.2419
 2594TIP3   OH229196   3.483   2.622  15.951  0.4372  0.3041  0.1534
 2594TIP3    H129197   3.509   2.571  16.027  0.6642  2.1564  1.3400
 2594TIP3    H229198   3.391   2.646  15.967 -0.0767 -0.8343 -1.0180
 2595TIP3   OH229199   5.472   1.166   2.128 -0.1694 -0.0863 -0.7999
 2595TIP3    H129200   5.466   1.261   2.119 -0.2985 -0.1052 -0.9097
 2595TIP3    H229201   5.457   1.132   2.040 -2.7663 -0.3278 -0.3163
 2596TIP3   OH229202   5.434   4.397   2.074  0.1023  0.0239  0.1988
 2596TIP3    H129203   5.390   4.333   2.131 -1.8669  2.1251  1.1120
 2596TIP3    H229204   5.364   4.430   2.018  1.5417 -0.1682 -1.7340
 2597TIP3   OH229205   6.200   5.911  12.768 -0.3987  0.3668  0.1519
 2597TIP3    H129206   6.232   5.855  12.697 -0.2992  0.5317  0.0653
 2597TIP3    H229207   6.128   5.861  12.807  1.4682 -1.0467  1.8660
 2598TIP3   OH229208   5.685   0.001  13.923  0.0272 -0.0247  0.3803
 2598TIP3    H129209   5.688  -0.059  13.849 -1.4977 -1.0426  1.1072
 2598TIP3    H229210   5.713  -0.051  13.998 -0.1390  0.4916  0.8064
 2599TIP3   OH229211   2.160   6.432  15.181 -0.0923 -0.6877 -0.0330
 2599TIP3    H129212   2.188   6.425  15.272 -0.0027 -0.2905 -0.0268
 2599TIP3    H229213   2.220   6.496  15.142  0.7532 -1.8810 -0.7349
 2600TIP3   OH229214   5.263   2.682  11.910 -0.3242 -0.0301  0.0735
 2600TIP3    H129215   5.350   2.680  11.949 -0.5629  1.5025  0.7380
 2600TIP3    H229216   5.259   2.604  11.855  1.4231 -0.1739  0.1210
 2601TIP3   OH229217   6.359   4.739  16.472  0.0035 -0.0981  0.1710
 2601TIP3    H129218   6.377   4.830  16.496 -1.1851 -0.5218  2.8551
 2601TIP3    H229219   6.274   4.743  16.427  1.0484  0.3740 -1.8378
 2602TIP3   OH229220   5.136   5.531   0.663 -0.1650 -0.1375 -0.1475
 2602TIP3    H129221   5.228   5.523   0.686 -0.4388 -0.5370  0.8319
 2602TIP3    H229222   5.098   5.445   0.682 -1.1268  0.5892  1.3033
 2603TIP3   OH229223   0.021   2.303   0.404 -0.4992 -0.2623  0.5948
 2603TIP3    H129224   0.041   2.209   0.405 -0.1960 -0.1900  1.8319
 2603TIP3    H229225   0.057   2.336   0.486  1.7922  1.4452 -1.0505
 2604TIP3   OH229226   0.681   2.339   5.665 -0.2301 -0.3114 -0.0390
 2604TIP3    H129227   0.695   2.399   5.591  0.3814 -0.2466  0.1312
 2604TIP3    H229228   0.769   2.314   5.693 -0.4187  0.9872  1.7656
 2605TIP3   OH229229   6.068   4.739   0.436 -0.8709 -0.2296 -0.1877
 2605TIP3    H129230   6.071   4.697   0.350 -1.7894  0.0576 -0.3662
 2605TIP3    H229231   6.114   4.678   0.494  0.4915 -0.0425 -1.0305
 2606TIP3   OH229232   2.568   3.762  12.112 -0.1672 -0.0536 -0.0425
 2606TIP3    H129233   2.499   3.804  12.061  2.2460 -0.6707 -4.0643
 2606TIP3    H229234   2.648   3.810  12.089  1.6347 -2.9050 -0.0525
 2607TIP3   OH229235   6.746   3.623  12.599 -0.0874  0.1714  0.0463
 2607TIP3    H129236   6.837   3.639  12.620  0.0354  0.2543 -0.5304
 2607TIP3    H229237   6.699   3.635  12.682  0.3162  1.0024  0.1606
 2608TIP3   OH229238   0.882   3.534  12.973  0.8720 -0.3700  0.2144
 2608TIP3    H129239   0.871   3.446  12.936 -1.4115 -0.8516  1.9861
 2608TIP3    H229240   0.795   3.573  12.970  1.8444  1.8106 -0.4246
 2609TIP3   OH229241   1.216   4.628  11.556  0.3758  0.0677 -0.1159
 2609TIP3    H129242   1.212   4.532  11.558  0.0761  0.1028  1.2033
 2609TIP3    H229243   1.279   4.648  11.487 -0.7968 -1.0500 -1.5754
 2610TIP3   OH229244   4.899   4.241   0.490 -0.4101  0.1544  0.1663
 2610TIP3    H129245   4.834   4.305   0.461  1.9093  3.3238  1.6681
 2610TIP3    H229246   4.854   4.191   0.559 -2.0815  0.5336 -0.6308
 2611TIP3   OH229247   4.462   3.888  11.110 -0.2929  0.4000  0.1835
 2611TIP3    H129248   4.412   3.813  11.079  0.9151 -0.3096 -0.0707
 2611TIP3    H229249   4.451   3.887  11.205 -0.5140  0.0669  0.1535
 2612TIP3   OH229250   4.835   1.320  12.351 -0.0285 -0.0594  0.1502
 2612TIP3    H129251   4.812   1.249  12.291  0.2454 -0.9319  1.0529
 2612TIP3    H229252   4.754   1.337  12.400  1.1117 -3.0649  3.2597
 2613TIP3   OH229253   4.776   3.743   5.592 -0.3099 -0.3731 -0.2072
 2613TIP3    H129254   4.801   3.651   5.583  2.9031  0.4352 -0.1143
 2613TIP3    H229255   4.722   3.746   5.672 -0.6129 -2.1814 -0.3382
 2614TIP3   OH229256   6.407   3.163  15.716 -0.2875  0.1736 -0.5955
 2614TIP3    H129257   6.330   3.217  15.698 -0.0098  0.7997  0.0621
 2614TIP3    H229258   6.458   3.214  15.779 -0.5529 -1.3221  0.8677
 2615TIP3   OH229259   4.340   0.507  15.059  0.5119 -0.8701  0.1882
 2615TIP3    H129260   4.371   0.483  14.972 -0.7086 -1.6040 -0.0575
 2615TIP3    H229261   4.249   0.477  15.062  0.6450 -1.1841  1.8438
 2616TIP3   OH229262   5.062   2.338   1.080 -0.1438 -0.3774 -0.2369
 2616TIP3    H129263   5.029   2.428   1.084  1.3022  0.1150  0.8242
 2616TIP3    H229264   5.124   2.339   1.007  1.3161 -0.0031  0.9765
 2617TIP3   OH229265   0.841   2.743   3.518  0.2652 -0.2860  0.4256
 2617TIP3    H129266   0.877   2.678   3.578  0.8525 -0.4594 -0.1050
 2617TIP3    H229267   0.865   2.827   3.558 -0.3798 -0.3875  1.0412
 2618TIP3   OH229268   5.238   2.704  14.243 -0.5484 -0.0923  0.6225
 2618TIP3    H129269   5.204   2.707  14.154 -3.5798  1.1393  1.7503
 2618TIP3    H229270   5.311   2.642  14.239 -3.6396 -3.8379 -1.7159
 2619TIP3   OH229271   2.314   5.401   3.032  0.3152  1.2881  0.1498
 2619TIP3    H129272   2.301   5.389   3.126  0.1651  2.1175  0.2387
 2619TIP3    H229273   2.348   5.490   3.024 -0.3330  1.4607 -0.6464
 2620TIP3   OH229274   3.381   0.552   1.296 -0.4138  0.0218  0.1485
 2620TIP3    H129275   3.290   0.573   1.313 -0.8293 -1.2122 -0.5046
 2620TIP3    H229276   3.391   0.564   1.202  0.3693  1.1387  0.3587
 2621TIP3   OH229277   0.933   0.879   5.345  0.4361 -0.1194  0.3174
 2621TIP3    H129278   0.875   0.954   5.334  2.0834  0.8879 -1.9229
 2621TIP3    H229279   0.875   0.807   5.370 -2.0647  0.3604 -3.6906
 2622TIP3   OH229280   1.651   0.335  14.314  0.1248 -0.5508  0.5686
 2622TIP3    H129281   1.570   0.384  14.302  1.4272  1.4375 -0.2035
 2622TIP3    H229282   1.707   0.392  14.367  1.6679 -1.1718 -0.3455
 2623TIP3   OH229283   6.581   0.845   2.631 -0.5764 -0.6508 -0.0310
 2623TIP3    H129284   6.493   0.845   2.669 -0.4525 -1.5879  0.2588
 2623TIP3    H229285   6.572   0.797   2.548 -0.4432 -0.2979 -0.2519
 2624TIP3   OH229286   0.611   0.048   2.387 -0.0816  0.4067 -0.2039
 2624TIP3    H129287   0.670   0.080   2.455  0.2569  0.4210 -0.5000
 2624TIP3    H229288   0.524   0.071   2.418  0.0755  0.4684  0.1937
 2625TIP3   OH229289   5.864   1.094   3.612  0.0218 -0.9305 -0.4269
 2625TIP3    H129290   5.895   1.120   3.525  1.0894 -0.8664 -0.0406
 2625TIP3    H229291   5.797   1.159   3.634 -0.1997 -0.9105 -1.1788
 2626TIP3   OH229292   1.331   5.196   2.179 -0.4255 -0.0123  0.0986
 2626TIP3    H129293   1.297   5.220   2.094  0.8331 -1.4387 -0.8497
 2626TIP3    H229294   1.390   5.267   2.203  0.9895 -0.6903 -1.3037
 2627TIP3   OH229295   4.857   2.299   2.582 -0.0308 -0.1390 -0.0433
 2627TIP3    H129296   4.945   2.275   2.611  0.3518  0.6552 -0.5100
 2627TIP3    H229297   4.801   2.285   2.658  0.6127 -0.0448  0.4425
 2628TIP3   OH229298   2.565   3.296  15.349 -0.4586  0.3988  0.5254
 2628TIP3    H129299   2.482   3.253  15.332  0.1339 -1.7289  2.7878
 2628TIP3    H229300   2.631   3.227  15.341  1.0507  1.9120 -0.6162
 2629TIP3   OH229301   4.800   2.508   3.388 -0.0770 -0.5180  0.3151
 2629TIP3    H129302   4.767   2.482   3.474 -0.9072 -0.2958  0.0733
 2629TIP3    H229303   4.728   2.488   3.328  1.0238 -1.9815 -0.5373
 2630TIP3   OH229304   5.118   1.625  14.688  0.3627 -0.1140  0.2043
 2630TIP3    H129305   5.070   1.587  14.616 -0.2007 -1.5805  1.3349
 2630TIP3    H229306   5.128   1.554  14.751 -1.1134  1.6696  2.5618
 2631TIP3   OH229307   0.148   0.383  12.166 -0.3877 -0.2433  0.2839
 2631TIP3    H129308   0.062   0.420  12.188 -0.1379  0.2104  0.4903
 2631TIP3    H229309   0.196   0.455  12.126  1.1500  0.5270  3.3636
 2632TIP3   OH229310   6.333   3.553   5.477 -0.2091  0.2021 -0.4666
 2632TIP3    H129311   6.354   3.566   5.385 -3.9983  1.9466 -1.1744
 2632TIP3    H229312   6.294   3.465   5.480  2.0764 -0.8343 -0.0633
 2633TIP3   OH229313   6.346   2.475  15.285 -0.3142  0.0742 -0.4636
 2633TIP3    H129314   6.253   2.499  15.276  0.0535  1.2683 -1.2471
 2633TIP3    H229315   6.385   2.499  15.201  1.4411  3.0595  1.0918
 2634TIP3   OH229316   1.892   2.844   2.666  0.1927  0.2699 -0.0475
 2634TIP3    H129317   1.825   2.807   2.610  0.5568 -3.0582  1.6012
 2634TIP3    H229318   1.846   2.865   2.748  0.5471  0.8976 -0.0047
 2635TIP3   OH229319   5.255   3.354  14.681  0.3434  0.7927  0.1674
 2635TIP3    H129320   5.162   3.335  14.682 -0.0773  2.7051 -0.0123
 2635TIP3    H229321   5.295   3.284  14.732 -1.0154 -0.8932 -1.0579
 2636TIP3   OH229322   6.612   2.545  15.479 -0.2001 -0.5640 -0.1708
 2636TIP3    H129323   6.636   2.600  15.553  0.2834 -1.1483  0.1137
 2636TIP3    H229324   6.518   2.558  15.469  0.1588  1.4474 -1.0503
 2637TIP3   OH229325   6.491   4.755   1.015 -0.4914  0.1821  0.7592
 2637TIP3    H129326   6.446   4.787   0.937  0.9040 -2.4235 -1.1721
 2637TIP3    H229327   6.581   4.786   1.004 -0.4522  0.4407  1.7448
 2638TIP3   OH229328   6.743   4.583  16.792 -0.1374 -0.2848 -0.2211
 2638TIP3    H129329   6.805   4.520  16.828  0.4563 -0.3944 -1.4100
 2638TIP3    H229330   6.662   4.568  16.842  0.3652 -1.1299  0.3473
 2639TIP3   OH229331   2.015   2.322   6.120  0.4793  0.2392  0.3169
 2639TIP3    H129332   2.032   2.231   6.098  2.1398  0.0709  2.1742
 2639TIP3    H229333   1.928   2.322   6.159 -0.0099 -0.3527 -0.7545
 2640TIP3   OH229334   1.652   0.981  13.576  0.5127  0.4149  0.1309
 2640TIP3    H129335   1.644   1.000  13.670  0.2671 -0.5142  0.3083
 2640TIP3    H229336   1.723   1.036  13.546  0.9905  0.2809  0.9967
 2641TIP3   OH229337   3.834   2.656  13.417  0.6037 -0.5826 -0.2134
 2641TIP3    H129338   3.783   2.717  13.363  1.1489  0.3170  0.2777
 2641TIP3    H229339   3.832   2.574  13.368 -0.8615 -0.4122 -0.4571
 2642TIP3   OH229340   5.367   1.243  12.651  0.1557 -0.0173  0.2560
 2642TIP3    H129341   5.303   1.228  12.582 -0.9842  0.6114  1.1535
 2642TIP3    H229342   5.443   1.191  12.626 -1.4705 -2.4278  0.2149
 2643TIP3   OH229343   5.763   3.833   1.252 -0.5195  0.0957  0.3455
 2643TIP3    H129344   5.716   3.852   1.170  1.5667 -0.1441 -0.9387
 2643TIP3    H229345   5.788   3.741   1.243  1.9597  0.7690  0.0880
 2644TIP3   OH229346   3.192   6.650   5.744 -0.4183  0.3578 -0.3224
 2644TIP3    H129347   3.238   6.568   5.726 -0.0014  0.1081  1.6956
 2644TIP3    H229348   3.157   6.638   5.833 -1.4850  1.8601 -0.5233
 2645TIP3   OH229349   4.821   2.185  16.945  0.3339 -0.6932  0.5831
 2645TIP3    H129350   4.892   2.223  16.996 -1.0312 -0.6129  2.5019
 2645TIP3    H229351   4.743   2.232  16.975 -0.7846 -2.0788 -0.0946
 2646TIP3   OH229352   6.622   6.207  17.062 -1.0965  0.9999  0.1762
 2646TIP3    H129353   6.686   6.217  16.991  0.0815  1.9916  1.3347
 2646TIP3    H229354   6.676   6.205  17.141 -2.3518 -0.6659  0.9976
 2647TIP3   OH229355   3.540   3.981  13.703 -0.0436  0.1343 -0.0508
 2647TIP3    H129356   3.616   4.038  13.694 -0.8433  1.0547 -1.1212
 2647TIP3    H229357   3.465   4.040  13.698 -0.8595 -0.8722  0.0792
 2648TIP3   OH229358   3.800   4.392  11.639 -0.6788  0.2226  0.3251
 2648TIP3    H129359   3.728   4.452  11.660  0.5402  1.6481  0.4596
 2648TIP3    H229360   3.822   4.412  11.548  0.9988  1.3219  0.9603
 2649TIP3   OH229361   2.574   3.503   4.013  0.3714  0.0025 -0.0549
 2649TIP3    H129362   2.628   3.477   4.088 -0.3125 -0.7773  0.1657
 2649TIP3    H229363   2.592   3.596   4.002  1.0003 -0.0341  0.6504
 2650TIP3   OH229364   4.563   2.456  16.212 -0.2248  0.0270  0.4110
 2650TIP3    H129365   4.479   2.501  16.221 -1.1299 -1.7162  0.9715
 2650TIP3    H229366   4.579   2.419  16.299  1.1289  0.3480  0.3060
 2651TIP3   OH229367   6.651   5.969  13.760  0.4571 -0.3455 -0.2580
 2651TIP3    H129368   6.661   5.920  13.678  0.8067 -2.4807  1.0208
 2651TIP3    H229369   6.570   5.935  13.799  1.1118 -0.4791  1.0135
 2652TIP3   OH229370   0.636   2.235   0.572  0.7543 -0.5283 -0.1741
 2652TIP3    H129371   0.561   2.295   0.581  0.3368 -0.9320 -0.9305
 2652TIP3    H229372   0.712   2.293   0.576  0.4313 -0.1667  1.1100
 2653TIP3   OH229373   1.047   1.733  15.929 -0.1333  0.2265  1.0135
 2653TIP3    H129374   1.007   1.810  15.889  0.7935  0.0566 -0.2625
 2653TIP3    H229375   0.975   1.691  15.976 -1.2073  0.5196 -0.3430
 2654TIP3   OH229376   1.575   6.535  14.372 -0.4224  0.5061  0.2821
 2654TIP3    H129377   1.507   6.470  14.388  0.1734  0.1808  1.5410
 2654TIP3    H229378   1.644   6.487  14.326 -0.3891  0.4707  0.3691
 2655TIP3   OH229379   0.573   0.364   0.516  0.0754 -0.2695 -0.3108
 2655TIP3    H129380   0.577   0.269   0.526 -0.0275 -0.2291  0.1290
 2655TIP3    H229381   0.493   0.379   0.465 -0.7745 -0.3172  0.9892
 2656TIP3   OH229382   3.262   1.433  11.040 -0.0598 -0.3465  0.0030
 2656TIP3    H129383   3.246   1.363  10.977 -0.2187 -0.6004  0.3203
 2656TIP3    H229384   3.204   1.504  11.013  0.5584 -0.1005 -0.6918
 2657TIP3   OH229385   5.382   1.280   3.509 -0.5188 -0.0206  0.2372
 2657TIP3    H129386   5.349   1.284   3.419 -0.5241 -0.6833  0.2128
 2657TIP3    H229387   5.403   1.371   3.531  1.4494 -0.1218 -1.1511
 2658TIP3   OH229388   5.182   1.370  15.540  0.1078 -0.0596 -0.0616
 2658TIP3    H129389   5.118   1.331  15.599  0.6428 -1.6154 -0.4912
 2658TIP3    H229390   5.192   1.460  15.571  1.1411 -1.1362  2.8478
 2659TIP3   OH229391   0.600   1.709  10.799 -0.1223 -0.4492 -0.1258
 2659TIP3    H129392   0.505   1.713  10.795 -0.1376 -0.6584 -0.0021
 2659TIP3    H229393   0.620   1.615  10.791  0.1166 -0.3146 -1.0896
 2660TIP3   OH229394   2.930   5.484  16.443  0.0507  0.2738 -0.0804
 2660TIP3    H129395   2.909   5.395  16.473  0.6828 -0.0863 -0.6696
 2660TIP3    H229396   2.875   5.541  16.496  1.9422 -0.2511  2.5971
 2661TIP3   OH229397   4.717   3.177  16.053  0.1724 -0.0067  0.0402
 2661TIP3    H129398   4.679   3.147  15.970  0.2220  1.7850 -0.6703
 2661TIP3    H229399   4.811   3.173  16.039  0.1915 -0.5231  0.3194
 2662TIP3   OH229400   4.069   4.047   0.634  0.3261  0.0986 -0.2334
 2662TIP3    H129401   4.085   4.132   0.675  0.5131 -0.3572  0.6540
 2662TIP3    H229402   3.974   4.043   0.625  0.4575  1.4974 -2.6721
 2663TIP3   OH229403   4.167   0.530  14.070 -0.2513 -0.1908 -0.7803
 2663TIP3    H129404   4.209   0.611  14.043  2.5378 -1.1033  0.6194
 2663TIP3    H229405   4.160   0.478  13.990 -1.4948  1.1566 -1.5620
 2664TIP3   OH229406   4.976   4.759   4.109 -0.3042  0.1963  0.2140
 2664TIP3    H129407   4.990   4.719   4.195 -3.0594 -0.5105  0.3595
 2664TIP3    H229408   5.020   4.844   4.114  1.1703 -0.6265  1.6564
 2665TIP3   OH229409   3.984   6.061   4.082  0.2191  0.2583 -0.6857
 2665TIP3    H129410   3.900   6.015   4.075  1.1777 -1.7728  0.4968
 2665TIP3    H229411   4.008   6.054   4.174  1.4259  1.3057 -0.9006
 2666TIP3   OH229412   5.909   5.725   1.442  0.5961  0.2061 -0.0075
 2666TIP3    H129413   5.864   5.785   1.501  2.1212  2.6748 -1.2648
 2666TIP3    H229414   5.841   5.694   1.383 -0.2669  0.5320  0.8107
 2667TIP3   OH229415   4.653   2.073  14.748  0.1762 -0.2522  0.0058
 2667TIP3    H129416   4.629   2.128  14.674  0.3976  0.4053  0.4139
 2667TIP3    H229417   4.684   2.135  14.815 -0.3243 -0.8070  0.7655
 2668TIP3   OH229418   2.030   6.233  16.843  0.1411  0.4521  0.0552
 2668TIP3    H129419   1.978   6.154  16.828  0.6974  0.2700 -0.9241
 2668TIP3    H229420   2.087   6.211  16.917 -1.2531  0.6970  1.2342
 2669TIP3   OH229421   6.076   1.821  16.794 -0.1628  0.7737  0.1731
 2669TIP3    H129422   6.012   1.890  16.814  0.5527  0.6673  3.0255
 2669TIP3    H229423   6.161   1.865  16.800  0.3536 -0.5171  2.9831
 2670TIP3   OH229424   1.474   2.042   0.717 -0.0855  0.1593  0.0734
 2670TIP3    H129425   1.533   2.092   0.774 -0.0157 -1.8932  1.8737
 2670TIP3    H229426   1.523   2.030   0.636  2.3069 -2.0097  1.7425
 2671TIP3   OH229427   0.625   2.879   4.080 -0.0554  0.1225 -0.0049
 2671TIP3    H129428   0.675   2.829   4.145  1.4955  0.3554 -0.9912
 2671TIP3    H229429   0.642   2.970   4.103 -1.3056  0.2148  0.6017
 2672TIP3   OH229430   1.932   1.439   4.167 -0.4534 -0.4998  0.1163
 2672TIP3    H129431   1.915   1.345   4.161 -3.1942 -0.0326  0.0038
 2672TIP3    H229432   1.913   1.462   4.258  1.0028 -0.1589  0.3617
 2673TIP3   OH229433   6.502   3.067  17.180 -0.1660 -0.0491  0.6110
 2673TIP3    H129434   6.495   3.135  17.247 -2.6542 -0.8055  1.1771
 2673TIP3    H229435   6.440   2.999  17.207  0.7695 -1.6315 -1.0225
 2674TIP3   OH229436   1.312   0.640   4.016  0.4666  0.3989 -0.1303
 2674TIP3    H129437   1.313   0.545   4.007 -1.5251  0.3632 -0.1342
 2674TIP3    H229438   1.361   0.656   4.097  2.1067 -0.5112 -0.9141
 2675TIP3   OH229439   3.929   4.187  14.391  0.5673 -0.3671 -0.7074
 2675TIP3    H129440   3.989   4.141  14.450 -0.2211  0.0541  0.4458
 2675TIP3    H229441   3.977   4.265  14.364  1.0963 -0.7790 -0.9661
 2676TIP3   OH229442   1.202   3.365   5.726 -0.4635 -0.3564  0.0835
 2676TIP3    H129443   1.217   3.288   5.782 -0.6481  0.4776  1.3010
 2676TIP3    H229444   1.142   3.420   5.777 -0.3131  0.6055 -0.7668
 2677TIP3   OH229445   5.523   6.020   0.394 -0.1643  0.0760  0.1908
 2677TIP3    H129446   5.544   5.958   0.464 -0.0829 -1.7077 -1.3666
 2677TIP3    H229447   5.433   5.999   0.369 -0.1435  0.5879 -0.3306
 2678TIP3   OH229448   2.409   4.906   5.137  0.4754  0.0751 -0.0390
 2678TIP3    H129449   2.482   4.962   5.164  2.9420 -2.8812 -0.3331
 2678TIP3    H229450   2.398   4.844   5.209 -0.4181 -0.8089 -0.9172
 2679TIP3   OH229451   0.520   4.693  14.931 -0.0531 -0.1857 -0.7268
 2679TIP3    H129452   0.491   4.774  14.890  0.6051 -1.1379 -3.1057
 2679TIP3    H229453   0.599   4.718  14.979 -0.3497  0.7499 -0.7185
 2680TIP3   OH229454   2.386   0.046  11.432 -0.1706  0.2710  0.4954
 2680TIP3    H129455   2.462   0.082  11.479 -0.0312  1.4522 -0.6116
 2680TIP3    H229456   2.382  -0.045  11.460  2.0022  0.0474  0.1627
 2681TIP3   OH229457   6.642   5.637  15.204 -0.1735 -0.4067  0.1630
 2681TIP3    H129458   6.633   5.684  15.287 -1.3951 -1.1549  0.4548
 2681TIP3    H229459   6.555   5.641  15.164 -0.0173 -1.5130 -0.2981
 2682TIP3   OH229460   6.607   6.502   5.435  0.2999 -0.4774 -0.9201
 2682TIP3    H129461   6.532   6.558   5.416  0.8311  0.4467 -0.3279
 2682TIP3    H229462   6.620   6.511   5.529 -0.7050 -3.0011 -0.5123
 2683TIP3   OH229463   3.954   5.054   5.043 -0.4259  0.4317  0.4515
 2683TIP3    H129464   4.044   5.028   5.063 -0.5365 -0.5238 -0.2410
 2683TIP3    H229465   3.905   4.971   5.039 -1.1024  0.8618 -0.2836
 2684TIP3   OH229466   6.122   4.150   0.749  0.2655 -0.7251 -0.0096
 2684TIP3    H129467   6.129   4.208   0.825 -0.5557 -1.3424  0.5595
 2684TIP3    H229468   6.052   4.189   0.696  0.0188 -0.9544  0.1492
 2685TIP3   OH229469   4.546   4.704  13.177  0.1919 -0.5515 -0.5484
 2685TIP3    H129470   4.500   4.710  13.094  0.7639  0.3726 -0.8018
 2685TIP3    H229471   4.638   4.722  13.156  0.0475  1.6891  0.5747
 2686TIP3   OH229472   3.089   6.521  15.744  0.1131 -0.1005  0.0871
 2686TIP3    H129473   3.012   6.566  15.777  0.4266  1.0660 -0.7464
 2686TIP3    H229474   3.073   6.429  15.763  0.1154  0.4570  3.1972
 2687TIP3   OH229475   5.607   2.296   0.698  0.0319  0.9680  0.3487
 2687TIP3    H129476   5.647   2.373   0.659  2.2688 -0.2078  0.2712
 2687TIP3    H229477   5.639   2.296   0.788  1.7320 -1.0114 -0.2383
 2688TIP3   OH229478   5.921   5.421  12.712  0.0873  0.3941  0.3229
 2688TIP3    H129479   5.868   5.403  12.634  1.6372 -1.0920 -0.4088
 2688TIP3    H229480   5.942   5.515  12.705 -1.5706  0.7701  0.1013
 2689TIP3   OH229481   3.019   3.093  12.873  0.0629 -0.5170 -0.0669
 2689TIP3    H129482   3.063   3.177  12.881 -0.3072 -0.2684 -0.6095
 2689TIP3    H229483   2.932   3.115  12.840 -0.1253 -1.0897  0.0411
 2690TIP3   OH229484   5.896   5.178  13.876  0.3484 -1.0772  0.2831
 2690TIP3    H129485   5.924   5.169  13.967  0.2068 -1.8896  0.2501
 2690TIP3    H229486   5.803   5.155  13.877  0.3324 -1.0342 -0.0530
 2691TIP3   OH229487   1.736   4.586   3.407 -0.1636  0.2258 -0.6718
 2691TIP3    H129488   1.773   4.552   3.489 -1.0027 -0.7841 -0.7055
 2691TIP3    H229489   1.691   4.511   3.368 -0.4995  0.9230 -1.6379
 2692TIP3   OH229490   1.183   4.290   2.501  0.0095  0.5686  0.1383
 2692TIP3    H129491   1.206   4.362   2.561  0.0247  1.2602 -0.6893
 2692TIP3    H229492   1.115   4.242   2.548  0.7171  0.5144  1.1388
 2693TIP3   OH229493   2.017   4.957  13.020 -0.4615  0.0186  0.6051
 2693TIP3    H129494   2.039   4.942  12.928  1.7916  3.7564  0.4528
 2693TIP3    H229495   2.045   4.876  13.064 -0.8463 -1.5159 -1.8321
 2694TIP3   OH229496   1.670   0.016   0.459  0.2778  0.5340 -0.3541
 2694TIP3    H129497   1.719  -0.064   0.440  1.0585  0.5017  1.6715
 2694TIP3    H229498   1.605  -0.011   0.524 -1.7293  0.8229 -2.1925
 2695TIP3   OH229499   3.286   2.754   1.111 -0.4862 -0.2122 -0.4968
 2695TIP3    H129500   3.372   2.737   1.072 -0.3139  0.4909 -0.4291
 2695TIP3    H229501   3.253   2.830   1.063 -0.7640 -0.0480 -0.0397
 2696TIP3   OH229502   0.832   5.125   2.391  0.5426 -0.0702 -0.1402
 2696TIP3    H129503   0.745   5.162   2.378  1.4409  1.9627 -0.6621
 2696TIP3    H229504   0.869   5.175   2.463  0.9910 -1.4845  0.6358
 2697TIP3   OH229505   0.488   6.695   0.998  0.2499 -0.4458 -0.0499
 2697TIP3    H129506   0.508   6.703   1.092  0.4870  0.4420 -0.1763
 2697TIP3    H229507   0.543   6.761   0.956 -1.8800  1.0553 -0.5474
 2698TIP3   OH229508   2.538   5.212  16.552  0.1663  0.1094  0.2848
 2698TIP3    H129509   2.607   5.259  16.600  1.5513 -0.9447 -0.6343
 2698TIP3    H229510   2.573   5.124  16.541 -0.4590  0.1214 -1.9800
 2699TIP3   OH229511   3.487   0.823   5.259  0.4129 -0.0410 -0.8000
 2699TIP3    H129512   3.451   0.912   5.256 -3.3919 -1.5489 -3.2486
 2699TIP3    H229513   3.555   0.822   5.192  1.2129  1.2519 -0.0443
 2700TIP3   OH229514   2.263   2.296   5.734 -0.1432  0.9139  0.0781
 2700TIP3    H129515   2.243   2.303   5.640  0.4493  0.2297 -0.1008
 2700TIP3    H229516   2.254   2.385   5.767 -1.3811  0.9948 -0.4270
 2701TIP3   OH229517   3.516   0.170  12.294 -0.4318  0.0478  0.1315
 2701TIP3    H129518   3.512   0.177  12.198 -1.1143 -1.0486  0.0582
 2701TIP3    H229519   3.500   0.077  12.311 -0.4739  0.2655  1.3212
 2702TIP3   OH229520   3.645   1.797   3.280  0.5724 -0.4198 -0.0995
 2702TIP3    H129521   3.723   1.771   3.329  0.8971  3.1786  1.4966
 2702TIP3    H229522   3.578   1.810   3.347 -1.1974 -2.6326 -1.3728
 2703TIP3   OH229523   5.484   3.380   2.770 -0.2023 -0.6927 -0.1029
 2703TIP3    H129524   5.456   3.288   2.772  0.0964 -0.7772  0.3090
 2703TIP3    H229525   5.408   3.429   2.799 -1.8431 -0.4223 -4.5046
 2704TIP3   OH229526   1.492   1.026  12.696  0.1460 -0.0257 -0.1787
 2704TIP3    H129527   1.499   1.094  12.763  0.2860 -0.7829  0.5919
 2704TIP3    H229528   1.421   0.969  12.727  0.5446 -0.6584 -0.4197
 2705TIP3   OH229529   5.775   4.939  13.495  0.0889 -0.1138 -0.1539
 2705TIP3    H129530   5.714   5.005  13.462 -1.2656  0.5488  3.5459
 2705TIP3    H229531   5.829   4.985  13.559  1.1300 -1.9068  0.3064
 2706TIP3   OH229532   3.412   4.573  14.654  0.0442  0.2551  0.1170
 2706TIP3    H129533   3.438   4.492  14.609 -1.9004 -0.2735 -0.1164
 2706TIP3    H229534   3.446   4.643  14.598  1.1146 -0.3969 -0.0631
 2707TIP3   OH229535   5.022   6.376  12.601 -0.4382 -0.2465  0.1849
 2707TIP3    H129536   4.960   6.307  12.624  2.4445 -3.8824 -2.4123
 2707TIP3    H229537   4.983   6.418  12.524 -1.2409 -0.2871  0.5586
 2708TIP3   OH229538   0.800   5.037  16.797 -0.3028 -0.0024 -0.0853
 2708TIP3    H129539   0.762   4.952  16.820 -0.4842 -0.5072 -2.1441
 2708TIP3    H229540   0.806   5.084  16.880 -3.2546 -0.7825  0.6238
 2709TIP3   OH229541   5.020   5.422  15.609  0.2644  1.0202 -0.4462
 2709TIP3    H129542   5.007   5.359  15.680  0.8650  1.0171 -0.3339
 2709TIP3    H229543   4.933   5.460  15.594 -0.2443 -0.3777 -1.0382
 2710TIP3   OH229544   2.892   2.488   4.620 -0.3649  0.4895  0.1911
 2710TIP3    H129545   2.805   2.474   4.583 -0.2292 -0.9555  0.4026
 2710TIP3    H229546   2.947   2.512   4.545 -0.7326  0.4795 -0.0818
 2711TIP3   OH229547   6.108   0.414   4.270 -0.7994  0.4625  0.2691
 2711TIP3    H129548   6.090   0.497   4.315  0.6491 -0.7028  3.1394
 2711TIP3    H229549   6.021   0.384   4.242 -1.5760  2.0362  0.8781
 2712TIP3   OH229550   3.223   2.398   0.142  0.6477 -0.1207  0.4654
 2712TIP3    H129551   3.297   2.443   0.183  1.4348  0.5689 -1.6558
 2712TIP3    H229552   3.253   2.307   0.133 -0.9383 -1.2003  4.7359
 2713TIP3   OH229553   5.017   1.407  12.804  0.0182 -0.4339 -0.5824
 2713TIP3    H129554   5.111   1.421  12.793  0.4314 -0.6643  2.2865
 2713TIP3    H229555   4.985   1.490  12.837 -0.2075 -1.3113  1.4861
 2714TIP3   OH229556   5.691   4.285  17.176 -0.0671 -0.5570 -0.2412
 2714TIP3    H129557   5.670   4.300  17.269  1.2520  2.0277 -0.3073
 2714TIP3    H229558   5.619   4.325  17.128  0.3366  0.0822 -0.3296
 2715TIP3   OH229559   5.694   5.502  14.776 -0.3733 -1.0716 -0.4139
 2715TIP3    H129560   5.740   5.585  14.781 -2.1961 -0.0488 -0.0729
 2715TIP3    H229561   5.700   5.465  14.864 -1.0695 -0.4567 -0.1044
 2716TIP3   OH229562   0.007   4.911  11.233  0.0217  0.0798  0.1646
 2716TIP3    H129563  -0.038   4.906  11.148 -1.8412 -1.9535  1.2469
 2716TIP3    H229564   0.041   5.001  11.236 -0.7985  0.5170 -2.2579
 2717TIP3   OH229565   3.935   5.867  11.460 -0.2312 -0.2103 -0.1046
 2717TIP3    H129566   3.901   5.827  11.541  1.4760  0.2176  0.8444
 2717TIP3    H229567   3.937   5.961  11.479 -1.7843  0.1172 -1.4130
 2718TIP3   OH229568   0.288   1.934  12.980 -0.4619 -0.6301  0.7851
 2718TIP3    H129569   0.380   1.957  12.986 -0.3546 -0.6399 -0.7184
 2718TIP3    H229570   0.259   1.926  13.071  0.8199  0.1411  1.2660
 2719TIP3   OH229571   4.870   0.300  12.323  0.1089  0.1208 -0.2723
 2719TIP3    H129572   4.810   0.244  12.274  0.6195 -0.6174 -0.0631
 2719TIP3    H229573   4.813   0.358  12.374 -0.4429  1.4752 -2.3644
 2720TIP3   OH229574   4.729   6.362   1.740 -0.5144  0.0060 -0.1244
 2720TIP3    H129575   4.646   6.350   1.787 -0.6761 -1.3499 -0.7515
 2720TIP3    H229576   4.796   6.350   1.807 -0.7949 -0.1131  0.1358
 2721TIP3   OH229577   4.729   2.875   3.564  0.2925  0.1932  0.0638
 2721TIP3    H129578   4.785   2.872   3.488  0.2423  2.4600 -0.1001
 2721TIP3    H229579   4.788   2.868   3.639  0.4566 -0.6867 -0.1374
 2722TIP3   OH229580   4.558   0.473   3.724 -0.4168 -0.0084  0.6150
 2722TIP3    H129581   4.508   0.431   3.794 -3.2283  1.2418 -0.5820
 2722TIP3    H229582   4.509   0.453   3.644  0.6119  1.8297 -0.5046
 2723TIP3   OH229583   6.315   0.717   3.351  0.3384  1.0178  0.3889
 2723TIP3    H129584   6.318   0.760   3.436 -1.4714  0.4481  0.7536
 2723TIP3    H229585   6.272   0.633   3.367  1.5243  0.1508 -0.7835
 2724TIP3   OH229586   1.967   0.408   4.068  0.6215 -0.3892 -0.2603
 2724TIP3    H129587   1.905   0.367   4.007 -0.5528  0.7371  0.1417
 2724TIP3    H229588   2.029   0.339   4.089 -1.6330 -2.1715  0.8173
 2725TIP3   OH229589   5.616   4.741  14.505 -0.3961 -0.0815  0.3850
 2725TIP3    H129590   5.584   4.804  14.441  0.6686  1.0579  0.9519
 2725TIP3    H229591   5.636   4.663  14.454 -3.5899 -0.6783 -0.0517
 2726TIP3   OH229592   0.066   5.561  16.290 -0.3761  0.7254 -0.5086
 2726TIP3    H129593   0.152   5.543  16.252 -0.2095  1.3998 -0.4553
 2726TIP3    H229594   0.084   5.616  16.366 -0.6198 -1.4225  1.1654
 2727TIP3   OH229595   6.516   2.344   4.900 -0.5821 -0.9430  0.1404
 2727TIP3    H129596   6.582   2.294   4.853 -1.3786 -1.4772 -0.4383
 2727TIP3    H229597   6.435   2.329   4.850 -0.8545  0.8074  0.0494
 2728TIP3   OH229598   6.247   0.371  15.675 -0.2702  0.0848  0.1988
 2728TIP3    H129599   6.275   0.344  15.763 -0.4714 -0.0574  0.2229
 2728TIP3    H229600   6.168   0.423  15.690 -0.9073 -0.8181  0.0388
 2729TIP3   OH229601   1.855   2.135   1.930  0.6517 -0.5023  0.5336
 2729TIP3    H129602   1.909   2.087   1.992 -0.4390  0.2951  2.1306
 2729TIP3    H229603   1.899   2.220   1.921  0.7113 -0.5520  0.3534
 2730TIP3   OH229604   0.207   0.786  15.743 -0.0352  0.1349 -0.2244
 2730TIP3    H129605   0.245   0.873  15.750 -0.2029  0.0898  1.2645
 2730TIP3    H229606   0.119   0.795  15.778  0.1084 -0.7333  0.3688
 2731TIP3   OH229607   6.301   5.452  13.813  0.1943  0.3621 -0.6746
 2731TIP3    H129608   6.358   5.502  13.755  0.5713  0.1985 -0.4489
 2731TIP3    H229609   6.254   5.519  13.864 -0.4985  0.5176 -1.5031
 2732TIP3   OH229610   3.580   2.080   4.001 -0.1383 -0.2137 -0.2115
 2732TIP3    H129611   3.662   2.061   4.046 -0.1885  0.1879  0.0447
 2732TIP3    H229612   3.598   2.059   3.909  0.2395 -0.1467 -0.1522
 2733TIP3   OH229613   5.543   4.306  15.187 -0.0814  0.4020 -0.0285
 2733TIP3    H129614   5.466   4.262  15.153 -0.2048  0.6519 -0.0738
 2733TIP3    H229615   5.516   4.398  15.195  0.6368  0.7430 -1.3295
 2734TIP3   OH229616   5.481   2.680   1.046 -0.3693  0.8320  0.3934
 2734TIP3    H129617   5.508   2.598   1.086  1.2844  1.7654  1.2115
 2734TIP3    H229618   5.481   2.661   0.952 -2.1622 -0.7261  0.6733
 2735TIP3   OH229619   0.965   3.708   2.001  0.1802 -0.2933  0.0156
 2735TIP3    H129620   1.015   3.771   1.949 -0.4291  0.7203  0.6427
 2735TIP3    H229621   1.030   3.643   2.029  0.6181 -0.5395 -1.5156
 2736TIP3   OH229622   2.313   0.067  12.109 -0.0863  0.1884  0.3221
 2736TIP3    H129623   2.237   0.023  12.070  0.1599 -0.5319  0.6451
 2736TIP3    H229624   2.284   0.088  12.198 -0.6621  1.8620 -0.2351
 2737TIP3   OH229625   5.991   3.525  17.147 -0.3617  0.2214 -0.3414
 2737TIP3    H129626   6.063   3.485  17.099 -1.6974  1.0384 -3.1141
 2737TIP3    H229627   5.922   3.458  17.148 -0.4464  0.3126  0.1780
 2738TIP3   OH229628   5.612   2.273  11.143  0.3240 -0.3626  0.1131
 2738TIP3    H129629   5.529   2.304  11.181 -1.0191 -2.0328 -1.3504
 2738TIP3    H229630   5.617   2.318  11.058  0.1350 -1.4278 -0.4678
 2739TIP3   OH229631   5.495   4.157   0.619 -0.0850  0.4896  0.1931
 2739TIP3    H129632   5.423   4.172   0.680 -1.2362  0.4229 -1.1314
 2739TIP3    H229633   5.474   4.211   0.543  1.7713  1.2235  0.1808
 2740TIP3   OH229634   1.723   0.617  12.275  0.0239  0.2368 -0.2851
 2740TIP3    H129635   1.676   0.635  12.194 -1.8389 -0.8162  0.5270
 2740TIP3    H229636   1.751   0.703  12.307 -0.1408  0.7411 -1.4955
 2741TIP3   OH229637   5.749   6.769   1.961 -0.0215 -0.3220  0.6835
 2741TIP3    H129638   5.748   6.848   1.906 -1.7560 -0.8804 -0.1066
 2741TIP3    H229639   5.738   6.802   2.050  0.8481  0.4397  0.5176
 2742TIP3   OH229640   0.022   6.761   0.269  0.1683 -0.1164 -0.1735
 2742TIP3    H129641  -0.053   6.813   0.298 -0.7327 -0.8954 -1.0359
 2742TIP3    H229642   0.096   6.796   0.318 -0.8370  0.3597  1.0550
 2743TIP3   OH229643   2.418   2.489   4.013  0.1908 -0.0146 -0.1706
 2743TIP3    H129644   2.334   2.477   4.057  0.1631 -3.2648 -0.9904
 2743TIP3    H229645   2.395   2.517   3.925  0.0526  0.6746  0.0775
 2744TIP3   OH229646   0.846   5.026  14.331 -0.0183 -0.7137 -0.1847
 2744TIP3    H129647   0.940   5.030  14.311  0.0790  4.0736  0.6616
 2744TIP3    H229648   0.842   5.035  14.427 -1.3329 -0.9265 -0.2113
 2745TIP3   OH229649   1.121   5.149   4.298  0.1035  0.8414  0.2800
 2745TIP3    H129650   1.084   5.093   4.366  2.7734  2.7649  3.4466
 2745TIP3    H229651   1.057   5.218   4.286 -0.9518 -0.1827 -0.1149
 2746TIP3   OH229652   1.414   3.026   3.614 -0.3124 -1.0225  0.0502
 2746TIP3    H129653   1.491   2.983   3.651  0.0538  0.1103  0.6132
 2746TIP3    H229654   1.345   3.011   3.678 -0.5135 -1.8724 -0.3636
 2747TIP3   OH229655   0.968   2.428   2.985 -0.0176  0.4465  0.2486
 2747TIP3    H129656   0.915   2.387   3.053  0.5390 -0.4072  0.1838
 2747TIP3    H229657   1.058   2.422   3.018  0.1994  0.5075 -0.3246
 2748TIP3   OH229658   6.297   0.825   2.747  0.1167 -0.3740  0.4863
 2748TIP3    H129659   6.203   0.806   2.746 -0.1266  0.7836 -0.0876
 2748TIP3    H229660   6.302   0.915   2.780  0.8432  0.3982 -1.6531
 2749TIP3   OH229661   3.278   1.375   4.678  0.5847 -0.1833  0.6348
 2749TIP3    H129662   3.211   1.364   4.610  0.7140 -0.1881  0.5068
 2749TIP3    H229663   3.358   1.340   4.638  0.8094  0.4363  0.5487
 2750TIP3   OH229664   0.520   4.012  12.903  0.1624  0.9069  0.0759
 2750TIP3    H129665   0.613   3.995  12.888  0.4811  1.4451  1.3364
 2750TIP3    H229666   0.496   3.955  12.975  0.0097  2.1347  1.0247
 2751TIP3   OH229667   0.549   0.081  11.586 -0.0591  0.4682  0.1158
 2751TIP3    H129668   0.519   0.081  11.677  0.7090 -1.3700  0.3930
 2751TIP3    H229669   0.577  -0.010  11.570  1.4124  1.1722 -1.4232
 2752TIP3   OH229670   0.773   6.422   4.978 -0.0673 -0.4289 -0.2295
 2752TIP3    H129671   0.710   6.393   4.912 -1.8410  3.4240 -0.4273
 2752TIP3    H229672   0.856   6.428   4.931 -1.2582  2.0846 -2.1907
 2753TIP3   OH229673   6.038   2.254  14.080  0.2644 -0.3120 -0.6587
 2753TIP3    H129674   5.972   2.281  14.016  0.3288  0.3382 -0.4505
 2753TIP3    H229675   6.109   2.318  14.070  0.4651 -0.4672 -0.2364
 2754TIP3   OH229676   4.530   1.177   5.040 -0.7484 -0.7275 -0.3656
 2754TIP3    H129677   4.542   1.200   5.132  0.8109  0.0247 -0.7380
 2754TIP3    H229678   4.485   1.252   5.001  0.8721  0.0765 -0.7441
 2755TIP3   OH229679   5.070   2.997  14.578 -0.3504  0.5228  0.7835
 2755TIP3    H129680   5.106   2.948  14.651  0.5283  1.4343  0.9690
 2755TIP3    H229681   5.146   3.020  14.524 -0.7692  1.4627  0.5734
 2756TIP3   OH229682   1.889   3.391  14.100 -0.7813 -0.1703 -0.2343
 2756TIP3    H129683   1.953   3.388  14.029  0.0280 -1.4406  0.5242
 2756TIP3    H229684   1.891   3.481  14.131 -1.1900  0.4189 -1.8630
 2757TIP3   OH229685   6.764   2.702   5.021  0.7600 -0.2672 -0.0440
 2757TIP3    H129686   6.695   2.693   5.087 -0.1889  1.2367 -0.8207
 2757TIP3    H229687   6.843   2.720   5.072  0.0685  0.6885  0.7176
 2758TIP3   OH229688   3.523   0.937  16.258  0.2229  0.3174 -0.4208
 2758TIP3    H129689   3.546   0.851  16.222  1.0739  0.9250 -1.3457
 2758TIP3    H229690   3.489   0.986  16.183 -0.4935  0.7024  0.1564
 2759TIP3   OH229691   1.643   2.246  11.978 -0.0347 -0.5569 -0.4916
 2759TIP3    H129692   1.558   2.200  11.978  0.3125 -1.2037 -0.4400
 2759TIP3    H229693   1.652   2.278  11.888 -0.3505 -0.4650 -0.4912
 2760TIP3   OH229694   5.790   1.707  16.024  0.0059  0.0073  0.4919
 2760TIP3    H129695   5.716   1.720  16.083 -0.3188 -0.7978  0.2779
 2760TIP3    H229696   5.867   1.715  16.081 -0.1726  2.1826  0.4659
 2761TIP3   OH229697   0.309   3.493   2.990  0.4843 -0.1531 -0.0755
 2761TIP3    H129698   0.296   3.424   2.925 -0.1056 -0.0215 -0.1037
 2761TIP3    H229699   0.380   3.462   3.046  2.4399  0.6327 -2.0339
 2762TIP3   OH229700   3.342   3.982   4.290 -0.6647  0.7158  0.7358
 2762TIP3    H129701   3.341   3.934   4.373 -1.1123  0.6672  0.7015
 2762TIP3    H229702   3.256   4.023   4.285 -0.2079  1.7170  0.8808
 2763TIP3   OH229703   4.304   6.449   2.415  0.1537  0.4500  0.1814
 2763TIP3    H129704   4.395   6.440   2.443  0.4593  0.4193 -0.8213
 2763TIP3    H229705   4.269   6.360   2.418  0.4481  0.3105 -0.4106
 2764TIP3   OH229706   1.386   1.818  15.679 -0.0289  0.3310  0.2345
 2764TIP3    H129707   1.372   1.762  15.603  3.3957 -1.0519  0.5117
 2764TIP3    H229708   1.388   1.907  15.644 -1.1270 -0.0695 -0.8720
 2765TIP3   OH229709   0.398   1.424  11.487 -0.0279 -0.6434  0.0479
 2765TIP3    H129710   0.421   1.340  11.525  0.5993  0.0094  1.1545
 2765TIP3    H229711   0.439   1.424  11.401  0.4721 -1.2365  0.2848
 2766TIP3   OH229712   5.143   3.087  12.517  0.3830  0.4954  0.7640
 2766TIP3    H129713   5.088   3.062  12.443 -1.5008 -0.6051  2.4906
 2766TIP3    H229714   5.174   3.175  12.496 -2.0905  1.1701 -0.2376
 2767TIP3   OH229715   2.753   3.214   1.088 -0.0976 -0.4856  1.3360
 2767TIP3    H129716   2.808   3.279   1.132 -1.1871  0.9014  0.6471
 2767TIP3    H229717   2.664   3.243   1.104 -0.5309 -0.3774 -1.1589
 2768TIP3   OH229718   5.182   6.537  16.780  0.1821  0.1574 -0.0594
 2768TIP3    H129719   5.205   6.510  16.691  1.8176  0.1945  0.3391
 2768TIP3    H229720   5.089   6.560  16.775  0.7921  2.3619 -2.2978
 2769TIP3   OH229721   6.009   5.316  15.668  0.0463 -0.3110  0.0996
 2769TIP3    H129722   6.010   5.408  15.694  0.3945 -0.7771  1.7775
 2769TIP3    H229723   6.101   5.292  15.656 -0.1847  0.7410 -4.7852
 2770TIP3   OH229724   5.514   5.873   5.031 -0.4355  0.0276  0.7989
 2770TIP3    H129725   5.460   5.878   4.952  1.4078 -2.0108 -0.6337
 2770TIP3    H229726   5.566   5.954   5.028 -1.9153  1.0093  1.1036
 2771TIP3   OH229727   5.257   4.066  16.782  0.0091 -0.0658  0.0648
 2771TIP3    H129728   5.289   4.089  16.695 -0.4409 -2.1200 -0.6718
 2771TIP3    H229729   5.336   4.046  16.832  0.0695 -2.9743 -1.1100
 2772TIP3   OH229730   3.683   5.804   4.850  0.5390  0.1809 -0.5183
 2772TIP3    H129731   3.738   5.883   4.848  0.4959  0.2038 -0.7541
 2772TIP3    H229732   3.725   5.744   4.789  0.2448  0.2334 -0.7723
 2773TIP3   OH229733   5.899   5.795   5.395 -0.3920 -0.3339  0.1663
 2773TIP3    H129734   5.984   5.831   5.422 -0.9218 -0.0486  1.5056
 2773TIP3    H229735   5.845   5.799   5.474 -2.3444  1.4789 -1.1866
 2774TIP3   OH229736   5.501   1.527  14.131 -0.1190  0.3578  0.1013
 2774TIP3    H129737   5.543   1.459  14.078  2.5385  1.9707  0.0219
 2774TIP3    H229738   5.471   1.592  14.066  0.9293  1.1517  0.3979
 2775TIP3   OH229739   6.731   6.060  15.430  0.0446 -0.6304 -0.5644
 2775TIP3    H129740   6.695   6.118  15.362  2.6474  0.4081 -1.0956
 2775TIP3    H229741   6.763   6.119  15.497  0.5640 -1.5597  0.0083
 2776TIP3   OH229742   5.890   2.040   0.103 -0.2687 -0.3318 -0.1283
 2776TIP3    H129743   5.859   2.055   0.192  1.1347 -0.7532  0.4499
 2776TIP3    H229744   5.927   1.951   0.106  1.1632  0.2271 -0.7161
 2777TIP3   OH229745   3.051   6.771   4.518  0.1391 -0.2809  0.5627
 2777TIP3    H129746   3.089   6.854   4.545 -1.4712  0.7594 -0.3006
 2777TIP3    H229747   2.957   6.788   4.509 -0.1062 -1.9502 -0.4869
 2778TIP3   OH229748   0.669   2.793   1.930 -0.4581 -0.1913  0.3890
 2778TIP3    H129749   0.703   2.708   1.901 -1.6188 -0.7133  0.5050
 2778TIP3    H229750   0.740   2.832   1.981  0.4050 -0.7029 -0.4051
 2779TIP3   OH229751   0.795   2.310  15.349  0.2692  0.5010 -0.1975
 2779TIP3    H129752   0.789   2.230  15.400  0.7133 -0.6332 -1.8791
 2779TIP3    H229753   0.720   2.306  15.289  0.7579  0.9340 -0.8460
 2780TIP3   OH229754   5.712   6.355  14.008 -0.2029 -0.0896 -0.3142
 2780TIP3    H129755   5.738   6.412  13.936  1.5757 -0.2527  0.1720
 2780TIP3    H229756   5.785   6.360  14.070 -1.3936 -0.5061  1.1471
 2781TIP3   OH229757   4.102   5.033   5.935 -0.3606 -0.1959 -0.2272
 2781TIP3    H129758   4.186   5.001   5.902  0.3946 -0.4939  1.8997
 2781TIP3    H229759   4.107   5.128   5.927  0.3106 -0.1963  0.1611
 2782TIP3   OH229760   2.773   1.543  11.821 -0.8291  0.0470 -0.2831
 2782TIP3    H129761   2.758   1.502  11.906 -2.1484  1.5111  0.2330
 2782TIP3    H229762   2.729   1.485  11.758 -0.7928 -0.4753  0.1677
 2783TIP3   OH229763   1.878   3.115  15.476  0.5243  0.0825 -0.2567
 2783TIP3    H129764   1.828   3.148  15.401  0.7125 -1.4658 -1.0962
 2783TIP3    H229765   1.969   3.121  15.448  0.5273 -1.7620 -0.7050
 2784TIP3   OH229766   5.333   2.395  17.100  0.1209  0.4200 -0.4447
 2784TIP3    H129767   5.421   2.410  17.064  0.0759  0.6827 -0.4526
 2784TIP3    H229768   5.281   2.469  17.068  0.2051  0.9235  0.5565
 2785TIP3   OH229769   0.704   0.575   0.640  0.1071  0.0851 -0.2463
 2785TIP3    H129770   0.661   0.492   0.621  1.7509 -0.6281 -0.9415
 2785TIP3    H229771   0.646   0.619   0.702 -1.3762 -1.0477 -0.7979
 2786TIP3   OH229772   4.271   4.273  14.611 -0.0134  0.4654 -0.0790
 2786TIP3    H129773   4.329   4.229  14.673 -1.2129 -0.3673  0.4588
 2786TIP3    H229774   4.189   4.287  14.659 -0.9288 -0.1020 -1.4256
 2787TIP3   OH229775   5.244   4.502  13.914 -0.2522  0.1135 -0.9057
 2787TIP3    H129776   5.164   4.471  13.956  0.3500 -0.0524  0.1358
 2787TIP3    H229777   5.230   4.485  13.821 -1.1524 -0.5160 -0.6642
 2788TIP3   OH229778   1.892   3.615   5.455  0.2831 -0.4555  0.2636
 2788TIP3    H129779   1.982   3.583   5.463 -0.3775 -2.1090  1.4850
 2788TIP3    H229780   1.839   3.550   5.503 -1.5957  0.2964 -0.7255
 2789TIP3   OH229781   6.470   2.231  12.898  0.2178 -1.0270 -0.0938
 2789TIP3    H129782   6.483   2.316  12.857  1.3975 -1.5283 -0.7869
 2789TIP3    H229783   6.430   2.177  12.829  1.9945 -1.8057 -0.5550
 2790TIP3   OH229784   0.864   0.092  13.938 -0.1330  0.4978 -0.1025
 2790TIP3    H129785   0.906   0.132  13.861  1.0476  1.3989  0.9937
 2790TIP3    H229786   0.776   0.130  13.938  0.1207  1.1039 -0.5620
 2791TIP3   OH229787   3.590   0.570  13.151 -0.0278  0.2103 -0.8167
 2791TIP3    H129788   3.629   0.537  13.232 -1.7609 -1.1120 -0.4925
 2791TIP3    H229789   3.579   0.493  13.096 -1.6400  0.6312 -1.1177
 2792TIP3   OH229790   3.677   5.271   3.957  0.0240  0.4607 -0.0821
 2792TIP3    H129791   3.689   5.288   4.050 -0.5244  2.5158 -0.3625
 2792TIP3    H229792   3.598   5.217   3.953 -0.2601  0.8186  0.6093
 2793TIP3   OH229793   1.177   4.772  14.970  0.1555 -0.2877 -0.4331
 2793TIP3    H129794   1.213   4.855  15.001 -1.7679  0.8853 -1.2637
 2793TIP3    H229795   1.250   4.729  14.926  1.3601  0.6273  0.6327
 2794TIP3   OH229796   3.888   0.916   3.006  0.2428 -0.2383  0.4865
 2794TIP3    H129797   3.977   0.939   3.033  0.6897  0.0855 -1.2133
 2794TIP3    H229798   3.834   0.935   3.083  1.1969  2.6287  0.4971
 2795TIP3   OH229799   6.331   1.635  11.827  0.3137  0.1157  0.0652
 2795TIP3    H129800   6.418   1.595  11.821  0.2687  0.0946 -0.4588
 2795TIP3    H229801   6.293   1.623  11.740 -0.2030  0.1485  0.2869
 2796TIP3   OH229802   1.994   2.227   2.330 -0.2361  0.5100  0.0677
 2796TIP3    H129803   1.910   2.266   2.308 -0.8067 -0.3459  0.7359
 2796TIP3    H229804   2.002   2.239   2.424 -0.5411 -1.2211  0.3332
 2797TIP3   OH229805   0.685   6.551  13.671  0.8298 -0.3348  0.2960
 2797TIP3    H129806   0.704   6.643  13.652 -1.8946  0.5059  1.4085
 2797TIP3    H229807   0.670   6.511  13.585  0.6390  0.5901 -0.1103
 2798TIP3   OH229808   2.205   2.044  14.677  0.0916 -0.0493  0.3861
 2798TIP3    H129809   2.177   2.018  14.765 -0.5914 -2.0910 -0.3999
 2798TIP3    H229810   2.295   2.013  14.670  0.8457  1.8819  1.0389
 2799TIP3   OH229811   4.807   2.169   1.565 -0.2074  0.1057  0.7304
 2799TIP3    H129812   4.891   2.128   1.587 -0.1702 -0.2223 -0.0299
 2799TIP3    H229813   4.807   2.174   1.470 -0.8618  0.5156  0.7501
 2800TIP3   OH229814   5.931   6.764   4.646  0.0962  0.3141 -0.8282
 2800TIP3    H129815   6.009   6.819   4.639  1.9808 -1.8777  1.6457
 2800TIP3    H229816   5.906   6.769   4.739 -0.8119 -1.4669 -0.9538
 2801TIP3   OH229817   2.322   2.432  15.213  0.0756  0.1706  0.7214
 2801TIP3    H129818   2.319   2.408  15.120 -0.9099 -1.1273  1.0760
 2801TIP3    H229819   2.316   2.528  15.213  2.1116  0.3169 -0.6319
 2802TIP3   OH229820   2.423   3.371  14.940  0.0293  0.0417  0.8643
 2802TIP3    H129821   2.511   3.408  14.935 -0.3479  1.0206  1.2595
 2802TIP3    H229822   2.413   3.322  14.859  0.0496  1.9562 -0.3411
 2803TIP3   OH229823   0.117   3.034   1.806  0.1684 -0.1363 -0.0221
 2803TIP3    H129824   0.173   3.012   1.732  2.4727 -1.7959  2.1295
 2803TIP3    H229825   0.159   3.109   1.847 -0.0194 -0.4338  0.7281
 2804TIP3   OH229826   3.351   0.447   2.690 -0.7225 -0.6006 -0.1734
 2804TIP3    H129827   3.410   0.518   2.667 -1.7152 -0.1015 -1.2221
 2804TIP3    H229828   3.269   0.467   2.644 -2.2702 -0.3935  2.5675
 2805TIP3   OH229829   1.456   5.196  11.617 -0.1205 -0.3560  0.1641
 2805TIP3    H129830   1.379   5.251  11.606 -0.3221 -0.3602  1.4571
 2805TIP3    H229831   1.449   5.131  11.547 -1.8940 -1.0445  0.9481
 2806TIP3   OH229832   1.588   0.609   3.782  0.5411 -0.5364 -0.0487
 2806TIP3    H129833   1.505   0.586   3.741 -0.4509 -0.2781  1.7780
 2806TIP3    H229834   1.647   0.625   3.708 -1.1195 -0.3613 -1.3771
 2807TIP3   OH229835   5.137   1.628   1.795  0.1809  0.6554  0.2356
 2807TIP3    H129836   5.177   1.620   1.708  1.5037  1.1264  0.7862
 2807TIP3    H229837   5.054   1.674   1.779 -0.1310 -0.2785 -0.9159
 2808TIP3   OH229838   3.397   6.631  16.238  0.3132  0.0319 -0.6209
 2808TIP3    H129839   3.402   6.689  16.314  0.0990 -0.4660 -0.2235
 2808TIP3    H229840   3.440   6.550  16.266  0.7688  0.0564 -1.2314
 2809TIP3   OH229841   2.512   4.407   3.659 -1.2672  0.0965  0.0630
 2809TIP3    H129842   2.555   4.322   3.646  1.1525  1.2382  0.2214
 2809TIP3    H229843   2.562   4.448   3.730 -1.8626  1.9832 -0.5895
 2810TIP3   OH229844   1.847   4.801  12.472 -0.0832 -0.1562  0.3642
 2810TIP3    H129845   1.810   4.848  12.397 -1.1518  0.3980  1.2179
 2810TIP3    H229846   1.933   4.841  12.486 -0.3101  0.4402  0.0657
 2811TIP3   OH229847   4.228   1.742   5.882  0.1882 -0.2613  0.1445
 2811TIP3    H129848   4.154   1.683   5.867  0.2286 -0.0997 -0.7375
 2811TIP3    H229849   4.227   1.801   5.806  1.4609 -0.5126 -0.0796
 2812TIP3   OH229850   0.702   2.319   1.404  0.0444 -0.6033  0.3172
 2812TIP3    H129851   0.783   2.368   1.416 -0.7385  0.5575  1.0373
 2812TIP3    H229852   0.683   2.326   1.311  0.3609 -0.2014  0.2811
 2813TIP3   OH229853   6.343   2.784   3.360 -0.4615 -0.7110 -0.1538
 2813TIP3    H129854   6.315   2.870   3.329  1.6064  0.4900  1.2211
 2813TIP3    H229855   6.414   2.760   3.300 -1.6728 -1.9339 -1.1372
 2814TIP3   OH229856   3.335   5.962   1.711  0.2262 -0.1291  0.3933
 2814TIP3    H129857   3.250   5.992   1.744  0.1664  0.4921 -0.3025
 2814TIP3    H229858   3.320   5.943   1.618  0.7660 -0.3418  0.3439
 2815TIP3   OH229859   5.628   6.608   1.136  0.1734  0.4998 -0.3645
 2815TIP3    H129860   5.637   6.517   1.107 -0.0768 -0.0354  1.2126
 2815TIP3    H229861   5.564   6.645   1.075 -0.9976 -0.8499  0.0135
 2816TIP3   OH229862   3.593   5.679   1.892  0.5239  0.3387 -0.5815
 2816TIP3    H129863   3.627   5.715   1.810 -2.0155  2.2980 -0.8282
 2816TIP3    H229864   3.529   5.613   1.865  0.4083  0.2755 -0.1602
 2817TIP3   OH229865   1.913   1.289  15.084  0.4874  0.1055 -0.0719
 2817TIP3    H129866   1.841   1.328  15.134 -1.4640  0.3209 -2.9359
 2817TIP3    H229867   1.878   1.206  15.053  1.2188  0.5315 -2.0970
 2818TIP3   OH229868   2.557   5.377  17.213 -0.3762  0.8356  0.2306
 2818TIP3    H129869   2.573   5.356  17.305 -0.1044  0.4031  0.0871
 2818TIP3    H229870   2.468   5.410  17.211 -0.3179  1.0236  0.6807
 2819TIP3   OH229871   3.265   2.330   3.320  0.2492 -0.1641 -0.6141
 2819TIP3    H129872   3.305   2.337   3.233  1.4385  0.6070 -0.0266
 2819TIP3    H229873   3.220   2.413   3.333 -1.1095 -0.8237 -1.0527
 2820TIP3   OH229874   2.028   1.834   3.871  0.2631 -0.5303  0.1051
 2820TIP3    H129875   1.943   1.790   3.874  0.2503 -0.7870 -2.6532
 2820TIP3    H229876   2.080   1.790   3.939 -2.5831  1.4921  3.7965
 2821TIP3   OH229877   1.414   1.950   4.765  0.2759  0.0558  0.1382
 2821TIP3    H129878   1.330   1.912   4.791  0.4084  0.9030  1.8776
 2821TIP3    H229879   1.417   2.035   4.809  1.5795  0.5108 -0.7822
 2822TIP3   OH229880   5.324   3.176   5.980  0.2363 -0.0427 -0.2457
 2822TIP3    H129881   5.231   3.187   5.963  0.4303  2.0295 -0.0841
 2822TIP3    H229882   5.330   3.100   6.038 -1.2411 -0.8983 -1.2049
 2823TIP3   OH229883   2.273   4.360   6.398 -0.1070  0.2662 -0.1491
 2823TIP3    H129884   2.296   4.268   6.408 -0.0098  0.4022  0.8386
 2823TIP3    H229885   2.183   4.367   6.431  1.0572  1.1627  3.0114
 2824TIP3   OH229886   3.271   4.675   6.716 -0.1169 -0.3705  0.1946
 2824TIP3    H129887   3.285   4.710   6.804  1.6363  0.2020 -0.2890
 2824TIP3    H229888   3.206   4.733   6.677  1.9766  1.7861 -0.2261
 2825TIP3   OH229889   2.005   6.131  14.450 -0.0222  0.3707 -0.0615
 2825TIP3    H129890   1.940   6.185  14.407  0.7375  0.2189 -1.4111
 2825TIP3    H229891   1.974   6.041  14.439 -1.3484  0.5000  2.2863
 2826TIP3   OH229892   6.443   0.079  13.548 -0.2850 -0.3028  0.2809
 2826TIP3    H129893   6.448   0.164  13.592  0.6058  0.0573 -0.4801
 2826TIP3    H229894   6.478   0.096  13.461  0.3047 -1.5483  0.2648
 2827TIP3   OH229895   5.790   2.848  11.983  0.1543 -0.1440  0.9231
 2827TIP3    H129896   5.841   2.786  11.931 -0.2922  1.5544 -1.6374
 2827TIP3    H229897   5.699   2.827  11.962 -0.0100  0.9430  0.5303
 2828TIP3   OH229898   5.391   5.927   1.271  0.4307 -0.3864 -0.0293
 2828TIP3    H129899   5.367   6.019   1.257 -0.4659 -0.6004  0.1056
 2828TIP3    H229900   5.442   5.928   1.352  0.2286 -0.0386  0.0973
 2829TIP3   OH229901   0.200   1.927  13.232 -0.8379  0.1002 -0.5518
 2829TIP3    H129902   0.201   1.915  13.327  1.1126  0.3766 -0.5216
 2829TIP3    H229903   0.163   2.014  13.219  0.5018  0.7623  0.0405
 2830TIP3   OH229904   1.408   3.593  15.238  0.0551  0.7025 -0.3638
 2830TIP3    H129905   1.495   3.625  15.261  0.3657  0.4136 -1.1047
 2830TIP3    H229906   1.418   3.562  15.148 -0.3250 -1.1480  0.2157
 2831TIP3   OH229907   3.751   4.894   3.764  0.0888 -0.0481  0.1244
 2831TIP3    H129908   3.839   4.931   3.755 -0.1566  0.3705 -0.5733
 2831TIP3    H229909   3.763   4.800   3.754  0.4728  0.0009  0.1241
 2832TIP3   OH229910   4.000   3.531  13.630 -0.2026  0.0042 -0.0541
 2832TIP3    H129911   4.007   3.626  13.621  1.3208 -0.0298  0.5736
 2832TIP3    H229912   3.907   3.514  13.645 -0.6434  1.2963 -1.2825
 2833TIP3   OH229913   1.679   1.658  12.928 -0.0560  0.6691 -0.1253
 2833TIP3    H129914   1.718   1.588  12.981 -0.1433 -0.0135 -0.9424
 2833TIP3    H229915   1.585   1.648  12.942 -0.1805 -0.5361 -1.6284
 2834TIP3   OH229916   0.192   5.778  17.105 -0.6020  0.3541 -0.6666
 2834TIP3    H129917   0.208   5.788  17.199 -0.1425  1.4690 -0.8481
 2834TIP3    H229918   0.103   5.745  17.099 -0.0769 -1.2938  0.2091
 2835TIP3   OH229919   6.773   0.254   2.633 -0.2803 -0.0114  0.3611
 2835TIP3    H129920   6.849   0.209   2.670 -0.1892  0.5537  0.8710
 2835TIP3    H229921   6.763   0.216   2.546  0.5396 -0.1381  0.3196
 2836TIP3   OH229922   4.631   3.674  11.664  0.2632 -0.2386  0.2715
 2836TIP3    H129923   4.670   3.595  11.702 -1.6404 -1.7801 -0.8482
 2836TIP3    H229924   4.689   3.697  11.592  1.8706  0.5421  1.7763
 2837TIP3   OH229925   1.784   3.189  12.383  0.0563  0.3216 -0.1190
 2837TIP3    H129926   1.702   3.165  12.341  0.7576 -3.2715  0.4396
 2837TIP3    H229927   1.757   3.238  12.461 -1.5887 -1.2774  0.3397
 2838TIP3   OH229928   4.010   5.999  13.428  0.0659 -0.0553 -0.3383
 2838TIP3    H129929   3.964   6.044  13.357 -0.3798  0.4072  0.2455
 2838TIP3    H229930   4.002   6.057  13.503  1.1698 -0.2094 -0.0966
 2839TIP3   OH229931   1.061   2.814  15.490  0.3296  0.4731  0.5895
 2839TIP3    H129932   1.065   2.888  15.551 -0.3694 -0.0867  1.3397
 2839TIP3    H229933   0.983   2.831  15.437  0.3687  0.4646  0.5309
 2840TIP3   OH229934   2.265   6.320  11.299 -0.1279  0.1716 -0.4346
 2840TIP3    H129935   2.262   6.377  11.222  0.8061  0.8842  0.0443
 2840TIP3    H229936   2.345   6.268  11.287  0.7304  1.1928  0.6638
 2841TIP3   OH229937   0.047   5.939   6.227 -0.0693 -0.3409  0.1361
 2841TIP3    H129938   0.141   5.958   6.228 -0.8363  3.7727  1.6319
 2841TIP3    H229939   0.011   5.999   6.161 -1.7373 -1.6695 -0.2157
 2842TIP3   OH229940   3.629   6.208   0.243 -0.1099  0.1795 -0.2803
 2842TIP3    H129941   3.582   6.152   0.181 -1.0010  0.1437  0.4198
 2842TIP3    H229942   3.721   6.194   0.222 -0.4081  0.4275 -1.8171
 2843TIP3   OH229943   3.478   2.919   5.498 -0.1423 -0.0516 -0.3163
 2843TIP3    H129944   3.451   2.848   5.557  0.6509 -0.7140 -0.7555
 2843TIP3    H229945   3.550   2.962   5.544 -1.1934  1.0268  0.3503
 2844TIP3   OH229946   6.059   0.604  12.323  0.4011  0.2923  0.2590
 2844TIP3    H129947   5.981   0.555  12.350 -0.4754  0.8095 -1.2892
 2844TIP3    H229948   6.105   0.545  12.264  1.1794  0.0032  1.1372
 2845TIP3   OH229949   2.928   0.578  15.234 -0.2668 -0.1579 -0.0261
 2845TIP3    H129950   2.911   0.617  15.148  2.4485  0.4827 -0.2958
 2845TIP3    H229951   3.018   0.546  15.229 -0.7436 -1.9283  1.9251
 2846TIP3   OH229952   2.456   6.486   2.817 -0.3791 -0.8468 -0.0855
 2846TIP3    H129953   2.425   6.408   2.863 -0.5169 -0.3769  0.6254
 2846TIP3    H229954   2.498   6.452   2.738  2.1704 -1.8473  1.6477
 2847TIP3   OH229955   1.948   3.205  15.777  0.3219  0.1868 -0.0556
 2847TIP3    H129956   2.009   3.153  15.725 -0.8705  0.1024 -1.3898
 2847TIP3    H229957   1.862   3.165  15.761 -0.3775  1.5544  0.1727
 2848TIP3   OH229958   0.693   5.143   0.335 -0.2200  0.3473 -0.2590
 2848TIP3    H129959   0.672   5.236   0.342 -0.0694  0.3794 -0.2187
 2848TIP3    H229960   0.789   5.140   0.332 -0.2118  0.1691  0.1190
 2849TIP3   OH229961   6.023   1.692   1.951  0.2829  0.3343  0.1117
 2849TIP3    H129962   6.004   1.604   1.920  0.1808  1.1788 -2.2713
 2849TIP3    H229963   6.118   1.698   1.949  0.2413  0.6751 -0.8504
 2850TIP3   OH229964   4.815   2.845  16.438 -0.8354  0.2583  0.4234
 2850TIP3    H129965   4.834   2.751  16.429  0.2435  0.4751  0.3755
 2850TIP3    H229966   4.720   2.850  16.432 -0.9002 -0.8253  0.3033
 2851TIP3   OH229967   3.350   1.384   6.073 -0.4911 -0.2105  0.7040
 2851TIP3    H129968   3.379   1.457   6.018 -0.7680  1.1600  2.3572
 2851TIP3    H229969   3.384   1.306   6.028  0.6523  0.9843 -0.5567
 2852TIP3   OH229970   1.693   4.326  11.354 -0.1122  0.0752  0.6091
 2852TIP3    H129971   1.644   4.257  11.398  0.9520  0.4602  2.4639
 2852TIP3    H229972   1.678   4.404  11.408 -0.3084  1.0195 -0.7796
 2853TIP3   OH229973   0.953   4.627   0.287  0.7419 -0.1970  0.0485
 2853TIP3    H129974   0.900   4.567   0.234  0.8761  0.3929 -0.7602
 2853TIP3    H229975   0.894   4.698   0.311  1.0753  0.3079 -0.6017
 2854TIP3   OH229976   0.953   3.012   3.924  0.3251 -0.2442  0.7596
 2854TIP3    H129977   1.010   3.074   3.970 -1.0544  0.4704  1.5167
 2854TIP3    H229978   0.944   2.938   3.984 -0.6242  0.2282  1.2004
 2855TIP3   OH229979   3.103   0.637   2.752 -0.2010 -0.0661  0.3772
 2855TIP3    H129980   3.064   0.571   2.695  2.1174 -0.9285 -0.2727
 2855TIP3    H229981   3.145   0.698   2.692  1.8542 -0.7213  1.1116
 2856TIP3   OH229982   0.997   4.719  14.584 -0.3434 -0.3272 -0.4100
 2856TIP3    H129983   0.918   4.763  14.553  0.4621  0.5787 -1.2082
 2856TIP3    H229984   0.991   4.723  14.679 -1.8016 -1.2590 -0.4473
 2857TIP3   OH229985   1.025   2.287   4.676  0.2176  0.1705  0.3839
 2857TIP3    H129986   1.062   2.371   4.649  2.0454 -0.8676 -0.4501
 2857TIP3    H229987   0.957   2.269   4.611  1.2863  0.0059 -0.7061
 2858TIP3   OH229988   4.437   6.459  12.283  0.1835  0.4988  0.4498
 2858TIP3    H129989   4.474   6.541  12.317 -2.1900  1.8246 -0.0524
 2858TIP3    H229990   4.413   6.479  12.192 -1.1184 -0.5174  0.5540
 2859TIP3   OH229991   5.858   4.610   4.058 -0.1370  0.1259  0.0043
 2859TIP3    H129992   5.924   4.545   4.082 -1.2486  0.0980  3.2725
 2859TIP3    H229993   5.907   4.691   4.046  0.6724 -0.2077  1.0095
 2860TIP3   OH229994   2.140   2.437   0.010 -0.1929  0.0502 -0.2877
 2860TIP3    H129995   2.071   2.400   0.065  0.8563 -0.4209  0.7261
 2860TIP3    H229996   2.167   2.365  -0.046  0.5088 -0.1782  0.3449
 2861TIP3   OH229997   2.284   2.943  13.818  0.5068  0.5097  0.1352
 2861TIP3    H129998   2.339   2.998  13.763 -0.0711 -0.9761 -1.9920
 2861TIP3    H229999   2.195   2.964  13.792  0.2954 -2.3532 -1.7381
 2862TIP3   OH230000   5.466   0.665  13.362  0.9984 -0.0669  0.0483
 2862TIP3    H130001   5.502   0.601  13.424 -2.9743 -2.6680 -0.1978
 2862TIP3    H230002   5.474   0.622  13.276  1.4444  1.2474 -0.5855
 2863TIP3   OH230003   0.353   5.113   1.867 -0.2839 -0.3296  0.0365
 2863TIP3    H130004   0.369   5.197   1.911 -0.9907  0.2022 -0.7059
 2863TIP3    H230005   0.258   5.099   1.876 -0.7429  0.6324 -2.7633
 2864TIP3   OH230006   3.872   0.024  12.257  0.2442  0.7629  0.1892
 2864TIP3    H130007   3.818   0.097  12.228  1.4069  1.3234 -0.6496
 2864TIP3    H230008   3.945   0.066  12.303  0.3700  0.0728  0.6165
 2865TIP3   OH230009   2.133   2.246  14.511  0.4986  0.3741 -0.4972
 2865TIP3    H130010   2.143   2.172  14.570  3.4707  0.9371 -0.1928
 2865TIP3    H230011   2.104   2.318  14.567  0.1138  0.0706 -0.3136
 2866TIP3   OH230012   5.862   1.423  16.575  0.4388 -0.0304  0.2847
 2866TIP3    H130013   5.948   1.462  16.595  1.2516 -0.7048 -1.8448
 2866TIP3    H230014   5.853   1.353  16.640  0.8289  0.9829  1.4651
 2867TIP3   OH230015   2.291   2.083   4.144 -0.5327  0.7503  0.0630
 2867TIP3    H130016   2.202   2.115   4.134 -0.9720 -1.2411 -2.5893
 2867TIP3    H230017   2.282   1.997   4.186  0.1240  0.3645 -0.5864
 2868TIP3   OH230018   3.102   3.535   5.659  0.1596  0.8838  0.1541
 2868TIP3    H130019   3.087   3.542   5.565  1.1598  1.0750  0.0025
 2868TIP3    H230020   3.019   3.563   5.699 -0.2738  0.7684 -0.6678
 2869TIP3   OH230021   3.034   0.802  12.556  0.5438  0.3700 -0.1674
 2869TIP3    H130022   2.985   0.774  12.633  2.1484  0.1140  0.7775
 2869TIP3    H230023   3.112   0.844  12.591  0.5412  1.6457 -1.6471
 2870TIP3   OH230024   3.259   6.779   2.250  0.2228  0.3484  0.4029
 2870TIP3    H130025   3.209   6.792   2.331 -0.6026  0.8435 -0.1786
 2870TIP3    H230026   3.330   6.843   2.256 -0.5465  1.2435  0.1815
 2871TIP3   OH230027   6.732   2.661  11.646  0.1913  0.5501 -0.5042
 2871TIP3    H130028   6.795   2.593  11.625 -0.1302  0.2572 -0.5369
 2871TIP3    H230029   6.783   2.731  11.686  0.0584 -1.2789  3.0779
 2872TIP3   OH230030   4.044   1.799  16.468 -0.3529 -0.0273 -0.2688
 2872TIP3    H130031   4.065   1.710  16.496 -1.7194  0.8295  3.8878
 2872TIP3    H230032   4.108   1.820  16.400  4.0772 -1.8841  3.1754
 2873TIP3   OH230033   0.354   4.219  12.829 -0.3290 -0.6570  0.5319
 2873TIP3    H130034   0.350   4.222  12.733 -4.2351 -2.1838  0.5805
 2873TIP3    H230035   0.404   4.140  12.848 -0.8474 -1.1812 -0.2530
 2874TIP3   OH230036   6.037   3.215  15.347  0.3588  0.0453 -0.0925
 2874TIP3    H130037   6.125   3.236  15.316  0.5097  0.6753  0.7570
 2874TIP3    H230038   6.043   3.124  15.376  0.2656 -0.4954 -1.6961
 2875TIP3   OH230039   0.725   1.851  14.924 -0.5336 -0.0970  0.3570
 2875TIP3    H130040   0.783   1.786  14.885 -0.3196  1.2966 -1.7422
 2875TIP3    H230041   0.785   1.911  14.969 -0.4878  0.2213 -0.1200
 2876TIP3   OH230042   3.045   4.910   1.209 -0.6185  0.0825 -0.3634
 2876TIP3    H130043   3.137   4.887   1.223  0.0499  1.8874 -1.5178
 2876TIP3    H230044   2.998   4.827   1.218  1.4987 -1.5056 -2.8840
 2877TIP3   OH230045   6.529   3.323   5.020 -0.0078 -0.0885  0.2506
 2877TIP3    H130046   6.562   3.413   5.014  1.3667 -0.5818  0.2048
 2877TIP3    H230047   6.484   3.308   4.937  0.5658  0.2568 -0.1271
 2878TIP3   OH230048   1.895   3.694  14.571  0.0761  0.1777 -0.0205
 2878TIP3    H130049   1.860   3.746  14.644  0.3670 -0.3904  0.5257
 2878TIP3    H230050   1.923   3.760  14.507  0.1100  0.6961  0.5163
 2879TIP3   OH230051   3.766   1.521   2.459 -0.3539 -0.4104  0.0207
 2879TIP3    H130052   3.749   1.511   2.553  1.7595 -1.6935  0.2953
 2879TIP3    H230053   3.710   1.455   2.417 -3.0775  1.7300  0.1516
 2880TIP3   OH230054   0.423   6.276  15.795 -0.4246  0.1851  0.0932
 2880TIP3    H130055   0.484   6.203  15.783 -0.2391  0.2761  0.4862
 2880TIP3    H230056   0.479   6.354  15.800 -0.6770  0.4750 -1.3023
 2881TIP3   OH230057   0.430   3.250  14.027 -0.4480 -0.6061  0.4177
 2881TIP3    H130058   0.384   3.167  14.024  1.4411 -1.8314  2.7455
 2881TIP3    H230059   0.404   3.289  14.111 -0.7296  0.7869 -0.3059
 2882TIP3   OH230060   5.655   5.627  13.088  0.0143 -0.1674  0.1655
 2882TIP3    H130061   5.589   5.683  13.130  0.8777  0.7001  0.3989
 2882TIP3    H230062   5.658   5.548  13.142  0.1318  0.3648  0.9489
 2883TIP3   OH230063   5.000   1.327  15.965  0.0677  0.1539 -0.4502
 2883TIP3    H130064   5.086   1.328  16.006  0.1936  0.7385 -0.7262
 2883TIP3    H230065   5.007   1.262  15.895  0.0497 -0.3641  0.0316
 2884TIP3   OH230066   4.256   5.994   1.886 -0.9051 -0.1009 -0.9428
 2884TIP3    H130067   4.213   5.928   1.940  1.7583  0.5549  2.1416
 2884TIP3    H230068   4.347   5.965   1.880  0.1690  2.8666 -0.1291
 2885TIP3   OH230069   3.859   4.106  12.628  0.0761  0.7284  0.0684
 2885TIP3    H130070   3.802   4.173  12.589  0.8204  2.1305  1.3303
 2885TIP3    H230071   3.819   4.090  12.714 -0.4593 -0.9339 -0.4771
 2886TIP3   OH230072   4.107   4.723  15.088 -0.3140  0.1892 -0.0645
 2886TIP3    H130073   4.082   4.632  15.072 -1.3670  0.7060 -1.4689
 2886TIP3    H230074   4.025   4.769  15.100  0.1108  1.2828 -1.2371
 2887TIP3   OH230075   6.496   5.965   0.517  0.2563 -0.5830 -0.0354
 2887TIP3    H130076   6.439   6.038   0.493  1.3394  0.1766 -0.3472
 2887TIP3    H230077   6.458   5.890   0.471 -0.3166 -0.0307 -0.4802
 2888TIP3   OH230078   5.839   6.649   1.629 -0.0850 -1.6107  0.1927
 2888TIP3    H130079   5.906   6.715   1.614 -1.4532 -0.4531 -1.0177
 2888TIP3    H230080   5.845   6.591   1.552 -0.3198 -1.6302  0.1867
 2889TIP3   OH230081   5.653   4.969   5.713  0.1302 -0.0585  0.3093
 2889TIP3    H130082   5.665   4.966   5.808  2.4214 -0.5012  0.0285
 2889TIP3    H230083   5.689   5.053   5.687 -0.3606 -0.0017 -0.2106
 2890TIP3   OH230084   2.472   2.465  17.144 -0.1277  0.6776 -0.0989
 2890TIP3    H130085   2.539   2.407  17.107 -0.2247  0.8921 -0.6161
 2890TIP3    H230086   2.418   2.490  17.070 -2.0826 -1.1938  0.6598
 2891TIP3   OH230087   5.751   6.277  16.958  0.4271 -0.5744  0.2421
 2891TIP3    H130088   5.768   6.239  16.872  0.4650 -1.1258  0.4875
 2891TIP3    H230089   5.748   6.202  17.017  2.3207 -0.0730  1.0399
 2892TIP3   OH230090   1.059   6.358   3.852 -0.0941  0.1821  0.1272
 2892TIP3    H130091   1.066   6.379   3.945 -0.2095 -0.3124  0.2503
 2892TIP3    H230092   1.052   6.443   3.808  0.1052  0.4188  0.5572
 2893TIP3   OH230093   0.532   4.579   0.967 -0.5233 -0.4832 -0.1526
 2893TIP3    H130094   0.556   4.669   0.991  0.1229 -0.5812 -0.4110
 2893TIP3    H230095   0.535   4.531   1.050  0.1062 -0.4738 -0.1639
 2894TIP3   OH230096   3.791   5.197  15.505 -0.5205 -0.3743  0.2722
 2894TIP3    H130097   3.738   5.237  15.574 -0.6840 -1.7844  0.9883
 2894TIP3    H230098   3.739   5.123  15.475  1.2801 -2.1678  1.4325
 2895TIP3   OH230099   2.709   4.571  16.447 -0.3977 -0.3739 -0.5059
 2895TIP3    H130100   2.636   4.531  16.494  0.7402 -0.2214  1.4538
 2895TIP3    H230101   2.705   4.664  16.469  1.8671 -0.7414  1.7611
 2896TIP3   OH230102   3.280   6.721  13.905 -0.5253 -0.0089  0.3081
 2896TIP3    H130103   3.243   6.754  13.987 -1.0620 -0.7266  0.3627
 2896TIP3    H230104   3.259   6.789  13.841 -1.9709 -0.4100  0.3370
 2897TIP3   OH230105   4.407   3.564  10.668  0.0420  0.0314  0.3476
 2897TIP3    H130106   4.497   3.533  10.660  0.1533  0.6093 -0.6948
 2897TIP3    H230107   4.354   3.484  10.670  0.5018 -0.2822 -0.0099
 2898TIP3   OH230108   2.646   0.106  10.768 -0.3368 -0.6904 -0.1805
 2898TIP3    H130109   2.578   0.074  10.828 -0.5949  0.1458 -0.0317
 2898TIP3    H230110   2.614   0.191  10.738  1.4509  0.5114  1.2248
 2899TIP3   OH230111   1.611   1.841   2.411 -0.6324  0.7753  0.3078
 2899TIP3    H130112   1.576   1.910   2.467 -0.0769  0.3852  1.1514
 2899TIP3    H230113   1.706   1.848   2.421 -0.5292  0.7118 -0.6014
 2900TIP3   OH230114   5.101   5.522   5.516  0.1680 -0.4200  0.4112
 2900TIP3    H130115   5.141   5.440   5.546 -0.1379 -0.5715  0.4144
 2900TIP3    H230116   5.156   5.590   5.552  1.1452 -0.6465 -0.6245
 2901TIP3   OH230117   2.458   1.489   2.044  0.2002 -0.1276  0.1112
 2901TIP3    H130118   2.399   1.564   2.041  2.2180  1.5704  1.1259
 2901TIP3    H230119   2.428   1.437   2.119 -1.9593 -1.0202 -1.3444
 2902TIP3   OH230120   0.403   3.230  13.729  0.6271 -0.2194  0.1451
 2902TIP3    H130121   0.320   3.193  13.759  0.9386  1.0636  2.6678
 2902TIP3    H230122   0.464   3.214  13.800  1.8254  1.4219 -0.4799
 2903TIP3   OH230123   2.972   4.386   2.457 -1.0162 -0.1562  0.8554
 2903TIP3    H130124   2.932   4.464   2.495  0.8363  1.8222 -1.0632
 2903TIP3    H230125   3.044   4.365   2.515 -0.3287  0.7719  0.3655
 2904TIP3   OH230126   5.970   6.474  12.422 -0.5271 -0.1641 -0.0280
 2904TIP3    H130127   5.994   6.445  12.510  0.0609  0.2777 -0.0355
 2904TIP3    H230128   5.875   6.465  12.419 -0.5455 -0.2372  0.6321
 2905TIP3   OH230129   3.010   6.203  15.080  0.2699 -0.2281 -0.4635
 2905TIP3    H130130   2.990   6.126  15.133  2.3773  1.3315  2.7606
 2905TIP3    H230131   2.931   6.256  15.084  0.5705  0.1039  1.6155
 2906TIP3   OH230132   3.349   0.189   2.616 -0.6069 -0.0608  0.6375
 2906TIP3    H130133   3.390   0.272   2.643 -0.9620  1.0476 -1.9731
 2906TIP3    H230134   3.343   0.137   2.696  1.5191  1.6368  1.9566
 2907TIP3   OH230135   0.107   4.166   3.836 -0.4573  0.4697  0.0129
 2907TIP3    H130136   0.159   4.229   3.887 -0.6686  0.8083 -0.1835
 2907TIP3    H230137   0.168   4.131   3.771 -1.0305  2.5969 -1.7435
 2908TIP3   OH230138   0.758   0.141  14.698 -0.1043 -0.1736  0.4265
 2908TIP3    H130139   0.756   0.178  14.611  0.2813  0.7474  0.8090
 2908TIP3    H230140   0.822   0.194  14.746 -0.9363 -0.1268  1.5049
 2909TIP3   OH230141   1.089   0.169  15.534  0.0996  0.1365 -0.0742
 2909TIP3    H130142   1.155   0.196  15.598  1.3899  0.5353 -1.5290
 2909TIP3    H230143   1.136   0.112  15.473 -0.7299  0.8986 -1.4732
 2910TIP3   OH230144   0.449   4.166   3.274 -0.3385  0.0271  0.6280
 2910TIP3    H130145   0.409   4.125   3.197  1.0181 -1.6547  0.7745
 2910TIP3    H230146   0.474   4.092   3.330  1.4707  1.0765  1.2681
 2911TIP3   OH230147   2.298   5.356  13.408  0.1240 -0.0925  0.0985
 2911TIP3    H130148   2.358   5.290  13.374  1.1918  0.5542  0.7064
 2911TIP3    H230149   2.212   5.327  13.378  0.6762 -1.2836 -0.3822
 2912TIP3   OH230150   3.782   0.425  12.550 -0.0941  0.3310  0.5173
 2912TIP3    H130151   3.834   0.481  12.492 -0.0544 -0.3251 -0.0900
 2912TIP3    H230152   3.730   0.372  12.490 -0.2801 -0.1376  1.0989
 2913TIP3   OH230153   1.089   3.479   0.045 -0.1452 -0.0377  0.0863
 2913TIP3    H130154   1.040   3.491   0.126 -0.0000 -0.5979  0.2574
 2913TIP3    H230155   1.029   3.433  -0.014 -0.1902  0.2143 -0.0660
 2914TIP3   OH230156   0.989   3.012   4.250  0.2477 -0.1129  0.0818
 2914TIP3    H130157   0.967   3.105   4.258 -0.1141 -0.2935  1.3093
 2914TIP3    H230158   0.911   2.967   4.282  0.1587 -0.8493 -1.1670
 2915TIP3   OH230159   2.110   6.349  14.777 -0.0758  0.2917  0.6078
 2915TIP3    H130160   2.070   6.347  14.864 -0.9067 -0.1650  0.2244
 2915TIP3    H230161   2.056   6.411  14.727  1.0843  1.4362  0.7346
 2916TIP3   OH230162   1.929   0.588  10.946 -0.2348  0.4743  0.5653
 2916TIP3    H130163   1.961   0.644  11.017 -0.2863  0.3408  0.6939
 2916TIP3    H230164   1.978   0.506  10.957  0.7452  0.9323 -0.3740
 2917TIP3   OH230165   2.187   1.894   2.900  0.3027 -0.7765  0.5323
 2917TIP3    H130166   2.173   1.802   2.923 -0.8148 -0.5166  0.8988
 2917TIP3    H230167   2.160   1.900   2.809 -0.6804 -0.5675  0.8396
 2918TIP3   OH230168   2.948   4.103  16.866  0.2657  0.6199 -0.0030
 2918TIP3    H130169   2.946   4.069  16.776  0.0310  0.2485  0.1397
 2918TIP3    H230170   3.027   4.156  16.870 -0.2322  1.4129 -0.7006
 2919TIP3   OH230171   4.466   1.145  11.048 -0.1955  0.1940 -0.2452
 2919TIP3    H130172   4.493   1.213  10.986 -0.1470 -0.8334 -1.3481
 2919TIP3    H230173   4.548   1.104  11.076 -0.3013 -0.0852 -0.3438
 2920TIP3   OH230174   4.358   2.633   4.086  0.2352 -0.1610  0.3009
 2920TIP3    H130175   4.435   2.614   4.140 -0.0443  0.8215  1.0657
 2920TIP3    H230176   4.344   2.552   4.036  0.0896 -1.3663  2.2104
 2921TIP3   OH230177   0.706   2.053   1.243  0.2014  0.4027 -0.2138
 2921TIP3    H130178   0.720   2.032   1.150  0.3342  1.5444 -0.4566
 2921TIP3    H230179   0.690   2.147   1.244 -1.8490  0.0612  0.6991
 2922TIP3   OH230180   2.783   3.074  16.699  0.2399 -0.1533  0.4742
 2922TIP3    H130181   2.855   3.014  16.721 -1.1215 -1.8252  0.5016
 2922TIP3    H230182   2.753   3.046  16.613 -0.5092  0.3947  0.5485
 2923TIP3   OH230183   5.930   4.003  14.455 -0.8734  0.1796 -0.0619
 2923TIP3    H130184   5.959   4.091  14.478  1.3015 -0.3730 -0.5553
 2923TIP3    H230185   5.935   3.954  14.537  0.1965 -0.0532 -0.2540
 2924TIP3   OH230186   6.577   0.571  15.001  0.2734  0.3941  0.3629
 2924TIP3    H130187   6.663   0.536  15.023  0.2261 -1.6819 -2.4388
 2924TIP3    H230188   6.591   0.666  14.994  2.3935  0.0680 -0.2297
 2925TIP3   OH230189   0.927   6.605  11.468 -0.4350  0.2487  0.4094
 2925TIP3    H130190   0.953   6.678  11.523  0.6429 -2.4030  3.6313
 2925TIP3    H230191   1.009   6.569  11.436 -0.9124 -0.0276 -0.5308
 2926TIP3   OH230192   2.040   4.750  17.236  0.1835  0.1848  0.1638
 2926TIP3    H130193   2.076   4.749  17.324  0.9973  0.7471 -0.1539
 2926TIP3    H230194   1.946   4.743  17.248  0.3857 -1.2392  1.0093
 2927TIP3   OH230195   2.582   2.149   0.679 -0.5924  0.0600 -0.4073
 2927TIP3    H130196   2.537   2.144   0.763  0.8895 -1.3106  0.3392
 2927TIP3    H230197   2.536   2.217   0.630 -0.2750  2.2369  2.2350
 2928TIP3   OH230198   6.438   0.197  12.403 -0.5115 -0.1637  0.1896
 2928TIP3    H130199   6.524   0.162  12.426  0.4529  0.5037 -2.2054
 2928TIP3    H230200   6.377   0.150  12.459  1.1837 -2.4484  0.1935
 2929TIP3   OH230201   1.441   5.509  10.583  0.4351  0.1082  0.5466
 2929TIP3    H130202   1.376   5.580  10.584 -0.1737 -0.4323  0.2941
 2929TIP3    H230203   1.390   5.431  10.605  0.2865 -0.8791 -2.9169
 2930TIP3   OH230204   3.072   1.117   1.857  0.3003  0.0221 -0.1016
 2930TIP3    H130205   3.043   1.186   1.917  2.6478  0.4901  0.5708
 2930TIP3    H230206   3.068   1.158   1.770 -1.9110 -0.2491 -0.1457
 2931TIP3   OH230207   4.533   0.605   3.268 -0.4349 -0.1812  0.3117
 2931TIP3    H130208   4.607   0.626   3.210 -1.5762 -0.3487 -1.2164
 2931TIP3    H230209   4.551   0.656   3.348  0.2537  1.4201 -0.8341
 2932TIP3   OH230210   0.463   5.438  14.868  0.5015  0.1162  0.5247
 2932TIP3    H130211   0.530   5.477  14.813 -0.4390  0.8377 -0.1369
 2932TIP3    H230212   0.475   5.477  14.954 -0.5514  2.0472 -0.1778
 2933TIP3   OH230213   4.480   5.519  13.201  0.1297 -0.7720 -0.5605
 2933TIP3    H130214   4.495   5.453  13.268 -0.8109 -1.4497 -1.0103
 2933TIP3    H230215   4.568   5.551  13.179  0.5160 -1.2309  0.2976
 2934TIP3   OH230216   1.133   1.472   2.735 -0.0659  0.2168 -0.1910
 2934TIP3    H130217   1.145   1.459   2.829 -2.2315 -2.4146 -0.2064
 2934TIP3    H230218   1.069   1.543   2.728  0.8484  1.0932  0.2932
 2935TIP3   OH230219   3.777   2.367  10.703 -0.0635  0.1061 -0.3024
 2935TIP3    H130220   3.807   2.276  10.697 -1.3516 -0.4015  0.6210
 2935TIP3    H230221   3.712   2.366  10.774  1.8249  2.2800  1.5070
 2936TIP3   OH230222   6.531   0.004   3.580 -0.2632  0.3496 -0.7948
 2936TIP3    H130223   6.495   0.084   3.542  3.2497  2.4645  0.1785
 2936TIP3    H230224   6.505   0.008   3.672 -0.1267  0.3093 -0.7554
 2937TIP3   OH230225   5.520   0.096  12.806 -0.0939 -0.0771  0.0094
 2937TIP3    H130226   5.425   0.079  12.805  0.2215 -2.5882  3.4492
 2937TIP3    H230227   5.558   0.021  12.760  0.3139  0.3841 -0.4159
 2938TIP3   OH230228   4.728   3.837  14.655 -0.4298 -0.3911  0.6474
 2938TIP3    H130229   4.710   3.790  14.736 -0.5777  1.9175  1.9755
 2938TIP3    H230230   4.724   3.929  14.678 -2.4655  0.3709 -2.4024
 2939TIP3   OH230231   4.204   0.927  10.409 -0.0376 -0.1217  0.5634
 2939TIP3    H130232   4.133   0.930  10.346  0.6192  0.8567 -0.1506
 2939TIP3    H230233   4.274   0.977  10.368  1.5286 -2.1174  0.6853
 2940TIP3   OH230234   2.677   4.469  12.688  0.5085  0.1328  0.2433
 2940TIP3    H130235   2.695   4.452  12.780  0.3735  0.1879  0.2785
 2940TIP3    H230236   2.587   4.502  12.686  1.0622  1.6890  0.2633
 2941TIP3   OH230237   1.710   0.569   2.462 -0.0645  0.0595  0.4899
 2941TIP3    H130238   1.622   0.585   2.496 -0.0858  3.2996 -0.9223
 2941TIP3    H230239   1.762   0.551   2.540 -1.0706  2.6257  1.8185
 2942TIP3   OH230240   6.005   5.815  15.576 -0.3140  0.1150  0.1370
 2942TIP3    H130241   6.092   5.804  15.614 -0.8905 -0.0139  1.4484
 2942TIP3    H230242   5.981   5.906  15.595  0.4780  0.8698 -2.2727
 2943TIP3   OH230243   1.521   1.847  12.568 -0.3303 -0.4676 -0.1575
 2943TIP3    H130244   1.481   1.840  12.654  0.3812 -1.5174  0.0910
 2943TIP3    H230245   1.529   1.942  12.553  0.7634 -0.2763  1.4963
 2944TIP3   OH230246   5.998   5.831   4.834  0.2221  0.0756  0.4371
 2944TIP3    H130247   5.978   5.850   4.926  0.7951 -0.5400  0.6843
 2944TIP3    H230248   5.930   5.770   4.807 -0.0599  0.4069  0.3971
 2945TIP3   OH230249   4.500   0.877   2.732 -0.2836 -0.3419 -0.4174
 2945TIP3    H130250   4.558   0.910   2.800 -0.9424 -1.5074  0.7366
 2945TIP3    H230251   4.528   0.922   2.652  0.4227  1.1248  0.6361
 2946TIP3   OH230252   1.488   2.762  11.693 -0.0542  0.1747 -0.2693
 2946TIP3    H130253   1.560   2.702  11.674  1.0114  0.8504  1.4556
 2946TIP3    H230254   1.434   2.716  11.757  0.4238  0.7907  0.5876
 2947TIP3   OH230255   2.449   3.149   1.912 -0.2793  0.2927 -0.0293
 2947TIP3    H130256   2.396   3.109   1.980 -1.3367 -1.0827 -1.6344
 2947TIP3    H230257   2.398   3.138   1.832  2.9966 -2.3113 -1.8937
 2948TIP3   OH230258   1.210   0.201   3.504  0.3786 -0.3337  0.0397
 2948TIP3    H130259   1.141   0.248   3.553  1.2335 -1.6170  2.5691
 2948TIP3    H230260   1.247   0.268   3.446 -0.3107  1.4226  1.5470
 2949TIP3   OH230261   1.966   5.013   3.116  0.0080  0.6442 -0.6497
 2949TIP3    H130262   1.938   4.971   3.197 -2.1268  0.3494 -1.5069
 2949TIP3    H230263   2.060   4.999   3.113 -0.2823 -1.7664  0.4108
 2950TIP3   OH230264   6.086   4.735  14.433  0.1968 -0.2606 -0.1612
 2950TIP3    H130265   6.137   4.668  14.478  2.6537  2.3341  1.1199
 2950TIP3    H230266   5.998   4.727  14.469  1.2151 -0.7255  2.3043
 2951TIP3   OH230267   1.755   5.809  14.933  0.7638  0.4556  0.2274
 2951TIP3    H130268   1.769   5.892  14.980  1.3657  0.9433 -0.8207
 2951TIP3    H230269   1.692   5.831  14.864  0.4005 -0.1165  0.3734
 2952TIP3   OH230270   3.235   4.939   0.887 -0.2576 -0.4671  0.3627
 2952TIP3    H130271   3.254   4.852   0.853  1.1784 -1.0520  2.6284
 2952TIP3    H230272   3.313   4.990   0.867 -1.1349  0.3763 -1.0517
 2953TIP3   OH230273   3.484   6.182   2.372 -0.1994 -0.1395 -0.2227
 2953TIP3    H130274   3.418   6.117   2.348 -0.7221  0.7091 -1.1212
 2953TIP3    H230275   3.444   6.231   2.444  0.1491 -0.7129  0.3774
 2954TIP3   OH230276   3.840   6.278  14.635  0.2207 -0.1514 -0.0000
 2954TIP3    H130277   3.875   6.338  14.700 -1.3903  0.9313 -0.0960
 2954TIP3    H230278   3.887   6.298  14.554  1.5502 -0.8476  0.5877
 2955TIP3   OH230279   4.045   1.552   5.761 -0.2665  0.0395  0.1699
 2955TIP3    H130280   3.977   1.485   5.772  1.6708 -1.9684  0.3336
 2955TIP3    H230281   4.065   1.552   5.667 -2.5838  2.7891 -0.3664
 2956TIP3   OH230282   5.207   4.931   6.908 -0.6240 -0.0303 -0.0226
 2956TIP3    H130283   5.248   4.969   6.831 -0.1591 -1.4666 -0.5069
 2956TIP3    H230284   5.272   4.869   6.941 -0.3780  1.3640  2.1766
 2957TIP3   OH230285   6.015   3.305   5.723 -0.5260  0.1690 -0.1107
 2957TIP3    H130286   6.012   3.401   5.721 -1.7416  0.1323 -0.6112
 2957TIP3    H230287   6.069   3.284   5.799  0.3684  1.2596 -0.4386
 2958TIP3   OH230288   1.668   1.990  13.660 -0.3133  0.0048 -0.2580
 2958TIP3    H130289   1.630   1.908  13.692 -0.5879  0.3078  0.1966
 2958TIP3    H230290   1.595   2.053  13.661  0.3415  0.7639  1.2527
 2959TIP3   OH230291   5.309   6.057   5.535  0.2068  0.0290 -0.3829
 2959TIP3    H130292   5.385   6.081   5.587  1.9592 -0.9118 -2.4441
 2959TIP3    H230293   5.287   6.138   5.487 -0.2630  0.3701  0.3985
 2960TIP3   OH230294   4.328   0.746  14.544  0.0210 -0.0795 -0.3000
 2960TIP3    H130295   4.368   0.659  14.541  1.1784  0.3934  1.1993
 2960TIP3    H230296   4.242   0.732  14.583 -0.3370 -0.7326 -1.2925
 2961TIP3   OH230297   1.078   0.206  16.400 -0.6509 -0.0515  0.0808
 2961TIP3    H130298   1.121   0.246  16.324  0.0618  0.1068  0.5548
 2961TIP3    H230299   1.065   0.115  16.375 -2.6197  0.5421 -1.1498
 2962TIP3   OH230300   1.167   2.506   0.836  0.1291 -0.3822 -0.6156
 2962TIP3    H130301   1.084   2.460   0.825 -0.9389  1.3966 -0.1198
 2962TIP3    H230302   1.179   2.554   0.754 -0.3545  0.9727  0.0990
 2963TIP3   OH230303   4.012   5.088   4.736 -0.1669 -0.1229 -0.2991
 2963TIP3    H130304   4.045   5.044   4.814 -1.2409  0.3974  0.4750
 2963TIP3    H230305   4.089   5.105   4.682  0.7311  0.4537  1.1459
 2964TIP3   OH230306   1.463   1.597  15.493 -0.8170  0.3070  0.6453
 2964TIP3    H130307   1.540   1.629  15.540 -0.2758  0.5109 -0.3535
 2964TIP3    H230308   1.467   1.502  15.502  0.3892  0.2030 -0.6223
 2965TIP3   OH230309   5.320   6.575  16.997  0.2222 -0.1454 -0.4841
 2965TIP3    H130310   5.279   6.573  16.910 -2.0470  2.4052  0.4426
 2965TIP3    H230311   5.253   6.540  17.056  1.2772 -0.6790  0.4194
 2966TIP3   OH230312   4.756   4.640   1.530 -0.4957 -0.7983 -0.1012
 2966TIP3    H130313   4.844   4.634   1.494  0.0196  0.2056  0.9333
 2966TIP3    H230314   4.756   4.579   1.604  0.3238  1.3669  1.7663
 2967TIP3   OH230315   1.260   4.733   5.204 -0.2123  0.3862 -0.4284
 2967TIP3    H130316   1.314   4.692   5.273  0.3411  0.5219 -0.7744
 2967TIP3    H230317   1.275   4.679   5.127 -0.5573  0.4410 -0.5314
 2968TIP3   OH230318   3.560   6.609  10.427  1.2121  0.7086  0.2068
 2968TIP3    H130319   3.541   6.546  10.497  1.6075  1.1382  0.7020
 2968TIP3    H230320   3.648   6.585  10.397  1.1674  0.7223  0.0630
 2969TIP3   OH230321   5.804   2.280  16.845  0.3515  0.3291 -0.3095
 2969TIP3    H130322   5.869   2.218  16.813  0.4033 -0.0425  0.5068
 2969TIP3    H230323   5.720   2.234  16.837  0.5669 -0.5051  1.8844
 2970TIP3   OH230324   0.332   0.715   1.915  0.3829 -0.8029  0.4343
 2970TIP3    H130325   0.366   0.641   1.865  0.2760  0.5222 -1.6384
 2970TIP3    H230326   0.269   0.676   1.975  1.1386 -2.5241  0.1349
 2971TIP3   OH230327   4.248   5.520   4.132 -0.0879 -0.0465 -0.0587
 2971TIP3    H130328   4.215   5.529   4.221 -0.1086  1.3257 -0.2014
 2971TIP3    H230329   4.343   5.509   4.142 -0.1282 -0.2020  0.1471
 2972TIP3   OH230330   5.394   3.747   1.545 -0.4278  0.2200 -0.5019
 2972TIP3    H130331   5.316   3.785   1.506  0.9561  1.7291 -1.9037
 2972TIP3    H230332   5.397   3.658   1.511 -0.0948  1.0186 -2.6622
 2973TIP3   OH230333   5.783   2.635   4.187 -0.0340  0.9935  0.3666
 2973TIP3    H130334   5.727   2.569   4.227 -0.7867  0.8072 -0.9756
 2973TIP3    H230335   5.753   2.718   4.223 -1.2631  0.9065 -0.4341
 2974TIP3   OH230336   6.653   0.308  16.366  0.2433  0.3098 -0.2576
 2974TIP3    H130337   6.686   0.237  16.311  0.5499 -0.1950  0.5675
 2974TIP3    H230338   6.567   0.277  16.396 -0.5754  1.2008 -1.6045
 2975TIP3   OH230339   2.994   2.873  16.758  0.0714 -0.4836 -0.6298
 2975TIP3    H130340   2.936   2.810  16.800 -1.9333  1.8424  0.2269
 2975TIP3    H230341   3.031   2.923  16.831 -0.2340  0.8953 -1.4138
 2976TIP3   OH230342   0.468   3.266   5.044 -0.5138 -0.1934  0.3578
 2976TIP3    H130343   0.511   3.255   5.129 -0.8032 -1.3791  0.3520
 2976TIP3    H230344   0.391   3.320   5.063  0.1406  0.6667  0.6186
 2977TIP3   OH230345   2.256   4.696   6.237 -0.7116 -0.0561  0.0554
 2977TIP3    H130346   2.334   4.644   6.258 -0.0995  0.1585 -1.5893
 2977TIP3    H230347   2.214   4.648   6.165  0.1522  1.9596 -1.8459
 2978TIP3   OH230348   4.561   4.684   2.161 -0.2344 -0.1185 -0.0351
 2978TIP3    H130349   4.496   4.733   2.112  0.4978  1.0712  0.1577
 2978TIP3    H230350   4.645   4.725   2.138  0.3647 -1.0881  0.3515
 2979TIP3   OH230351   5.018   5.197  15.787 -0.4533  0.0885  0.1798
 2979TIP3    H130352   4.936   5.210  15.835  0.0997  0.6053  1.0042
 2979TIP3    H230353   5.085   5.196  15.855  0.2187 -0.3998 -0.4843
 2980TIP3   OH230354   0.622   3.119   3.787 -0.1200 -0.2688  0.7214
 2980TIP3    H130355   0.529   3.115   3.767  0.2144 -0.3071 -0.9114
 2980TIP3    H230356   0.663   3.154   3.707  1.2038  0.2417  1.5940
 2981TIP3   OH230357   0.677   4.320   2.532  0.2477 -0.6013 -0.2661
 2981TIP3    H130358   0.755   4.340   2.481  0.8302  0.7580  1.1234
 2981TIP3    H230359   0.604   4.344   2.475  0.8873  1.0772 -0.4152
 2982TIP3   OH230360   6.148   0.287   3.717 -0.2774  0.1412  0.4924
 2982TIP3    H130361   6.054   0.294   3.700 -0.1605 -3.3375 -2.0828
 2982TIP3    H230362   6.156   0.216   3.781  0.7258 -1.9271 -1.8234
 2983TIP3   OH230363   6.326   4.618  17.170 -0.4708  0.0894 -0.4142
 2983TIP3    H130364   6.346   4.587  17.258 -0.1130 -0.7685 -0.7882
 2983TIP3    H230365   6.241   4.580  17.149  0.0955 -0.8813 -0.9824
 2984TIP3   OH230366   6.697   2.519   3.938 -0.1152 -0.3232 -0.2304
 2984TIP3    H130367   6.657   2.572   4.007  0.9347  1.2632 -0.8025
 2984TIP3    H230368   6.645   2.538   3.860  0.4551  0.1338 -0.5062
 2985TIP3   OH230369   3.032   3.125   4.187 -0.4378  0.1752  0.1881
 2985TIP3    H130370   2.953   3.148   4.236  0.1097 -0.4055  1.3481
 2985TIP3    H230371   3.054   3.037   4.217  0.1518 -0.0140 -0.7826
 2986TIP3   OH230372   6.568   6.655  15.528 -0.5484  0.4292  0.6503
 2986TIP3    H130373   6.654   6.665  15.487  0.1893  0.7012  2.2502
 2986TIP3    H230374   6.513   6.619  15.458  1.0533 -0.4860 -0.1767
 2987TIP3   OH230375   5.663   1.796   3.829 -0.2160  0.1002  0.2983
 2987TIP3    H130376   5.721   1.847   3.886 -0.9182 -0.1216  1.2103
 2987TIP3    H230377   5.708   1.796   3.744 -0.4485  2.6522  0.1372
 2988TIP3   OH230378   5.916   1.747   4.264 -0.1562 -0.2608  0.0729
 2988TIP3    H130379   5.985   1.747   4.330  0.0618  1.1951 -0.1407
 2988TIP3    H230380   5.839   1.783   4.309 -0.2313 -0.0279 -0.2397
 2989TIP3   OH230381   6.200   4.170   5.807 -0.7558  0.2229 -0.1209
 2989TIP3    H130382   6.283   4.202   5.840 -0.5926 -1.3191  1.0078
 2989TIP3    H230383   6.217   4.148   5.715  0.5761 -1.7724  0.5762
 2990TIP3   OH230384   0.506   1.793   3.434 -0.7095  0.0391 -0.1521
 2990TIP3    H130385   0.580   1.751   3.389 -0.6047 -0.4412  0.4688
 2990TIP3    H230386   0.538   1.880   3.457  0.1927 -0.7094  1.4933
 2991TIP3   OH230387   3.272   4.593  16.408  0.6654 -0.3893  0.1681
 2991TIP3    H130388   3.179   4.603  16.391  0.4398  2.7442  2.7303
 2991TIP3    H230389   3.315   4.644  16.340  0.2905  1.4398  1.2552
 2992TIP3   OH230390   4.179   5.724   2.006 -0.3220  0.3801  0.9407
 2992TIP3    H130391   4.115   5.719   2.078  0.1712  2.5076  1.5784
 2992TIP3    H230392   4.264   5.718   2.049 -0.0708 -2.0698  0.1294
 2993TIP3   OH230393   4.249   0.957   5.903 -0.1666 -0.1942  0.2991
 2993TIP3    H130394   4.306   0.899   5.955 -0.6751 -0.8605  0.1240
 2993TIP3    H230395   4.160   0.933   5.930 -0.3238  2.0336  1.8381
 2994TIP3   OH230396   1.108   6.367   5.382  0.4634  0.4969  0.7173
 2994TIP3    H130397   1.198   6.389   5.403  1.0104 -0.7215 -0.2947
 2994TIP3    H230398   1.105   6.271   5.385 -0.9008  0.5407  1.1765
 2995TIP3   OH230399   2.432   4.277  12.685 -0.1858 -0.4511 -0.2988
 2995TIP3    H130400   2.354   4.222  12.681 -1.4275  1.1365  1.1375
 2995TIP3    H230401   2.398   4.366  12.674  1.5408  0.1927 -0.4929
 2996TIP3   OH230402   4.213   0.639  17.115 -0.1284  0.7310  0.6970
 2996TIP3    H130403   4.280   0.678  17.171  0.2580  1.3535 -0.1806
 2996TIP3    H230404   4.146   0.707  17.107  0.7237  1.4126 -1.1440
 2997TIP3   OH230405   2.874   1.431   6.023  0.0425 -0.4164  0.3144
 2997TIP3    H130406   2.900   1.386   5.943  1.0582  1.6800 -0.5566
 2997TIP3    H230407   2.954   1.438   6.074 -0.2552 -0.2449  0.7630
 2998TIP3   OH230408   4.377   4.482   1.262 -0.3698  0.0714  0.1822
 2998TIP3    H130409   4.414   4.429   1.191 -0.6238  1.1633 -0.7749
 2998TIP3    H230410   4.303   4.527   1.222 -0.1537  1.1528  0.9769
 2999TIP3   OH230411   3.773   1.642  16.688 -0.2415  0.3290  0.4152
 2999TIP3    H130412   3.773   1.693  16.769  0.3728  0.8747  0.0702
 2999TIP3    H230413   3.735   1.701  16.622 -1.1595 -0.2692  0.3937
 3000TIP3   OH230414   0.579   6.440   2.021 -0.3305 -0.3125 -0.2999
 3000TIP3    H130415   0.570   6.482   2.106 -0.4357 -0.2509 -0.3419
 3000TIP3    H230416   0.672   6.449   2.000 -0.0915 -1.2923  0.3062
 3001TIP3   OH230417   0.874   0.616  13.746  0.3266 -0.4700  0.6826
 3001TIP3    H130418   0.900   0.694  13.697 -0.0960 -0.1438  0.9686
 3001TIP3    H230419   0.848   0.650  13.832 -2.0812 -0.6219  0.0614
 3002TIP3   OH230420   4.336   2.257   0.660 -0.4515 -0.4413  0.4996
 3002TIP3    H130421   4.348   2.351   0.666  0.5411 -0.5252 -0.1411
 3002TIP3    H230422   4.400   2.228   0.595 -2.6907 -1.1860 -1.4601
 3003TIP3   OH230423   0.965   3.654   2.421  0.1662 -0.2852  0.0140
 3003TIP3    H130424   1.033   3.608   2.470 -1.3979 -1.7733  0.8275
 3003TIP3    H230425   0.915   3.585   2.377 -0.1107  0.8577 -1.5193
 3004TIP3   OH230426   0.249   6.531  16.779 -0.2164  0.3912 -0.2969
 3004TIP3    H130427   0.219   6.497  16.694 -0.5694 -0.6783  0.2503
 3004TIP3    H230428   0.332   6.486  16.795 -1.6241 -1.6554  1.3235
 3005TIP3   OH230429   6.460   3.628   5.211  0.1137 -0.0686  0.3256
 3005TIP3    H130430   6.527   3.653   5.147  1.0594 -1.8873  0.5708
 3005TIP3    H230431   6.394   3.581   5.160  0.9979 -1.7528  0.6837
 3006TIP3   OH230432   1.858   2.029  12.751  0.2617 -0.8285  0.4798
 3006TIP3    H130433   1.824   1.957  12.698 -1.3009  0.3659 -0.1283
 3006TIP3    H230434   1.826   2.010  12.839 -0.9754 -0.3365  0.1309
 3007TIP3   OH230435   4.637   4.706   4.365  0.1116 -0.1225 -0.4188
 3007TIP3    H130436   4.598   4.663   4.441  2.4720  3.0913  2.7633
 3007TIP3    H230437   4.575   4.776   4.343  0.5142  0.3459 -0.0549
 3008TIP3   OH230438   2.344   3.829   4.017 -0.7699 -0.2704 -0.1367
 3008TIP3    H130439   2.296   3.888   3.960  0.1420  0.2612 -0.3646
 3008TIP3    H230440   2.340   3.870   4.104 -1.4470 -0.6568  0.0158
 3009TIP3   OH230441   5.344   0.150  15.563 -0.4743  0.6549 -0.3996
 3009TIP3    H130442   5.328   0.187  15.477 -1.6386  1.6382  0.2290
 3009TIP3    H230443   5.360   0.226  15.620  1.2416 -0.0141  0.0786
 3010TIP3   OH230444   0.421   1.503   4.196 -0.1591  0.7016  0.2319
 3010TIP3    H130445   0.494   1.494   4.257  0.5544 -2.7924 -0.9793
 3010TIP3    H230446   0.345   1.469   4.245 -0.4056  1.6938  0.5395
 3011TIP3   OH230447   0.980   2.927   5.525 -0.1196 -0.2024  0.4838
 3011TIP3    H130448   1.023   2.981   5.592  1.4270 -2.3435  1.2948
 3011TIP3    H230449   0.887   2.938   5.541  0.2075  1.0148  1.6303
 3012TIP3   OH230450   5.674   2.678  13.141 -0.3949  0.5343 -0.7567
 3012TIP3    H130451   5.584   2.682  13.109 -0.7236  0.8405  0.2027
 3012TIP3    H230452   5.670   2.622  13.219  0.5225 -0.7615 -1.6170
 3013TIP3   OH230453   1.084   1.103  17.087  0.0878 -0.4278  0.3245
 3013TIP3    H130454   1.177   1.123  17.080  0.0822 -0.6003 -0.3348
 3013TIP3    H230455   1.065   1.053  17.007 -0.3423 -1.2757  0.9552
 3014TIP3   OH230456   3.077   5.417  14.979 -0.1574 -0.2675  0.1685
 3014TIP3    H130457   3.013   5.356  14.941 -2.3061  2.0182 -0.0500
 3014TIP3    H230458   3.129   5.364  15.038 -1.1663 -2.5569 -0.9469
 3015TIP3   OH230459   1.701   4.185  14.843 -0.3766 -0.1750  0.5058
 3015TIP3    H130460   1.631   4.170  14.778 -0.4508 -0.3060  0.6156
 3015TIP3    H230461   1.657   4.173  14.927 -0.1944 -0.3731  0.5707
 3016TIP3   OH230462   5.217   5.112  14.610  0.1888  0.3580 -0.1365
 3016TIP3    H130463   5.224   5.023  14.577 -2.6362 -0.1307  0.3902
 3016TIP3    H230464   5.233   5.168  14.534 -1.2527 -0.6774 -1.2357
 3017TIP3   OH230465   3.013   3.181   0.942  0.6792 -0.6535 -0.0080
 3017TIP3    H130466   3.063   3.176   1.023  0.1539 -0.3133  0.3370
 3017TIP3    H230467   3.006   3.274   0.924 -2.6084 -0.5033  1.6809
 3018TIP3   OH230468   5.128   2.037  11.393 -0.3507  0.4215  0.4127
 3018TIP3    H130469   5.145   1.946  11.417  0.2343 -0.2443 -2.3471
 3018TIP3    H230470   5.033   2.041  11.379 -0.5261  0.5206  1.6075
 3019TIP3   OH230471   1.194   6.406   4.256  0.1583  0.0066  0.2831
 3019TIP3    H130472   1.224   6.317   4.275  2.2402  0.3001 -1.4280
 3019TIP3    H230473   1.106   6.396   4.220  0.7697 -1.4327 -0.8180
 3020TIP3   OH230474   6.600   3.851  13.601 -0.4594  0.6616 -0.5233
 3020TIP3    H130475   6.550   3.905  13.540 -0.9468  1.4406  0.5683
 3020TIP3    H230476   6.534   3.799  13.646 -0.0119 -0.7395 -1.4378
 3021TIP3   OH230477   1.990   5.379   0.127 -0.3778 -0.5092 -0.1253
 3021TIP3    H130478   2.061   5.434   0.092 -1.9836  0.8413 -1.3287
 3021TIP3    H230479   1.920   5.387   0.063 -1.6784 -1.7705  1.1009
 3022TIP3   OH230480   5.331   0.979  14.785 -0.1438 -0.3148 -0.0394
 3022TIP3    H130481   5.332   0.925  14.865 -0.8530 -0.2814 -0.0052
 3022TIP3    H230482   5.370   1.062  14.812 -2.5304  0.5601  0.9034
 3023TIP3   OH230483   5.234   6.759  12.883 -0.3455  0.0206  0.0737
 3023TIP3    H130484   5.244   6.679  12.831 -0.8477  0.4833 -0.7426
 3023TIP3    H230485   5.187   6.819  12.825 -2.1943  0.0451  1.5818
 3024TIP3   OH230486   3.280   2.462   2.167 -0.3663  0.0433  0.8493
 3024TIP3    H130487   3.341   2.527   2.204 -0.6644 -0.3388  2.0250
 3024TIP3    H230488   3.193   2.498   2.185 -0.6293 -2.0371  4.1329
 3025TIP3   OH230489   2.038   6.195   3.924  0.0002 -0.1017  0.0061
 3025TIP3    H130490   1.951   6.155   3.918 -0.2018  0.4718 -1.0330
 3025TIP3    H230491   2.021   6.284   3.955  0.3131 -0.3226  0.8216
 3026TIP3   OH230492   6.507   2.690  16.175  0.6734 -0.0093 -0.3945
 3026TIP3    H130493   6.459   2.608  16.164 -0.5491  0.6765 -0.2708
 3026TIP3    H230494   6.456   2.754  16.126  2.1999  0.4813 -1.3830
 3027TIP3   OH230495   6.257   5.186  11.713  0.0627 -0.1880  0.3553
 3027TIP3    H130496   6.206   5.180  11.632  0.1956  0.2930  0.2355
 3027TIP3    H230497   6.264   5.280  11.731 -2.0113 -0.3577  2.2416
 3028TIP3   OH230498   6.193   4.680   3.034 -0.3537 -0.1283  0.3725
 3028TIP3    H130499   6.167   4.680   3.126 -0.0088  0.1431  0.4726
 3028TIP3    H230500   6.283   4.714   3.035 -0.2197 -0.4696 -0.0250
 3029TIP3   OH230501   1.486   6.238  17.186  0.1145 -0.2301  0.4148
 3029TIP3    H130502   1.546   6.241  17.112  1.3981  0.8196  1.4839
 3029TIP3    H230503   1.543   6.232  17.263 -1.1071  1.6963  1.4994
 3030TIP3   OH230504   5.130   6.421  12.277  0.1338  0.3717 -0.0312
 3030TIP3    H130505   5.222   6.413  12.304  0.7666  0.2430 -2.1293
 3030TIP3    H230506   5.101   6.504  12.315  1.2867  0.6877  0.1723
 3031TIP3   OH230507   2.751   6.758   5.729  0.5769  0.1677  0.2484
 3031TIP3    H130508   2.832   6.791   5.692 -2.1416  3.4625 -3.1978
 3031TIP3    H230509   2.733   6.817   5.802  2.0844 -1.6831  2.1955
 3032TIP3   OH230510   3.874   6.577   3.134  0.5653  0.4065 -0.2973
 3032TIP3    H130511   3.873   6.489   3.096 -0.4581 -0.0118  0.6957
 3032TIP3    H230512   3.952   6.618   3.096  2.2894 -1.6546  0.9248
 3033TIP3   OH230513   4.987   0.520  15.384 -0.5179 -0.2881  0.2515
 3033TIP3    H130514   5.038   0.554  15.458 -0.2563 -0.2504  0.0546
 3033TIP3    H230515   5.039   0.447  15.351 -0.2911  0.1410 -0.3379
 3034TIP3   OH230516   5.658   0.619  15.095 -0.0080  0.6485 -0.0323
 3034TIP3    H130517   5.578   0.611  15.146 -1.5931 -0.0491 -2.5306
 3034TIP3    H230518   5.696   0.531  15.096  0.0441  0.6724  0.0764
 3035TIP3   OH230519   1.681   3.506   6.203 -0.6230 -0.1662  0.5761
 3035TIP3    H130520   1.620   3.534   6.134  1.8112  0.0439 -1.5453
 3035TIP3    H230521   1.696   3.586   6.254 -1.0521  0.1160  0.2759
 3036TIP3   OH230522   5.050   0.357  11.513 -0.0769  0.1691 -0.1915
 3036TIP3    H130523   5.014   0.410  11.442  0.6933  1.5781  0.4499
 3036TIP3    H230524   5.137   0.333  11.483  1.0331  2.4263  1.0510
 3037TIP3   OH230525   0.196   5.772   2.019 -0.3865 -0.3211 -0.7859
 3037TIP3    H130526   0.121   5.751   2.075 -0.9716 -0.7682 -1.7082
 3037TIP3    H230527   0.202   5.867   2.021 -0.4618 -0.3296 -0.0443
 3038TIP3   OH230528   6.527   5.076   3.950  0.3590 -0.2205  0.2253
 3038TIP3    H130529   6.437   5.047   3.967 -0.0246  1.3074  0.9204
 3038TIP3    H230530   6.555   5.024   3.875 -1.4060 -0.1244 -0.5244
 3039TIP3   OH230531   2.837   1.457  14.461 -0.3812 -0.1482  0.0336
 3039TIP3    H130532   2.795   1.401  14.397 -1.3082 -0.2997  0.7584
 3039TIP3    H230533   2.777   1.456  14.536  0.8351 -0.2480  1.0224
 3040TIP3   OH230534   0.045   0.442   1.473  0.2694 -0.1530 -0.4072
 3040TIP3    H130535   0.019   0.426   1.383  1.2330 -0.2117 -0.6874
 3040TIP3    H230536   0.141   0.436   1.471  0.2842 -0.3211  0.6487
 3041TIP3   OH230537   4.497   3.165  15.178 -0.3691  0.0393  0.2879
 3041TIP3    H130538   4.446   3.104  15.231 -1.4370  0.3780 -0.3566
 3041TIP3    H230539   4.581   3.171  15.224 -1.1603  0.0587  1.7698
 3042TIP3   OH230540   3.883   2.108   0.552 -0.0392 -0.6783  0.0138
 3042TIP3    H130541   3.964   2.152   0.523  0.2255  0.1555  1.9383
 3042TIP3    H230542   3.912   2.045   0.617 -1.1619  1.4646  2.6926
 3043TIP3   OH230543   0.142   4.625   0.116  0.1347  0.2454 -0.2297
 3043TIP3    H130544   0.092   4.702   0.141  1.3990  0.9172  0.2335
 3043TIP3    H230545   0.226   4.658   0.088  0.9134 -1.0051  0.5586
 3044TIP3   OH230546   6.568   2.659   5.772  0.5660  0.6062  0.1918
 3044TIP3    H130547   6.594   2.631   5.684  1.3884  2.1889 -0.0743
 3044TIP3    H230548   6.649   2.658   5.822  0.2713  0.6920  0.6706
 3045TIP3   OH230549   3.861   4.983   2.079 -0.6548  0.1767 -0.2444
 3045TIP3    H130550   3.793   4.916   2.077 -0.0857 -0.3777 -1.4143
 3045TIP3    H230551   3.943   4.934   2.087 -0.3191  0.7929  0.1851
 3046TIP3   OH230552   3.296   1.407  14.838  0.1598  0.2168  0.2216
 3046TIP3    H130553   3.277   1.313  14.831  0.9515  0.1637 -1.6385
 3046TIP3    H230554   3.389   1.411  14.858 -0.0579  0.6097  1.1995
 3047TIP3   OH230555   0.544   2.361  12.173 -0.4697  0.0423  0.4742
 3047TIP3    H130556   0.517   2.424  12.239  1.1680  0.5493  0.6907
 3047TIP3    H230557   0.494   2.384  12.095  0.0357  1.5426  0.5804
 3048TIP3   OH230558   1.108   4.150  13.765 -0.8511 -0.1317  0.2683
 3048TIP3    H130559   1.154   4.172  13.684 -0.8321 -0.9638  0.0467
 3048TIP3    H230560   1.088   4.234  13.805  0.3266  0.2508  0.0679
 3049TIP3   OH230561   0.761   4.244  11.637  0.0793 -0.5996  0.1268
 3049TIP3    H130562   0.762   4.183  11.563 -2.2297 -0.5617  0.0273
 3049TIP3    H230563   0.762   4.187  11.714  1.1612 -0.6703  0.0672
 3050TIP3   OH230564   1.673   2.143  16.612  0.1836  0.4255 -0.0390
 3050TIP3    H130565   1.715   2.057  16.600 -1.6643 -0.7619  1.7619
 3050TIP3    H230566   1.597   2.140  16.555  0.7290  1.3175 -0.8230
 3051TIP3   OH230567   1.949   6.379  11.975  0.5164  0.0166  0.2974
 3051TIP3    H130568   1.905   6.358  12.057  1.3901  0.9988  1.0258
 3051TIP3    H230569   2.024   6.319  11.973  2.3015  2.1501  1.7740
 3052TIP3   OH230570   5.652   4.199  13.448 -0.6355  0.4562  0.4513
 3052TIP3    H130571   5.576   4.176  13.502 -1.2059  0.5252 -0.3119
 3052TIP3    H230572   5.667   4.292  13.467  0.0874  0.1121  1.6050
 3053TIP3   OH230573   3.845   2.729   2.913  0.1699 -0.5176  0.2997
 3053TIP3    H130574   3.801   2.670   2.975 -0.5735  0.3159  0.5774
 3053TIP3    H230575   3.907   2.778   2.967 -2.2155  1.9551  0.8520
 3054TIP3   OH230576   2.437   5.982   0.416 -0.0030 -0.1256 -0.0899
 3054TIP3    H130577   2.490   5.969   0.337  0.3471  0.5004  0.0395
 3054TIP3    H230578   2.369   5.915   0.410  0.2262 -0.3063 -0.7511
 3055TIP3   OH230579   6.341   0.524   2.068 -0.1103 -0.1068 -0.0842
 3055TIP3    H130580   6.267   0.532   2.008 -0.4657  0.8017  0.4643
 3055TIP3    H230581   6.400   0.595   2.042  1.0417 -1.4402 -1.1692
 3056TIP3   OH230582   1.472   1.644   3.479 -0.4035 -0.0041  0.4360
 3056TIP3    H130583   1.513   1.678   3.558  0.2648  0.6867 -0.1958
 3056TIP3    H230584   1.472   1.718   3.418 -0.9631 -0.5098 -0.1864
 3057TIP3   OH230585   2.895   4.751   6.695  0.0002  0.3597 -0.0301
 3057TIP3    H130586   2.968   4.806   6.669  1.2784  0.0446  2.7575
 3057TIP3    H230587   2.925   4.662   6.680 -1.1696  0.2973 -2.2299
 3058TIP3   OH230588   2.650   5.156   6.247 -0.5485  0.1376  0.3387
 3058TIP3    H130589   2.597   5.090   6.291 -2.6436  1.1368 -0.6118
 3058TIP3    H230590   2.726   5.108   6.214 -1.8399 -1.7197 -0.0092
 3059TIP3   OH230591   3.905   3.108  11.757 -0.2567  0.2938  0.3750
 3059TIP3    H130592   3.818   3.121  11.794 -1.2987 -2.6283 -0.9081
 3059TIP3    H230593   3.950   3.053  11.821 -0.0220  0.2100  0.1411
 3060TIP3   OH230594   2.666   4.505  13.677 -0.4426 -0.2846  0.4140
 3060TIP3    H130595   2.752   4.474  13.707 -0.4715 -0.7747  0.0071
 3060TIP3    H230596   2.681   4.596  13.650 -0.4224  0.1669  1.9117
 3061TIP3   OH230597   4.120   2.623  14.843 -0.1159  0.1171  0.8977
 3061TIP3    H130598   4.106   2.548  14.786 -0.3565 -0.0156  1.1310
 3061TIP3    H230599   4.055   2.614  14.913 -0.9155  1.1639  0.3069
 3062TIP3   OH230600   5.470   4.271  13.917  0.0680 -0.2796  0.0310
 3062TIP3    H130601   5.465   4.346  13.857 -1.7011  0.5306  1.1257
 3062TIP3    H230602   5.563   4.251  13.924  0.4601  1.0321 -1.2516
 3063TIP3   OH230603   5.453   4.975  11.464  0.0645 -0.0278 -0.1352
 3063TIP3    H130604   5.498   4.964  11.548  0.0906  2.3763  0.1959
 3063TIP3    H230605   5.380   5.035  11.483 -1.9140 -2.0316 -1.1472
 3064TIP3   OH230606   0.899   5.929   3.660 -0.2379 -0.4754 -0.2230
 3064TIP3    H130607   0.817   5.954   3.701 -0.4733  1.7182 -1.9573
 3064TIP3    H230608   0.962   5.994   3.691  0.3283 -0.7850 -0.7117
 3065TIP3   OH230609   5.434   3.950   1.271  0.1363 -0.2940  0.5259
 3065TIP3    H130610   5.503   3.905   1.319 -0.3037  0.3649  1.7938
 3065TIP3    H230611   5.394   3.882   1.216  0.6641 -1.0434  1.0733
 3066TIP3   OH230612   0.844   4.802  13.554 -0.0588 -0.2020  0.2567
 3066TIP3    H130613   0.894   4.734  13.598  0.7348  0.7147  0.8077
 3066TIP3    H230614   0.758   4.801  13.597 -0.7953 -2.2813 -1.1956
 3067TIP3   OH230615   1.224   0.660  15.910 -0.1784  0.3417  0.1922
 3067TIP3    H130616   1.301   0.701  15.870 -0.5071  0.6745 -0.1073
 3067TIP3    H230617   1.166   0.734  15.930  0.1490  0.2156  1.6455
 3068TIP3   OH230618   6.466   0.692   4.690 -0.3566  0.0539 -0.0004
 3068TIP3    H130619   6.489   0.658   4.777 -1.5103 -0.8321 -0.0187
 3068TIP3    H230620   6.442   0.783   4.705  0.3841  0.1798  0.4538
 3069TIP3   OH230621   1.189   6.307   1.669  0.5120  0.6439  0.6859
 3069TIP3    H130622   1.142   6.362   1.733  0.9851  0.1479  1.4688
 3069TIP3    H230623   1.281   6.316   1.693  0.4964 -1.6394  1.7488
 3070TIP3   OH230624   3.022   1.989  15.267 -0.2840  0.0130  0.1774
 3070TIP3    H130625   3.058   1.914  15.220 -0.6245 -0.2410  0.3260
 3070TIP3    H230626   3.052   2.065  15.216  1.1406 -0.1434  0.7403
 3071TIP3   OH230627   0.222   0.209   4.448 -0.0628 -0.4377  0.1245
 3071TIP3    H130628   0.246   0.231   4.538 -1.5370 -1.3267  0.7549
 3071TIP3    H230629   0.252   0.284   4.397  2.4087 -0.7100  1.0831
 3072TIP3   OH230630   5.716   4.486   4.263  0.4525  0.2511  0.0908
 3072TIP3    H130631   5.794   4.489   4.208 -0.6023 -2.1948 -1.6112
 3072TIP3    H230632   5.644   4.513   4.205 -0.0557  2.0482  1.5141
 3073TIP3   OH230633   3.825   1.650  11.656 -0.6571  0.5754  0.0726
 3073TIP3    H130634   3.870   1.721  11.609  0.3288  0.3197  0.6271
 3073TIP3    H230635   3.841   1.572  11.603 -0.1234  0.4151  0.4638
 3074TIP3   OH230636   3.814   2.349  17.207 -0.1046  0.0998 -0.0471
 3074TIP3    H130637   3.840   2.322  17.295 -0.2707 -0.5771 -0.1955
 3074TIP3    H230638   3.857   2.285  17.149 -0.1236  0.4450 -0.4464
 3075TIP3   OH230639   3.470   3.166  15.549  0.2176 -0.3785 -0.1869
 3075TIP3    H130640   3.546   3.142  15.496 -1.3922 -0.7495 -2.3592
 3075TIP3    H230641   3.453   3.089  15.603  1.2591 -0.3583  0.1865
 3076TIP3   OH230642   0.409   4.983   4.321 -0.3117 -0.2287  0.4329
 3076TIP3    H130643   0.400   5.041   4.245  1.7251 -1.8399 -1.0943
 3076TIP3    H230644   0.453   5.037   4.387  0.4808  0.3481 -0.5529
 3077TIP3   OH230645   3.309   5.323  11.992 -0.0618  0.4202  0.6066
 3077TIP3    H130646   3.308   5.411  12.029 -1.2777  0.7957 -0.2826
 3077TIP3    H230647   3.384   5.324  11.932  1.0686  0.2419  1.9922
 3078TIP3   OH230648   5.089   0.292   4.148 -0.0838 -0.2116 -0.7661
 3078TIP3    H130649   5.098   0.232   4.074  1.6290 -2.0219  0.8564
 3078TIP3    H230650   5.132   0.247   4.221 -1.5208  1.6427  1.2790
 3079TIP3   OH230651   1.488   5.789   6.146 -0.2991  0.4708 -0.1180
 3079TIP3    H130652   1.443   5.874   6.144 -1.5324 -0.1647  0.2284
 3079TIP3    H230653   1.490   5.766   6.239 -0.8346 -0.3285 -0.2986
 3080TIP3   OH230654   3.964   2.542   6.637  0.6153  0.1869  0.1679
 3080TIP3    H130655   3.920   2.478   6.692 -0.0131 -0.2418 -0.8129
 3080TIP3    H230656   4.039   2.571   6.689  1.6403 -2.2829  0.1396
 3081TIP3   OH230657   6.648   6.375   2.425 -0.5328  0.6367  0.7586
 3081TIP3    H130658   6.570   6.345   2.378 -0.4477  1.5895 -0.0054
 3081TIP3    H230659   6.633   6.468   2.441  0.2904  0.7473  0.9195
 3082TIP3   OH230660   1.548   2.608  12.144  0.3764 -0.0150  0.1767
 3082TIP3    H130661   1.631   2.592  12.188  0.5996  2.5943  0.7366
 3082TIP3    H230662   1.491   2.644  12.211 -0.7970 -0.5298 -0.5275
 3083TIP3   OH230663   3.382   2.782  12.140 -0.1674 -0.8930 -0.0521
 3083TIP3    H130664   3.378   2.713  12.074 -3.5589 -0.8807  0.0666
 3083TIP3    H230665   3.440   2.849  12.102  0.4574 -2.2919 -1.6135
 3084TIP3   OH230666   2.711   6.352   4.658  0.1153  0.0456 -0.4407
 3084TIP3    H130667   2.783   6.413   4.669 -0.2567  0.8102 -2.0595
 3084TIP3    H230668   2.669   6.379   4.576  0.0865 -2.5280 -1.3214
 3085TIP3   OH230669   5.131   3.249  15.838 -0.3813  0.0470 -0.0288
 3085TIP3    H130670   5.208   3.212  15.795  0.2636 -0.2384  1.3366
 3085TIP3    H230671   5.149   3.343  15.842 -1.5094  0.3834 -2.4827
 3086TIP3   OH230672   4.525   3.012  15.549 -0.5944  0.5477 -0.2451
 3086TIP3    H130673   4.575   2.931  15.540 -0.4465  0.9073 -3.1263
 3086TIP3    H230674   4.436   2.988  15.526 -0.4567  1.3001 -1.5843
 3087TIP3   OH230675   6.745   2.545   5.490 -0.1421  0.5235  0.2290
 3087TIP3    H130676   6.711   2.526   5.403  0.8861 -1.8543  0.3144
 3087TIP3    H230677   6.758   2.640   5.491 -1.2155  0.7013 -1.8041
 3088TIP3   OH230678   5.181   1.925   5.491 -0.4588 -0.1516  0.4629
 3088TIP3    H130679   5.270   1.930   5.525  0.0696  1.7017 -1.0785
 3088TIP3    H230680   5.131   1.984   5.546 -0.0802  1.1170 -0.5347
 3089TIP3   OH230681   2.157   2.574  12.275 -0.0561 -0.1509 -0.0119
 3089TIP3    H130682   2.252   2.582  12.265 -0.0469 -2.1389 -1.8424
 3089TIP3    H230683   2.122   2.647  12.224  0.4211 -1.4158 -2.2032
 3090TIP3   OH230684   0.165   6.693   4.232 -0.1460 -0.0920 -0.1939
 3090TIP3    H130685   0.236   6.630   4.217 -0.2541  0.2295 -2.1786
 3090TIP3    H230686   0.207   6.766   4.278  0.0965 -1.3713  1.6275
 3091TIP3   OH230687   4.454   4.011  15.920  0.1458  0.1498  0.0278
 3091TIP3    H130688   4.459   3.955  15.998  1.4886 -0.5557 -0.5514
 3091TIP3    H230689   4.437   3.951  15.848  2.2474  0.3937 -0.6933
 3092TIP3   OH230690   5.434   2.636  13.038  0.2491 -0.5004  0.0018
 3092TIP3    H130691   5.368   2.697  13.005 -0.6465 -0.9545  0.9208
 3092TIP3    H230692   5.483   2.610  12.960 -0.3583  0.2002 -0.6259
 3093TIP3   OH230693   2.998   5.799   1.228 -0.3635  0.2276  0.4089
 3093TIP3    H130694   2.931   5.747   1.273 -0.6339 -0.6444 -0.9605
 3093TIP3    H230695   3.081   5.771   1.268 -0.6511 -0.1211  0.7635
 3094TIP3   OH230696   5.351   3.172  15.706 -0.8076  0.2559  0.3827
 3094TIP3    H130697   5.436   3.172  15.750  0.0559 -1.5451 -1.2461
 3094TIP3    H230698   5.318   3.083  15.716 -0.9886  0.0347 -1.8677
 3095TIP3   OH230699   1.015   1.003  12.783 -0.0369  0.2105 -0.1058
 3095TIP3    H130700   0.983   0.952  12.708 -0.8720 -0.1365  0.4855
 3095TIP3    H230701   1.091   0.953  12.815 -1.4653 -1.2231  1.1074
 3096TIP3   OH230702   2.023   2.429   5.324  0.2930 -0.0846 -0.6062
 3096TIP3    H130703   1.976   2.512   5.335  2.1253  0.7890  0.8140
 3096TIP3    H230704   2.039   2.398   5.413  1.8546 -0.7012 -1.0863
 3097TIP3   OH230705   6.468   4.511   4.276 -0.9357 -0.3170  0.3953
 3097TIP3    H130706   6.554   4.477   4.253 -0.8363 -0.1402  0.5017
 3097TIP3    H230707   6.408   4.438   4.260 -0.7006 -0.5995  0.8014
 3098TIP3   OH230708   4.628   4.611  11.752 -0.0793  0.4425  0.1415
 3098TIP3    H130709   4.561   4.554  11.715 -0.0728  0.7647 -0.3775
 3098TIP3    H230710   4.579   4.688  11.782 -0.0460  0.3132  0.5297
 3099TIP3   OH230711   5.413   0.068  13.056 -0.0048  0.5177  0.2599
 3099TIP3    H130712   5.353   0.018  13.001  0.1168  1.4768 -0.7482
 3099TIP3    H230713   5.474   0.109  12.995  2.2007 -1.0890  1.3159
 3100TIP3   OH230714   4.191   6.112  10.985 -0.2204 -0.4807  0.2434
 3100TIP3    H130715   4.190   6.045  10.916  0.5286 -0.9722  0.7022
 3100TIP3    H230716   4.279   6.149  10.980 -0.1662 -0.5128  0.9329
 3101TIP3   OH230717   1.504   1.884   1.155  0.9051 -0.0334 -0.1699
 3101TIP3    H130718   1.583   1.931   1.182  0.7943  1.0661 -1.6612
 3101TIP3    H230719   1.518   1.866   1.062 -0.3469 -0.3388 -0.3058
 3102TIP3   OH230720   2.533   1.824   3.687 -0.2548 -0.0402  0.0280
 3102TIP3    H130721   2.462   1.760   3.691  1.1495 -1.6182  0.5819
 3102TIP3    H230722   2.554   1.841   3.779 -0.8935  1.5915 -0.0947
 3103TIP3   OH230723   1.639   1.377  14.424  0.1850 -0.0737  0.5996
 3103TIP3    H130724   1.701   1.445  14.449  0.5075  0.2091 -0.8990
 3103TIP3    H230725   1.623   1.392  14.331 -0.8228 -1.1901  0.5763
 3104TIP3   OH230726   2.273   3.879  15.480 -0.5415 -0.2475  0.1933
 3104TIP3    H130727   2.215   3.873  15.404  0.1834  0.7690 -0.4585
 3104TIP3    H230728   2.227   3.938  15.540 -0.1086  0.7255 -0.4126
 3105TIP3   OH230729   3.609   0.110   5.530  0.1993  0.7902 -0.1616
 3105TIP3    H130730   3.587   0.203   5.525 -0.6425  0.5584 -0.8525
 3105TIP3    H230731   3.678   0.098   5.465  0.2985  0.9290 -0.0829
 3106TIP3   OH230732   4.458   2.174  10.581  0.1252  0.2865  0.3726
 3106TIP3    H130733   4.438   2.183  10.488  1.4091  2.2626  0.2535
 3106TIP3    H230734   4.442   2.261  10.618  0.0290 -0.3679  1.9231
 3107TIP3   OH230735   3.385   3.792   2.811 -0.7387 -0.1142 -0.0478
 3107TIP3    H130736   3.442   3.724   2.774  1.6299  1.4537  0.5800
 3107TIP3    H230737   3.333   3.747   2.877  0.5010 -1.4063  0.0753
 3108TIP3   OH230738   0.274   2.279  14.291  0.4925 -0.1710 -0.3394
 3108TIP3    H130739   0.365   2.254  14.277  0.2229 -0.1764 -2.2426
 3108TIP3    H230740   0.268   2.369  14.259  0.5100  0.9420  2.6428
 3109TIP3   OH230741   3.880   4.838   5.983 -0.7956 -0.6261 -0.8645
 3109TIP3    H130742   3.798   4.851   5.934 -1.6122  2.2256  1.1240
 3109TIP3    H230743   3.945   4.889   5.934 -1.4028  1.4379  0.4244
 3110TIP3   OH230744   0.639   5.052   1.617 -0.3491 -0.1096  0.0747
 3110TIP3    H130745   0.717   5.107   1.622 -0.2387 -0.2140 -0.4761
 3110TIP3    H230746   0.569   5.106   1.654  0.2444 -0.5204  1.8546
 3111TIP3   OH230747   3.100   4.149   0.920 -0.5189 -0.0549 -0.2729
 3111TIP3    H130748   3.085   4.072   0.975  0.0650 -1.2552 -1.7632
 3111TIP3    H230749   3.091   4.116   0.831  0.5895  1.4395 -0.9346
 3112TIP3   OH230750   1.016   1.200   3.841 -0.4404 -0.3582  0.0147
 3112TIP3    H130751   1.107   1.169   3.842  0.5198  2.2648  2.1215
 3112TIP3    H230752   0.995   1.209   3.748  1.8436  0.0120 -0.5016
 3113TIP3   OH230753   4.591   1.362  16.175 -0.7284  0.2907  0.2609
 3113TIP3    H130754   4.686   1.366  16.171 -0.6673 -0.8904  0.2058
 3113TIP3    H230755   4.562   1.357  16.084 -0.6614 -2.2604  0.3319
 3114TIP3   OH230756   5.432   2.469  12.403 -0.0066 -0.2105 -0.1024
 3114TIP3    H130757   5.411   2.455  12.495 -0.4072 -0.5344 -0.2432
 3114TIP3    H230758   5.357   2.433  12.355 -0.7697  1.8060 -0.4913
 3115TIP3   OH230759   6.413   3.947  12.767 -0.1097 -0.0089  0.3347
 3115TIP3    H130760   6.411   3.923  12.674  2.4715 -0.1324  0.2791
 3115TIP3    H230761   6.355   3.883  12.809  1.2707 -2.0749 -0.7662
 3116TIP3   OH230762   4.243   0.725   4.850 -0.4715 -0.5496  0.3887
 3116TIP3    H130763   4.259   0.660   4.919  1.2611 -1.0479 -0.4451
 3116TIP3    H230764   4.249   0.676   4.768 -0.7893  0.3568 -0.1904
 3117TIP3   OH230765   5.352   3.504  12.133 -0.0730  0.7247  0.7757
 3117TIP3    H130766   5.423   3.467  12.185 -1.2878 -1.0765  1.2120
 3117TIP3    H230767   5.393   3.525  12.049  0.7452 -1.3253  0.6372
 3118TIP3   OH230768   2.801   6.063   3.799  0.2207  0.2546 -0.5949
 3118TIP3    H130769   2.867   6.059   3.868 -0.0694  2.1914 -0.1653
 3118TIP3    H230770   2.850   6.089   3.721  0.3604 -0.8179 -0.8778
 3119TIP3   OH230771   3.955   1.165  16.078  0.0280  0.4163  0.0387
 3119TIP3    H130772   3.933   1.256  16.097 -0.6484  0.1616  0.4749
 3119TIP3    H230773   3.955   1.160  15.982 -0.2274  0.7987  0.0205
 3120TIP3   OH230774   6.764   4.730   1.006 -0.3852  0.3453  0.1519
 3120TIP3    H130775   6.814   4.756   1.083  0.3134 -1.1771  0.2267
 3120TIP3    H230776   6.780   4.636   0.997 -2.9208 -0.1021 -0.0593
 3121TIP3   OH230777   3.158   1.396  10.573 -0.1524 -0.2508  0.1704
 3121TIP3    H130778   3.102   1.459  10.528 -0.2328  0.1167  0.7862
 3121TIP3    H230779   3.163   1.322  10.513 -2.3391 -0.8148  0.6357
 3122TIP3   OH230780   3.298   4.892  13.985  0.1416  0.2669 -0.3422
 3122TIP3    H130781   3.292   4.978  14.027 -2.3778 -1.1294  2.3444
 3122TIP3    H230782   3.212   4.877  13.946  0.4807 -1.0854 -0.6094
 3123TIP3   OH230783   2.268   5.366   2.106 -0.5607  0.0758 -0.0144
 3123TIP3    H130784   2.318   5.425   2.162 -0.7241  0.0423  0.1713
 3123TIP3    H230785   2.183   5.409   2.096  0.0095  0.8431 -1.5517
 3124TIP3   OH230786   3.481   3.743   2.349  0.4267  0.6337  0.3544
 3124TIP3    H130787   3.389   3.722   2.363  1.1579 -2.9387  0.1646
 3124TIP3    H230788   3.502   3.706   2.264  1.4775  3.5529 -0.7107
 3125TIP3   OH230789   2.367   5.943   4.133 -0.2259 -0.2469  0.3662
 3125TIP3    H130790   2.290   5.961   4.187 -0.3127  2.9177 -0.6771
 3125TIP3    H230791   2.441   5.968   4.188 -0.0726 -0.9497  0.4845
 3126TIP3   OH230792   2.449   1.903  15.271 -0.3239  0.0456  0.0237
 3126TIP3    H130793   2.406   1.989  15.269  1.3433  0.9066  0.0714
 3126TIP3    H230794   2.420   1.864  15.354 -2.7379 -0.3257 -0.9605
 3127TIP3   OH230795   0.395   6.168   3.339 -0.2002 -0.2572  0.2644
 3127TIP3    H130796   0.437   6.088   3.371 -1.0616 -1.2558 -1.0616
 3127TIP3    H230797   0.418   6.235   3.404  2.3850 -1.0508  0.2342
 3128TIP3   OH230798   3.063   4.555   3.425 -0.1427 -0.4751 -0.0625
 3128TIP3    H130799   3.075   4.587   3.335 -1.4392 -1.1330 -0.4889
 3128TIP3    H230800   3.125   4.482   3.433  0.0949 -0.3073 -0.3773
 3129TIP3   OH230801   5.000   6.418   5.101 -0.2934 -0.4259  0.0178
 3129TIP3    H130802   5.087   6.427   5.140 -1.2051  1.4362  1.7144
 3129TIP3    H230803   5.000   6.481   5.029 -0.3426 -0.2206  0.1980
 3130TIP3   OH230804   1.433   4.647   5.416  0.4065  0.3947 -0.4166
 3130TIP3    H130805   1.515   4.690   5.391  2.4521 -2.4873  1.1116
 3130TIP3    H230806   1.437   4.562   5.374 -0.3078 -1.0015  2.2238
 3131TIP3   OH230807   3.141   1.965   2.143 -0.7995 -0.0460 -0.2444
 3131TIP3    H130808   3.145   1.876   2.177  2.7006 -0.2749 -1.0771
 3131TIP3    H230809   3.101   1.956   2.056  0.4796 -0.9467 -0.7427
 3132TIP3   OH230810   1.698   3.819  16.009 -0.4637  0.1580 -0.0852
 3132TIP3    H130811   1.759   3.891  16.024  1.7769 -1.6838 -0.1015
 3132TIP3    H230812   1.691   3.813  15.913 -0.4391  0.1927 -0.0903
 3133TIP3   OH230813   3.656   6.173   1.580  0.1340 -0.1949  0.2462
 3133TIP3    H130814   3.565   6.199   1.562  0.5374  2.2611  1.5763
 3133TIP3    H230815   3.648   6.107   1.649 -0.6146  0.2957  0.6403
 3134TIP3   OH230816   3.391   0.657  11.563  0.1171 -0.7749  0.0138
 3134TIP3    H130817   3.341   0.705  11.497  0.4440 -0.8132 -0.2693
 3134TIP3    H230818   3.482   0.683  11.547  0.2090 -0.8604  0.3886
 3135TIP3   OH230819   1.910   6.705  17.139 -0.3006  0.2309  0.1450
 3135TIP3    H130820   1.999   6.682  17.113 -0.4247  1.9984 -1.9537
 3135TIP3    H230821   1.917   6.792  17.177 -0.9216 -0.2297  1.3249
 3136TIP3   OH230822   1.907   6.100   4.978 -0.1636 -0.2892 -0.5651
 3136TIP3    H130823   1.918   6.167   4.911 -0.2465 -0.9158 -1.2152
 3136TIP3    H230824   1.926   6.017   4.932  1.2474 -0.5991  0.5492
 3137TIP3   OH230825   1.929   3.252   5.844  0.3709  0.0028 -0.0323
 3137TIP3    H130826   2.012   3.211   5.818  0.4484 -0.0248  0.2533
 3137TIP3    H230827   1.907   3.210   5.927  0.3646  0.4234  0.1807
 3138TIP3   OH230828   2.645   2.357  14.744 -0.0176  0.3583  0.5190
 3138TIP3    H130829   2.717   2.380  14.685  0.4725 -0.4870  0.7727
 3138TIP3    H230830   2.669   2.271  14.778 -1.7276 -0.4555 -0.2855
 3139TIP3   OH230831   1.485   5.064  11.394  0.1023  0.0403  0.4623
 3139TIP3    H130832   1.458   5.042  11.305 -1.0691  0.7062  0.6460
 3139TIP3    H230833   1.542   4.991  11.420  0.9890  0.1641 -1.0573
 3140TIP3   OH230834   3.521   1.832  11.438 -0.4080 -0.0977 -0.1351
 3140TIP3    H130835   3.519   1.852  11.344  1.5417  1.7947  0.1908
 3140TIP3    H230836   3.557   1.743  11.443 -1.3933 -0.5739 -1.2033
 3141TIP3   OH230837   5.434   6.361   3.105 -0.3868  0.5762  0.5141
 3141TIP3    H130838   5.410   6.445   3.144 -0.7607  1.0130 -0.6378
 3141TIP3    H230839   5.394   6.362   3.018  0.1407 -0.5267  0.2445
 3142TIP3   OH230840   3.496   3.966   4.860  0.3585  0.3367 -0.0502
 3142TIP3    H130841   3.409   4.004   4.852  0.5296  1.1967  1.8923
 3142TIP3    H230842   3.544   4.026   4.917  1.5950 -1.1742  0.5608
 3143TIP3   OH230843   3.076   4.257  14.160 -0.4740  0.0179 -0.1896
 3143TIP3    H130844   3.145   4.196  14.138  0.2789  0.6770  0.3053
 3143TIP3    H230845   3.027   4.214  14.230  0.2240  0.0923  0.3540
 3144TIP3   OH230846   1.055   5.907  11.523 -0.8284  0.2640 -0.6620
 3144TIP3    H130847   1.029   5.954  11.602 -0.8147 -0.2224 -0.3697
 3144TIP3    H230848   0.999   5.830  11.520  0.2897 -0.5736 -0.2486
 3145TIP3   OH230849   0.265   0.722   0.836 -0.1423 -0.5322  0.5288
 3145TIP3    H130850   0.187   0.771   0.808 -0.7800 -1.5995  0.4161
 3145TIP3    H230851   0.269   0.648   0.776  1.5881  0.0865 -0.1530
 3146TIP3   OH230852   2.688   2.080  14.551 -0.4159  0.1614  0.1271
 3146TIP3    H130853   2.599   2.045  14.541 -0.1493 -0.4755 -0.0404
 3146TIP3    H230854   2.700   2.086  14.646  0.3562 -2.3500  0.2139
 3147TIP3   OH230855   0.739   2.839   4.365 -0.6446 -0.1658  0.4298
 3147TIP3    H130856   0.646   2.860   4.372 -0.3921  0.5143  1.8245
 3147TIP3    H230857   0.741   2.749   4.333 -1.7734  0.1989 -0.7373
 3148TIP3   OH230858   1.213   3.493  15.966 -0.0430 -0.3344 -0.3016
 3148TIP3    H130859   1.132   3.467  16.009 -0.5326 -1.1807 -1.7090
 3148TIP3    H230860   1.282   3.451  16.018 -0.4693  0.5973  1.0463
 3149TIP3   OH230861   6.139   6.133  11.680 -1.0803  0.7018 -0.2745
 3149TIP3    H130862   6.160   6.145  11.588  0.2532  1.0515  0.0550
 3149TIP3    H230863   6.107   6.043  11.686 -2.2574  1.0469 -1.2560
 3150TIP3   OH230864   0.262   6.259  15.423 -0.0271 -0.2872  0.7117
 3150TIP3    H130865   0.292   6.185  15.370  1.3944  0.6861  0.1351
 3150TIP3    H230866   0.246   6.221  15.510 -1.4514 -1.7019 -0.1444
 3151TIP3   OH230867   2.035   3.348  16.655 -0.0295  0.0942  0.3125
 3151TIP3    H130868   1.965   3.412  16.667  0.4581  1.1273 -2.0210
 3151TIP3    H230869   2.006   3.295  16.580  1.3368  0.1013 -0.2378
 3152TIP3   OH230870   1.814   5.952  16.196  0.2432  0.4016  0.2309
 3152TIP3    H130871   1.771   5.965  16.281  0.2351 -2.8236  0.8114
 3152TIP3    H230872   1.906   5.970  16.213  0.5349 -2.0574  1.4520
 3153TIP3   OH230873   6.630   2.839   0.357  0.7494  0.5444 -0.0520
 3153TIP3    H130874   6.673   2.760   0.324 -0.2657 -0.4831  1.0147
 3153TIP3    H230875   6.661   2.909   0.300  2.2484 -0.5004 -0.5567
 3154TIP3   OH230876   3.355   3.757  13.623 -0.2278 -0.0574  0.0335
 3154TIP3    H130877   3.410   3.832  13.647  2.9456 -1.6302 -1.8802
 3154TIP3    H230878   3.266   3.790  13.627  1.0254  3.5489  0.1714
 3155TIP3   OH230879   3.795   4.231   5.587  0.5276  0.4293 -0.5891
 3155TIP3    H130880   3.781   4.268   5.500 -0.2596  0.0176 -0.6357
 3155TIP3    H230881   3.863   4.165   5.574  1.0491  0.9750 -0.7238
 3156TIP3   OH230882   1.182   1.310  14.926 -0.1159  0.7423 -0.0339
 3156TIP3    H130883   1.238   1.303  14.849 -0.9232  0.9730 -0.6448
 3156TIP3    H230884   1.221   1.380  14.978  1.9555 -1.1619  1.0553
 3157TIP3   OH230885   5.814   6.505  11.340 -0.6625 -0.7840 -0.5896
 3157TIP3    H130886   5.872   6.449  11.391 -1.2345 -1.2393 -0.4300
 3157TIP3    H230887   5.872   6.566  11.295 -0.0968 -0.9502 -0.0815
 3158TIP3   OH230888   4.041   0.787   3.398  0.6041  0.7039  0.1156
 3158TIP3    H130889   4.074   0.703   3.429  1.8385  1.2958  0.4649
 3158TIP3    H230890   4.029   0.839   3.478  2.3967  1.7467 -0.2730
 3159TIP3   OH230891   6.225   1.599   2.870  0.1101  0.1196 -0.3819
 3159TIP3    H130892   6.250   1.558   2.952  0.1857  0.7382 -0.0955
 3159TIP3    H230893   6.305   1.600   2.818 -0.3157 -1.8066 -1.1233
 3160TIP3   OH230894   0.866   6.745  13.474  0.4601 -0.3425  0.1937
 3160TIP3    H130895   0.836   6.812  13.535  1.1034 -0.7120  0.9274
 3160TIP3    H230896   0.961   6.749  13.479  0.5075 -0.8610 -0.2498
 3161TIP3   OH230897   3.970   5.943  15.846  0.6716  0.2729 -0.4124
 3161TIP3    H130898   3.885   5.984  15.831 -0.1744 -1.1556  0.3358
 3161TIP3    H230899   4.010   5.937  15.759 -0.8548 -0.8927 -1.0529
 3162TIP3   OH230900   2.301   2.991  14.098 -0.0564 -0.2047  0.6637
 3162TIP3    H130901   2.319   2.995  14.004 -1.7748 -0.9231  0.2916
 3162TIP3    H230902   2.374   2.941  14.134 -0.1924 -1.2834 -0.5076
 3163TIP3   OH230903   1.002   1.581   0.595 -0.1622 -1.1890 -0.0449
 3163TIP3    H130904   0.934   1.571   0.528  0.4939 -0.2210 -0.8646
 3163TIP3    H230905   1.063   1.644   0.558  0.2620 -0.7134  1.4377
 3164TIP3   OH230906   0.474   3.750   3.724 -0.3313  0.2765 -0.5510
 3164TIP3    H130907   0.400   3.755   3.663 -0.5570  1.2678 -0.2030
 3164TIP3    H230908   0.471   3.832   3.772  0.4598 -0.0677  0.0990
 3165TIP3   OH230909   5.943   0.337  11.840 -0.9544  0.2542 -0.2972
 3165TIP3    H130910   5.921   0.258  11.790 -0.1623  0.1315 -0.4672
 3165TIP3    H230911   5.875   0.400  11.817  0.2408  0.7166 -2.7513
 3166TIP3   OH230912   1.392   6.645  14.094  0.0448 -0.1697 -0.0554
 3166TIP3    H130913   1.378   6.687  14.009  0.3461  0.9188  0.4265
 3166TIP3    H230914   1.412   6.717  14.153  1.7014 -1.1067  0.5479
 3167TIP3   OH230915   2.488   3.933   5.823 -0.1048 -0.1699  0.2776
 3167TIP3    H130916   2.513   3.930   5.731  1.4733  2.0348  0.5965
 3167TIP3    H230917   2.520   3.850   5.859  0.7190 -0.3266 -0.7885
 3168TIP3   OH230918   4.398   0.765  15.975  0.0427 -0.1987 -0.2057
 3168TIP3    H130919   4.471   0.719  15.934 -0.1528 -1.2808  0.6441
 3168TIP3    H230920   4.436   0.847  16.006  1.4679 -1.7475  2.2937
 3169TIP3   OH230921   2.292   6.432   5.661 -0.4464 -0.3938  0.1384
 3169TIP3    H130922   2.377   6.471   5.680 -1.2314  0.5619  1.7843
 3169TIP3    H230923   2.304   6.339   5.679  0.1766 -0.2289  0.5785
 3170TIP3   OH230924   1.058   3.114   6.235  0.3868  0.1823 -0.1152
 3170TIP3    H130925   1.119   3.186   6.252  0.2105  1.1281 -3.1842
 3170TIP3    H230926   0.974   3.158   6.217 -0.6210 -1.0005  1.5213
 3171TIP3   OH230927   5.169   5.509  11.161  0.0694  0.2578 -0.1520
 3171TIP3    H130928   5.130   5.592  11.136 -1.4373  0.2593  2.0602
 3171TIP3    H230929   5.095   5.450  11.173  1.1464 -1.6163 -2.2756
 3172TIP3   OH230930   6.547   1.317   0.156  0.0381  0.3833  0.5159
 3172TIP3    H130931   6.535   1.412   0.153  1.6223  0.5978  0.7790
 3172TIP3    H230932   6.620   1.300   0.097 -0.5710 -0.7339  0.0734
 3173TIP3   OH230933   0.846   3.451  16.371 -0.3415 -0.2725 -0.0930
 3173TIP3    H130934   0.787   3.428  16.443 -1.5282 -1.0893 -1.3087
 3173TIP3    H230935   0.899   3.373  16.358 -1.6797 -0.9719 -1.5875
 3174TIP3   OH230936   4.772   5.688  12.626 -0.3335  0.3589 -0.2705
 3174TIP3    H130937   4.757   5.782  12.617  0.0547  0.4788  0.2830
 3174TIP3    H230938   4.866   5.677  12.611 -0.6670 -0.1755 -2.1063
 3175TIP3   OH230939   6.045   3.802   0.172 -0.4892  0.1992 -0.4325
 3175TIP3    H130940   6.025   3.873   0.232  1.1708  0.9256 -0.7063
 3175TIP3    H230941   5.962   3.785   0.126 -1.6599 -0.1034  1.7463
 3176TIP3   OH230942   1.448   6.055  15.044 -0.5444  0.6004 -0.1646
 3176TIP3    H130943   1.452   6.084  15.135  0.3807 -0.7918  0.2676
 3176TIP3    H230944   1.430   5.961  15.050 -2.0228  0.7784 -1.4661
 3177TIP3   OH230945   4.188   0.055   6.160  0.2942  0.1802 -0.1671
 3177TIP3    H130946   4.261   0.031   6.103  1.2923  0.4400  0.9803
 3177TIP3    H230947   4.128  -0.019   6.154  0.6478 -0.0380 -1.1248
 3178TIP3   OH230948   6.211   6.363   4.992  0.0040 -0.4017  0.1553
 3178TIP3    H130949   6.267   6.334   5.064 -0.7990 -0.8619  0.6008
 3178TIP3    H230950   6.158   6.286   4.970 -1.0652  0.2807  0.3215
 3179TIP3   OH230951   1.915   4.050   4.888 -0.3647 -0.0424 -0.3322
 3179TIP3    H130952   1.945   4.023   4.801 -2.4896 -0.5209 -0.9616
 3179TIP3    H230953   1.820   4.054   4.880 -0.6633 -1.0242  2.2494
 3180TIP3   OH230954   2.761   5.094   0.144 -0.4008  0.7421  0.2003
 3180TIP3    H130955   2.685   5.038   0.155 -1.3103  1.9636  0.2984
 3180TIP3    H230956   2.741   5.172   0.196  1.4005  0.6205  1.1122
 3181TIP3   OH230957   2.127   3.257  17.111  0.0197 -0.4212  0.2958
 3181TIP3    H130958   2.173   3.263  17.195 -0.7811 -1.9565  0.8558
 3181TIP3    H230959   2.197   3.256  17.045  0.7012 -0.3863  1.0132
 3182TIP3   OH230960   6.715   4.655  13.366 -0.0211 -0.1510 -0.2872
 3182TIP3    H130961   6.751   4.726  13.420 -0.3162  0.8762 -1.4290
 3182TIP3    H230962   6.697   4.585  13.429  1.9558  0.1040  0.6062
 3183TIP3   OH230963   6.558   1.187   4.763 -0.0201  0.6882 -0.3002
 3183TIP3    H130964   6.601   1.201   4.847 -0.8911 -2.1256  0.6815
 3183TIP3    H230965   6.607   1.115   4.723 -1.3611  0.1286 -0.9504
 3184TIP3   OH230966   0.185   0.498   5.023 -0.1530 -0.7143  0.4109
 3184TIP3    H130967   0.245   0.426   5.004  0.3206 -0.1654 -0.2043
 3184TIP3    H230968   0.140   0.472   5.104  3.0161  0.1739  2.5453
 3185TIP3   OH230969   6.465   3.413  13.116  0.1615  0.3668 -0.7789
 3185TIP3    H130970   6.534   3.413  13.183  0.3529  0.0338 -0.9800
 3185TIP3    H230971   6.452   3.506  13.096 -1.2125  0.5963  1.0857
 3186TIP3   OH230972   3.087   0.196  13.808  0.0224 -0.3220 -0.8325
 3186TIP3    H130973   3.016   0.235  13.860  1.0698 -3.2738  3.0493
 3186TIP3    H230974   3.060   0.106  13.793  2.0649 -0.9510 -0.9592
 3187TIP3   OH230975   4.987   3.922  11.744  0.2563 -0.2800  0.3172
 3187TIP3    H130976   4.907   3.914  11.796 -0.0420  1.9207  0.2668
 3187TIP3    H230977   5.056   3.940  11.807  0.4900 -0.9131  0.2438
 3188TIP3   OH230978   4.471   2.758  15.822  0.5986 -0.2426 -0.2854
 3188TIP3    H130979   4.443   2.792  15.907  1.6104  0.9121 -0.3940
 3188TIP3    H230980   4.420   2.808  15.758  0.7662 -0.2081 -0.3916
 3189TIP3   OH230981   0.608   2.721   1.134  0.1360  0.2541 -0.3329
 3189TIP3    H130982   0.648   2.806   1.153 -1.6939  1.2888 -0.9922
 3189TIP3    H230983   0.539   2.712   1.200 -0.0188 -0.4691 -0.5883
 3190TIP3   OH230984   0.738   2.592  16.840  0.6006 -0.0114  0.7687
 3190TIP3    H130985   0.830   2.568  16.849  0.5027 -1.6684 -1.9915
 3190TIP3    H230986   0.690   2.514  16.867  0.0936 -0.2797 -0.8618
 3191TIP3   OH230987   3.280   3.131   0.555 -0.3985  0.6158  0.4655
 3191TIP3    H130988   3.310   3.130   0.465  1.9762  1.2865  1.2026
 3191TIP3    H230989   3.348   3.085   0.604 -2.2595 -0.8542  1.7702
 3192TIP3   OH230990   3.947   1.913  12.480  0.4756  0.5279 -0.1935
 3192TIP3    H130991   3.955   1.847  12.550  1.1334  0.3348 -0.4508
 3192TIP3    H230992   4.029   1.962  12.484 -0.6065  2.3002  0.9684
 3193TIP3   OH230993   1.926   0.060   0.239 -0.4374  0.6600 -0.0432
 3193TIP3    H130994   1.949   0.074   0.331  0.5500 -1.1977  0.0145
 3193TIP3    H230995   1.954  -0.029   0.220  1.2593  1.6777 -2.7354
 3194TIP3   OH230996   6.345   5.171  13.848  0.4419 -0.1423 -0.3012
 3194TIP3    H130997   6.303   5.252  13.819 -0.0258  0.1194  1.0876
 3194TIP3    H230998   6.386   5.193  13.931  0.8193 -1.1809 -0.2008
 3195TIP3   OH230999   1.938   5.922   6.798  0.1569 -0.3194  0.2774
 3195TIP3    H131000   1.898   5.885   6.719  0.1856  0.0901  0.0737
 3195TIP3    H231001   1.975   5.846   6.843 -0.7424 -0.6904  0.4013
 3196TIP3   OH231002   3.063   4.154  16.267  0.6868  0.4520 -0.8315
 3196TIP3    H131003   2.974   4.121  16.258  0.8980 -0.3897  0.1446
 3196TIP3    H231004   3.056   4.247  16.245 -0.5917  0.5774  0.0775
 3197TIP3   OH231005   5.844   3.636   1.595  0.7193 -0.3729 -0.2760
 3197TIP3    H131006   5.757   3.600   1.612  0.4842  0.3061 -0.0042
 3197TIP3    H231007   5.897   3.606   1.668  0.6744 -0.6578 -0.3595
 3198TIP3   OH231008   3.087   2.321  16.858  0.5522 -0.1287  0.2966
 3198TIP3    H131009   3.016   2.385  16.856  2.0365  1.5283 -1.2457
 3198TIP3    H231010   3.122   2.327  16.946  0.2303  0.6796  0.3744
 3199TIP3   OH231011   4.860   4.491   4.872  0.3491 -0.0317 -0.0962
 3199TIP3    H131012   4.813   4.417   4.910  1.9691 -1.0462 -0.0238
 3199TIP3    H231013   4.795   4.536   4.818 -1.0329 -0.6379  1.0496
 3200TIP3   OH231014   5.961   1.470   5.846  0.4455 -0.8897 -0.2323
 3200TIP3    H131015   6.033   1.470   5.909  0.6337  0.9690 -0.4252
 3200TIP3    H231016   5.900   1.405   5.879  0.5282  0.0752  1.8978
 3201TIP3   OH231017   2.873   5.247   0.831  0.7478 -0.2147  0.1444
 3201TIP3    H131018   2.954   5.236   0.781  0.5448  0.1784 -0.2741
 3201TIP3    H231019   2.900   5.240   0.922  1.2644 -0.0031  0.0092
 3202TIP3   OH231020   6.536   4.817  10.669  0.1654 -0.4130 -0.4148
 3202TIP3    H131021   6.526   4.838  10.576  2.4892  1.4869 -0.2769
 3202TIP3    H231022   6.522   4.900  10.714 -0.3837 -1.2095  0.9147
 3203TIP3   OH231023   4.721   0.113  13.197  0.2988  0.2531 -0.0049
 3203TIP3    H131024   4.630   0.120  13.168  0.9399  1.6752 -1.7531
 3203TIP3    H231025   4.719   0.140  13.289 -1.1616 -0.5659  0.2151
 3204TIP3   OH231026   5.246   5.197   1.372 -0.1456 -0.5049 -0.1921
 3204TIP3    H131027   5.289   5.281   1.384 -0.9098 -0.1876  0.3598
 3204TIP3    H231028   5.258   5.152   1.456 -1.6412 -0.0612  0.2803
 3205TIP3   OH231029   5.748   4.121   2.897 -0.7214 -0.1115 -0.2865
 3205TIP3    H131030   5.673   4.179   2.909  1.8065  2.6894  2.6075
 3205TIP3    H231031   5.814   4.176   2.855  1.3311 -1.1687  1.4759
 3206TIP3   OH231032   3.805   1.140  16.847 -0.2986 -0.3558 -0.1256
 3206TIP3    H131033   3.819   1.110  16.757 -1.0668 -1.3621  0.0743
 3206TIP3    H231034   3.775   1.230  16.838  1.0770  0.0569 -0.7949
 3207TIP3   OH231035   1.065   2.302   2.001  0.3217  0.2733 -0.1968
 3207TIP3    H131036   1.109   2.350   2.071  1.4975  0.6032 -1.1243
 3207TIP3    H231037   1.134   2.246   1.964  0.1274  1.1657 -2.0072
 3208TIP3   OH231038   2.293   1.288  14.773 -0.0739  0.4880  0.4534
 3208TIP3    H131039   2.262   1.242  14.695  0.7379 -0.5189  0.7202
 3208TIP3    H231040   2.219   1.341  14.800 -0.9879 -0.5745  0.0753
 3209TIP3   OH231041   5.852   1.842   3.347 -0.4590  0.1600  0.1764
 3209TIP3    H131042   5.844   1.804   3.260  1.5175  0.3014 -0.0839
 3209TIP3    H231043   5.850   1.937   3.333  1.9902  0.2230  0.0224
 3210TIP3   OH231044   0.659   3.578  16.812  0.1438 -0.0534  0.5871
 3210TIP3    H131045   0.567   3.599  16.827 -0.0322 -0.6949  0.4447
 3210TIP3    H231046   0.703   3.601  16.893 -0.3848 -1.1185  1.1937
 3211TIP3   OH231047   2.291   5.867  14.729 -0.4663  0.5699  0.1249
 3211TIP3    H131048   2.238   5.810  14.674 -1.2734  1.8175 -0.4305
 3211TIP3    H231049   2.277   5.955  14.692  2.2248  0.8957 -0.2250
 3212TIP3   OH231050   3.013   0.151   3.382  0.1731  0.2801 -0.4912
 3212TIP3    H131051   3.041   0.075   3.333 -0.4260 -0.7006  0.6608
 3212TIP3    H231052   2.988   0.117   3.468  1.5285  2.0024  0.6207
 3213TIP3   OH231053   3.136   3.486   2.088  0.0599  0.2641  0.1271
 3213TIP3    H131054   3.174   3.500   2.001  1.2517  0.4856  0.6691
 3213TIP3    H231055   3.052   3.443   2.071  0.4820 -0.1017 -1.1115
 3214TIP3   OH231056   0.032   2.154  13.250  0.1652 -0.1219  0.3373
 3214TIP3    H131057  -0.034   2.132  13.316  1.1062 -1.4535  0.8523
 3214TIP3    H231058   0.086   2.221  13.292  0.3489 -0.4708  0.6528
 3215TIP3   OH231059   3.737   2.531   2.697  1.0388 -0.1407 -1.3857
 3215TIP3    H131060   3.831   2.524   2.714  0.8058 -0.1080 -0.0878
 3215TIP3    H231061   3.697   2.463   2.750  0.3912 -0.7132 -2.5842
 3216TIP3   OH231062   2.312   4.432  15.048 -0.0146 -0.0371 -0.2812
 3216TIP3    H131063   2.270   4.445  15.132 -0.5485 -0.3051 -0.5014
 3216TIP3    H231064   2.275   4.499  14.991  1.0638  0.7608 -0.0494
 3217TIP3   OH231065   5.535   2.984   6.554 -0.0042  0.0997  1.0031
 3217TIP3    H131066   5.590   3.004   6.478  0.2874 -0.9221  0.9454
 3217TIP3    H231067   5.597   2.962   6.623 -0.3339 -1.1775  0.9046
 3218TIP3   OH231068   2.277   3.436   3.265 -0.1691 -0.1230 -0.1009
 3218TIP3    H131069   2.245   3.483   3.342 -0.1066  0.4237 -0.4059
 3218TIP3    H231070   2.245   3.487   3.191  2.5109  1.2183 -0.3992
 3219TIP3   OH231071   0.989   3.585  13.749  0.3966 -0.1385 -0.2231
 3219TIP3    H131072   0.986   3.680  13.750 -2.2173 -0.1842  1.0221
 3219TIP3    H231073   1.069   3.562  13.797  1.5909  1.4077 -1.4368
 3220TIP3   OH231074   5.335   1.951  16.434 -0.0039 -0.4781  0.3942
 3220TIP3    H131075   5.337   2.019  16.367  1.1419 -1.5692 -0.7087
 3220TIP3    H231076   5.300   1.874  16.390 -0.7976 -0.7737  1.4996
 3221TIP3   OH231077   0.144   4.750  14.380 -0.2806  0.1885 -0.2692
 3221TIP3    H131078   0.237   4.764  14.360 -0.0733  0.3863  0.7812
 3221TIP3    H231079   0.128   4.805  14.457 -1.3213  0.3093 -0.5673
 3222TIP3   OH231080   3.179   6.022   3.433 -0.4181  0.6280 -0.1030
 3222TIP3    H131081   3.271   6.043   3.419 -0.0128 -1.4885 -0.8540
 3222TIP3    H231082   3.146   5.997   3.346 -0.9025 -1.4340  0.6293
 3223TIP3   OH231083   3.454   3.192  13.133  0.0913  0.3322 -0.5686
 3223TIP3    H131084   3.404   3.116  13.104  1.4304 -0.6497 -0.3579
 3223TIP3    H231085   3.481   3.171  13.222 -1.3141  1.9784  0.2663
 3224TIP3   OH231086   1.383   1.887   5.112 -0.1501 -0.2393  0.2561
 3224TIP3    H131087   1.302   1.839   5.091  0.1961 -0.9174  0.4335
 3224TIP3    H231088   1.447   1.818   5.129 -0.1463  0.2899  2.5473
 3225TIP3   OH231089   5.178   0.059  14.122 -0.3634  0.2881 -0.2829
 3225TIP3    H131090   5.208   0.008  14.047  1.5002  1.4846 -0.3826
 3225TIP3    H231091   5.144   0.140  14.085 -0.0658  0.5952  0.1019
 3226TIP3   OH231092   2.717   5.957   5.337 -0.2147 -0.7116  0.0741
 3226TIP3    H131093   2.710   5.885   5.273  0.4057 -0.5060 -0.2232
 3226TIP3    H231094   2.801   5.943   5.380 -0.8056 -1.0868  1.1470
 3227TIP3   OH231095   2.145   3.337   0.371 -0.4611  0.2644  0.2498
 3227TIP3    H131096   2.231   3.360   0.335 -2.0772  1.7947 -2.8490
 3227TIP3    H231097   2.162   3.259   0.425  3.0174  1.1549  0.5803
 3228TIP3   OH231098   2.906   0.746   4.915  0.1618 -0.1210 -0.3682
 3228TIP3    H131099   2.864   0.690   4.849 -2.1268  0.4173  0.5787
 3228TIP3    H231100   2.882   0.835   4.890  1.5081  0.2572 -0.3168
 3229TIP3   OH231101   0.022   1.252   1.242 -0.2019  1.2788 -0.1796
 3229TIP3    H131102   0.031   1.274   1.334 -0.6979  0.6674  0.0195
 3229TIP3    H231103   0.106   1.274   1.203  1.2352 -1.7646  1.0846
 3230TIP3   OH231104   1.294   5.332  14.814 -0.2152 -0.1108 -0.2885
 3230TIP3    H131105   1.321   5.377  14.734  0.1232 -1.2864 -0.8481
 3230TIP3    H231106   1.363   5.267  14.829 -1.2881 -1.2256 -0.1424
 3231TIP3   OH231107   4.043   6.293   2.694  0.0301 -0.1766  0.5654
 3231TIP3    H131108   4.055   6.220   2.755  0.7854 -2.0122 -1.7163
 3231TIP3    H231109   4.057   6.254   2.608 -0.3856  2.5121 -0.7423
 3232TIP3   OH231110   2.512   5.946  15.680  0.2720  0.1750 -0.0511
 3232TIP3    H131111   2.450   5.918  15.612  1.7437  0.6445 -1.6254
 3232TIP3    H231112   2.542   5.864  15.720 -0.2578 -0.1333 -0.2761
 3233TIP3   OH231113   3.525   5.884   2.087 -0.6650 -0.1944  0.0362
 3233TIP3    H131114   3.431   5.900   2.086 -0.6561 -0.1840 -0.4338
 3233TIP3    H231115   3.543   5.833   2.008 -0.4223 -1.0416  0.6297
 3234TIP3   OH231116   0.460   0.643   0.231 -0.8000 -0.1037 -0.1307
 3234TIP3    H131117   0.526   0.682   0.174 -1.0278 -2.8254 -2.3515
 3234TIP3    H231118   0.475   0.684   0.316  1.1161  2.2900 -1.5461
 3235TIP3   OH231119   0.787   6.254  11.284 -0.0321 -0.0364  0.0489
 3235TIP3    H131120   0.816   6.223  11.198  1.5598 -1.1353  0.9573
 3235TIP3    H231121   0.785   6.175  11.338  0.2369  0.8541  1.3712
 3236TIP3   OH231122   0.231   2.692   4.731 -0.5228  0.5101  0.2829
 3236TIP3    H131123   0.274   2.710   4.815 -1.6447  0.7763  0.8090
 3236TIP3    H231124   0.147   2.653   4.754 -1.9670  2.9783 -0.6101
 3237TIP3   OH231125   3.713   5.538  11.685  0.6953  0.5165  0.8295
 3237TIP3    H131126   3.790   5.481  11.690  1.4419  1.6438  2.4429
 3237TIP3    H231127   3.748   5.626  11.699 -0.9371  0.9948  1.9293
 3238TIP3   OH231128   0.246   2.810   0.199  0.4318 -0.1117 -0.4522
 3238TIP3    H131129   0.293   2.730   0.175 -1.1905 -2.4633  3.6070
 3238TIP3    H231130   0.307   2.858   0.255  0.3361  0.0054 -0.4477
 3239TIP3   OH231131   5.586   0.886  15.884  0.4632  0.1852 -0.0328
 3239TIP3    H131132   5.525   0.815  15.865 -0.6992  0.8755  1.0287
 3239TIP3    H231133   5.543   0.964  15.848 -0.2891  1.0077  2.5651
 3240TIP3   OH231134   1.476   3.535   5.333 -0.4656 -0.4665 -0.3002
 3240TIP3    H131135   1.463   3.472   5.404  0.9416 -1.1114 -0.5986
 3240TIP3    H231136   1.431   3.497   5.258 -1.7018  0.0753  0.1410
 3241TIP3   OH231137   0.940   3.755   2.832  0.0918 -0.1810  0.4334
 3241TIP3    H131138   1.021   3.749   2.883  0.0996 -1.5536  0.2747
 3241TIP3    H231139   0.884   3.686   2.869 -0.2726 -0.5173 -0.7408
 3242TIP3   OH231140   6.442   3.223   0.261 -0.1578 -0.2010  0.5393
 3242TIP3    H131141   6.443   3.188   0.350 -2.9691  0.6721  0.9415
 3242TIP3    H231142   6.438   3.318   0.273 -2.4319 -0.1454 -0.4928
 3243TIP3   OH231143   2.299   0.855  11.808  0.2922  0.4616  0.2520
 3243TIP3    H131144   2.358   0.892  11.742  0.1238  1.9608  0.9229
 3243TIP3    H231145   2.214   0.893  11.787 -0.3929 -1.4432 -0.5124
 3244TIP3   OH231146   2.903   6.750  16.093 -0.1609  0.8940 -0.4546
 3244TIP3    H131147   2.825   6.785  16.049 -0.8007  0.0466 -0.0088
 3244TIP3    H231148   2.875   6.665  16.126  0.7224  0.9447  0.4234
 3245TIP3   OH231149   4.362   3.569  16.090 -0.1842 -0.1663  0.1397
 3245TIP3    H131150   4.340   3.661  16.076  0.9063  0.0056 -0.4438
 3245TIP3    H231151   4.412   3.543  16.012 -1.1718 -1.4801 -0.0881
 3246TIP3   OH231152   6.224   2.756  13.901 -0.2130  0.2972 -0.3806
 3246TIP3    H131153   6.165   2.721  13.834  1.5868 -0.5737 -1.5453
 3246TIP3    H231154   6.211   2.851  13.897 -0.9212  0.1724 -1.2039
 3247TIP3   OH231155   2.654   5.784   5.585  0.3772  0.1961 -0.4419
 3247TIP3    H131156   2.655   5.697   5.625  0.0784  0.2542 -0.3068
 3247TIP3    H231157   2.611   5.770   5.501 -1.5011  0.5770  0.4323
 3248TIP3   OH231158   3.833   5.023   3.461 -0.3502 -0.1044  0.4426
 3248TIP3    H131159   3.916   4.994   3.499 -0.8789 -0.5353  1.2909
 3248TIP3    H231160   3.820   4.966   3.385  1.1098  1.2940 -0.8738
 3249TIP3   OH231161   1.360   1.616   2.177  0.0419 -0.1967  0.4154
 3249TIP3    H131162   1.353   1.530   2.136 -1.0789 -1.0337  2.2954
 3249TIP3    H231163   1.334   1.602   2.268  0.1552  2.0784  0.8449
 3250TIP3   OH231164   5.832   6.613  15.738  0.1106  0.2214 -0.5955
 3250TIP3    H131165   5.823   6.706  15.758 -0.4647  0.2191 -0.8449
 3250TIP3    H231166   5.757   6.593  15.682 -0.9827 -0.8891  1.2329
 3251TIP3   OH231167   0.885   4.288  13.009 -0.6756  0.8959 -0.0656
 3251TIP3    H131168   0.831   4.266  13.085 -0.4926  0.1216 -0.1488
 3251TIP3    H231169   0.863   4.221  12.944  0.3131  0.6251 -0.1302
 3252TIP3   OH231170   1.606   5.021   5.637 -0.4156 -0.0224  0.5339
 3252TIP3    H131171   1.556   4.945   5.667 -0.8913  1.2576  3.1429
 3252TIP3    H231172   1.540   5.080   5.600 -0.1944 -0.3610 -0.4173
 3253TIP3   OH231173   4.468   3.732  11.326  0.0484 -0.2231 -0.1222
 3253TIP3    H131174   4.443   3.668  11.392 -2.2339 -0.4934 -1.1931
 3253TIP3    H231175   4.564   3.729  11.325  0.0543 -1.7530  1.6301
 3254TIP3   OH231176   5.740   1.691   5.821  0.4623  0.6974 -0.1541
 3254TIP3    H131177   5.817   1.647   5.784 -1.2217 -1.4529 -1.1990
 3254TIP3    H231178   5.725   1.647   5.904 -0.2813  0.3700 -0.4587
 3255TIP3   OH231179   5.852   4.157  15.731  0.0340 -0.4216  0.1041
 3255TIP3    H131180   5.886   4.245  15.711 -1.1063 -0.0925 -0.4527
 3255TIP3    H231181   5.776   4.173  15.786 -1.6946 -0.9139 -2.0845
 3256TIP3   OH231182   5.340   2.844  12.358  0.1997  0.0637  1.1564
 3256TIP3    H131183   5.370   2.935  12.352  0.4716 -0.0155  1.3229
 3256TIP3    H231184   5.395   2.795  12.298  0.5923 -0.1275  1.6705
 3257TIP3   OH231185   5.446   2.591   5.569 -0.4410  0.0030 -0.2097
 3257TIP3    H131186   5.540   2.589   5.549 -0.4139  0.7119 -0.1749
 3257TIP3    H231187   5.419   2.680   5.546 -0.5228  0.6896  2.3711
 3258TIP3   OH231188   5.661   2.297  12.810  0.0835 -0.2719  0.2592
 3258TIP3    H131189   5.705   2.279  12.727  0.8319 -1.8950  0.9891
 3258TIP3    H231190   5.666   2.215  12.858 -1.7353  0.1966  1.2924
 3259TIP3   OH231191   5.251   1.310   1.456 -0.3508 -0.0866 -0.4490
 3259TIP3    H131192   5.246   1.243   1.387  0.3781 -0.8665  0.2497
 3259TIP3    H231193   5.203   1.272   1.530  0.0789  0.1501 -0.0477
 3260TIP3   OH231194   0.129   0.137   5.760  0.2449 -0.0672 -0.4420
 3260TIP3    H131195   0.139   0.048   5.726  1.9125  0.1581 -0.5727
 3260TIP3    H231196   0.218   0.173   5.759 -0.4533  1.6767 -0.5976
 3261TIP3   OH231197   5.333   5.017  12.120  0.2017 -0.1880 -0.0804
 3261TIP3    H131198   5.332   5.060  12.206 -0.8724  2.0628 -1.1747
 3261TIP3    H231199   5.266   4.949  12.128  0.5605 -0.4270  1.0611
 3262TIP3   OH231200   0.154   6.101  15.639  0.2710  0.5737  0.0098
 3262TIP3    H131201   0.082   6.057  15.683 -1.1281  1.5203 -1.2989
 3262TIP3    H231202   0.230   6.045  15.656 -1.3082 -1.9379 -0.9435
 3263TIP3   OH231203   4.010   3.702  14.125 -0.3267 -0.3539  0.3865
 3263TIP3    H131204   3.973   3.718  14.212  0.9507  1.1728  0.6793
 3263TIP3    H231205   4.061   3.621  14.135  1.2974  0.7695  1.5726
 3264TIP3   OH231206   3.454   5.546  16.443  0.0894 -1.1965  0.4590
 3264TIP3    H131207   3.433   5.570  16.352 -0.4287 -1.4020  0.5200
 3264TIP3    H231208   3.369   5.551  16.488  0.7106  1.1870  1.4465
 3265TIP3   OH231209   4.817   6.537   5.703  0.1826  0.6584 -0.4549
 3265TIP3    H131210   4.894   6.572   5.747 -1.8525  1.4067  2.6612
 3265TIP3    H231211   4.806   6.593   5.626  1.7920  1.5529 -0.0543
 3266TIP3   OH231212   2.240   5.021   1.498 -0.1110  0.4273  0.1995
 3266TIP3    H131213   2.179   4.969   1.549 -0.1404  0.7364  0.4781
 3266TIP3    H231214   2.192   5.100   1.475  0.6476  1.3494  1.6720
 3267TIP3   OH231215   6.444   3.582  13.547  0.4949 -0.0022  0.3173
 3267TIP3    H131216   6.454   3.507  13.606 -2.1658  0.3779  1.3199
 3267TIP3    H231217   6.389   3.643  13.595  0.8605  1.6938 -1.3573
 3268TIP3   OH231218   3.213   4.351   3.911  0.0427 -0.4837  0.6156
 3268TIP3    H131219   3.285   4.330   3.851 -0.1793 -1.2037  0.5980
 3268TIP3    H231220   3.255   4.398   3.983  0.9379 -3.1623  1.8842
 3269TIP3   OH231221   3.706   2.487   3.173  0.1677  0.0374  0.5647
 3269TIP3    H131222   3.632   2.427   3.186  0.4018 -0.5346 -0.6693
 3269TIP3    H231223   3.698   2.550   3.245 -3.0244  1.5572 -0.9816
 3270TIP3   OH231224   4.391   5.920   5.274  1.1026 -0.0073 -0.1443
 3270TIP3    H131225   4.312   5.974   5.273 -0.4496 -2.0519  2.6251
 3270TIP3    H231226   4.377   5.855   5.206  1.4717  1.0425 -1.2333
 3271TIP3   OH231227   6.183   2.343   3.341  0.4572 -0.2106  0.4787
 3271TIP3    H131228   6.190   2.248   3.338  0.3523 -0.1671 -1.8847
 3271TIP3    H231229   6.273   2.374   3.329  0.2338  0.0039 -0.6667
 3272TIP3   OH231230   0.623   4.140   2.731 -0.3593  0.4461 -0.1341
 3272TIP3    H131231   0.659   4.210   2.677 -0.3976 -0.6212 -1.5698
 3272TIP3    H231232   0.529   4.140   2.712 -0.3643  0.0226 -0.1169
 3273TIP3   OH231233   4.759   6.499   3.040 -0.4363 -0.1456 -0.0952
 3273TIP3    H131234   4.725   6.575   2.992 -0.5926 -0.7586 -0.9718
 3273TIP3    H231235   4.710   6.425   3.005  0.9370 -0.8719 -0.4937
 3274TIP3   OH231236   1.285   0.439  13.808 -0.0320 -0.2988 -0.7019
 3274TIP3    H131237   1.234   0.365  13.775  1.0065 -0.5549 -1.7920
 3274TIP3    H231238   1.315   0.411  13.894 -0.5579 -0.7051 -0.6470
 3275TIP3   OH231239   5.036   2.131  13.078  0.5965  0.2819  0.3768
 3275TIP3    H131240   5.064   2.143  13.169 -1.2130  2.0193  0.7622
 3275TIP3    H231241   5.095   2.187  13.027  1.6190 -0.7023  0.4592
 3276TIP3   OH231242   5.457   4.333  16.225  0.3945  0.2249 -0.2376
 3276TIP3    H131243   5.449   4.412  16.172  0.4324 -0.2612 -0.9593
 3276TIP3    H231244   5.368   4.318  16.259  1.1611  2.8636  3.1892
 3277TIP3   OH231245   5.472   0.023   2.634 -0.6978 -0.0891 -0.4989
 3277TIP3    H131246   5.473  -0.055   2.689 -1.2325  0.7030  0.6506
 3277TIP3    H231247   5.379   0.038   2.616 -0.5424 -0.2489 -1.5058
 3278TIP3   OH231248   0.238   1.853  13.826  0.3855  0.6552  1.3079
 3278TIP3    H131249   0.271   1.920  13.767  0.3914  0.1748  0.7558
 3278TIP3    H231250   0.153   1.829  13.790  1.4682 -1.4456 -0.0024
 3279TIP3   OH231251   0.970   1.580   6.272  0.1590 -0.9291  0.1762
 3279TIP3    H131252   0.993   1.571   6.365  1.0356  1.0133  0.1686
 3279TIP3    H231253   0.889   1.531   6.263 -0.9242  0.3620  2.3952
 3280TIP3   OH231254   0.772   1.791  13.110 -0.4599  0.2397  0.3643
 3280TIP3    H131255   0.823   1.711  13.122 -0.6094 -0.0572 -0.8773
 3280TIP3    H231256   0.717   1.773  13.034 -0.5938  1.4786  0.1564
 3281TIP3   OH231257   0.493   2.179  14.679  0.2522  0.0445 -0.4533
 3281TIP3    H131258   0.560   2.139  14.735  0.2713 -0.9108 -1.1510
 3281TIP3    H231259   0.447   2.240  14.737  1.5716  0.5335  0.0913
 3282TIP3   OH231260   3.735   5.725  10.561 -0.1664 -0.4937 -0.4086
 3282TIP3    H131261   3.765   5.748  10.473 -0.9356  0.4577 -0.4266
 3282TIP3    H231262   3.658   5.779  10.575  1.6546  1.5832  2.0082
 3283TIP3   OH231263   1.065   4.330  16.755 -0.4871  0.2223 -0.0472
 3283TIP3    H131264   1.069   4.425  16.755  0.6276  0.1995 -1.4801
 3283TIP3    H231265   1.146   4.303  16.712  0.3576 -1.4389  2.4096
 3284TIP3   OH231266   4.260   1.196   4.117  0.4888 -0.4889 -0.2889
 3284TIP3    H131267   4.256   1.222   4.209 -0.1615 -1.1498 -0.1310
 3284TIP3    H231268   4.309   1.115   4.116 -0.5938 -1.1542 -0.3772
 3285TIP3   OH231269   1.033   2.550   1.792 -0.2632 -0.0395 -0.1340
 3285TIP3    H131270   1.122   2.532   1.762 -0.6126 -0.6711 -0.8199
 3285TIP3    H231271   1.043   2.618   1.859  0.4956  1.7825 -2.0241
 3286TIP3   OH231272   1.208   0.784   3.805 -0.3805  0.5140 -0.1533
 3286TIP3    H131273   1.260   0.752   3.878 -1.5004 -3.0579 -0.7934
 3286TIP3    H231274   1.128   0.817   3.845 -0.0320  0.6846  0.4012
 3287TIP3   OH231275   2.262   4.365   0.492  0.5205 -0.0988  0.1868
 3287TIP3    H131276   2.251   4.340   0.584 -0.9736 -1.6154 -0.3773
 3287TIP3    H231277   2.226   4.454   0.487  1.2007  0.2369  1.1880
 3288TIP3   OH231278   5.867   3.882  11.172 -0.7952  0.1359  0.3748
 3288TIP3    H131279   5.951   3.926  11.186  0.3462 -2.1224  0.8109
 3288TIP3    H231280   5.802   3.947  11.196  0.8679  1.1616  2.2833
 3289TIP3   OH231281   0.497   1.955  14.210  0.0480 -0.7672  0.2290
 3289TIP3    H131282   0.459   1.994  14.289  1.1428 -0.6445  0.7053
 3289TIP3    H231283   0.530   1.870  14.240 -1.2953 -1.5902 -0.5526
 3290TIP3   OH231284   1.549   1.106   2.728 -0.2429 -0.0141  0.5892
 3290TIP3    H131285   1.537   1.166   2.801 -0.3963  0.6534  0.0154
 3290TIP3    H231286   1.551   1.162   2.650 -2.3058 -0.8939 -0.1375
 3291TIP3   OH231287   3.111   5.861  16.099 -0.3360 -0.5141 -0.4723
 3291TIP3    H131288   3.016   5.878  16.105 -0.5486 -1.6549 -0.5066
 3291TIP3    H231289   3.124   5.784  16.154  1.1633  1.7563  2.5459
 3292TIP3   OH231290   2.623   5.504  13.449  0.1478  0.1173 -0.2108
 3292TIP3    H131291   2.693   5.455  13.405  0.3372 -0.7060  0.9799
 3292TIP3    H231292   2.612   5.459  13.533 -0.0816  1.7869  0.6543
 3293TIP3   OH231293   4.719   2.570   6.427  0.3440 -0.1731 -0.4299
 3293TIP3    H131294   4.770   2.492   6.449 -0.3743 -0.1264  1.5737
 3293TIP3    H231295   4.631   2.536   6.409  0.1170  0.1346  0.0959
 3294TIP3   OH231296   4.261   3.143  11.518  0.0256 -0.4155  0.3910
 3294TIP3    H131297   4.356   3.151  11.532 -0.0562  1.3982  0.1027
 3294TIP3    H231298   4.223   3.191  11.591 -0.6940 -1.6501  0.8309
 3295TIP3   OH231299   6.266   3.619  15.269 -0.5259  0.3935 -0.6322
 3295TIP3    H131300   6.219   3.647  15.347 -0.6601 -2.0555  0.2246
 3295TIP3    H231301   6.353   3.657  15.278 -1.3201  2.2501 -0.5986
 3296TIP3   OH231302   6.689   6.268   1.155 -0.0125 -0.3223 -0.1249
 3296TIP3    H131303   6.710   6.235   1.242 -4.0710  0.3415  1.2365
 3296TIP3    H231304   6.669   6.190   1.103  1.9029 -0.6806 -0.3710
 3297TIP3   OH231305   5.773   1.910   4.051  0.0637  0.1600  0.1150
 3297TIP3    H131306   5.857   1.949   4.077 -0.5313  0.7888  1.1119
 3297TIP3    H231307   5.723   1.904   4.132 -0.8962 -0.1267 -0.4961
 3298TIP3   OH231308   2.065   4.719   2.102 -0.4261 -0.5804  0.3184
 3298TIP3    H131309   2.107   4.740   2.019  1.1586 -1.4595  0.8728
 3298TIP3    H231310   1.978   4.688   2.078 -0.8770  1.5220 -0.8330
 3299TIP3   OH231311   2.076   1.236   0.718  0.1926 -0.4313  0.0994
 3299TIP3    H131312   1.988   1.262   0.691  0.7659  1.4450 -0.0775
 3299TIP3    H231313   2.092   1.154   0.673 -0.3301  0.7203 -2.2677
 3300TIP3   OH231314   3.010   3.889   3.628 -0.0726  0.0578  0.1049
 3300TIP3    H131315   3.031   3.801   3.659 -0.5707  0.0209  0.3315
 3300TIP3    H231316   2.967   3.876   3.544  0.3040  0.1092 -0.0973
 3301TIP3   OH231317   5.150   5.497   1.625  0.6601 -0.1616 -0.1950
 3301TIP3    H131318   5.114   5.487   1.537  1.0535 -0.7171 -0.2937
 3301TIP3    H231319   5.221   5.561   1.615 -0.0266  0.6389 -0.0691
 3302TIP3   OH231320   4.306   4.626   3.511 -0.2944  0.2977  0.2194
 3302TIP3    H131321   4.365   4.624   3.586 -2.3791 -0.1762  1.9015
 3302TIP3    H231322   4.353   4.675   3.444  0.4133  3.4508  2.8858
 3303TIP3   OH231323   0.049   1.143   0.878  0.0781  0.1965 -0.2091
 3303TIP3    H131324   0.048   1.238   0.889  0.6306  0.3225 -1.1623
 3303TIP3    H231325   0.111   1.112   0.944 -1.6246  0.2938  1.4735
 3304TIP3   OH231326   6.599   3.462   1.206 -0.1506 -0.1126 -0.2220
 3304TIP3    H131327   6.598   3.421   1.120  2.9842  2.0045 -1.3574
 3304TIP3    H231328   6.596   3.556   1.188 -1.7586  0.3270  2.0966
 3305TIP3   OH231329   4.987   0.361  14.300 -0.0584  0.0021  0.7655
 3305TIP3    H131330   4.954   0.274  14.322  0.5035 -0.7244 -1.1479
 3305TIP3    H231331   5.077   0.362  14.333 -0.1791 -0.0199  1.0930
 3306TIP3   OH231332   0.142   1.577  12.958  0.2781  0.2377  0.4093
 3306TIP3    H131333   0.212   1.606  12.899  2.0107 -0.7415  1.9086
 3306TIP3    H231334   0.066   1.627  12.931  1.3052  0.6364 -1.9187
 3307TIP3   OH231335   3.188   6.092  12.037 -0.8305 -0.3992  0.0971
 3307TIP3    H131336   3.254   6.038  12.082 -0.0144  0.6303  0.1437
 3307TIP3    H231337   3.174   6.166  12.096 -0.1604  0.6798 -1.0816
 3308TIP3   OH231338   5.147   6.392  11.220  0.1541  0.3921 -1.1603
 3308TIP3    H131339   5.117   6.452  11.152  2.1661 -1.1957 -3.5286
 3308TIP3    H231340   5.237   6.371  11.196  0.7483 -0.6581  1.7040
 3309TIP3   OH231341   1.256   6.679   3.731  0.1026 -0.1930  0.0719
 3309TIP3    H131342   1.224   6.743   3.794 -0.4415 -1.7900  1.4604
 3309TIP3    H231343   1.213   6.703   3.649  0.0977  1.3485  0.5131
 3310TIP3   OH231344   0.691   3.275  14.267  0.2501  0.5694  0.3129
 3310TIP3    H131345   0.612   3.306  14.311  0.8270 -2.2703  3.6154
 3310TIP3    H231346   0.760   3.335  14.295 -0.0151  0.7967  0.4789
 3311TIP3   OH231347   3.726   5.791   0.800 -0.3618  0.6411  0.0373
 3311TIP3    H131348   3.788   5.779   0.728 -1.1753 -1.3620 -0.3541
 3311TIP3    H231349   3.781   5.791   0.879  0.2216 -0.3374 -0.3587
 3312TIP3   OH231350   2.274   5.750   0.435 -0.4398  0.0919  0.1416
 3312TIP3    H131351   2.276   5.675   0.376 -0.1358  0.6661 -0.5835
 3312TIP3    H231352   2.310   5.718   0.517  1.0969 -0.1588 -0.6222
 3313TIP3   OH231353   4.517   4.622  16.881  0.2854 -0.0058  0.5644
 3313TIP3    H131354   4.532   4.717  16.881  0.8992 -0.0997 -0.1264
 3313TIP3    H231355   4.422   4.613  16.890  0.2699  0.6593  1.1578
 3314TIP3   OH231356   4.911   0.733  10.874  0.2165  0.1647  0.7906
 3314TIP3    H131357   4.952   0.650  10.853 -0.9149 -0.1225 -0.3255
 3314TIP3    H231358   4.976   0.780  10.927  1.6028 -0.6426 -0.2026
 3315TIP3   OH231359   4.915   2.396  13.258  0.0781  0.0290 -0.2891
 3315TIP3    H131360   4.934   2.311  13.298 -1.2771  0.1740  0.6736
 3315TIP3    H231361   4.998   2.422  13.218  1.0988 -0.7685  1.2389
 3316TIP3   OH231362   5.560   0.052   1.231 -0.3495 -0.2223  0.5352
 3316TIP3    H131363   5.473   0.034   1.268 -0.3989  0.4486  0.7650
 3316TIP3    H231364   5.594  -0.034   1.205 -1.5045 -0.3761 -0.5116
 3317TIP3   OH231365   4.158   1.435   5.153 -0.4209  0.0165  0.2080
 3317TIP3    H131366   4.194   1.517   5.118 -0.9615  0.5981  0.9944
 3317TIP3    H231367   4.138   1.383   5.075  2.7332 -0.6102 -0.2377
 3318TIP3   OH231368   6.119   3.238   5.314 -0.1553  0.3216  0.2816
 3318TIP3    H131369   6.102   3.159   5.365  1.6281 -1.5178 -1.8757
 3318TIP3    H231370   6.213   3.235   5.296  0.1395  3.4214  0.9063
 3319TIP3   OH231371   2.238   2.750  10.581  0.1768  0.0446 -0.6613
 3319TIP3    H131372   2.293   2.687  10.629 -1.1958 -0.9309 -0.3594
 3319TIP3    H231373   2.160   2.701  10.557  0.8002  0.5528 -3.8828
 3320TIP3   OH231374   3.631   0.713  16.736 -0.2553  0.3070 -0.0003
 3320TIP3    H131375   3.713   0.682  16.773 -0.7396 -1.0111 -0.0320
 3320TIP3    H231376   3.566   0.697  16.804 -0.9076 -0.8939 -0.8891
 3321TIP3   OH231377   6.187   4.015   1.503  0.2851  0.1476 -0.3726
 3321TIP3    H131378   6.231   3.982   1.424  0.6582 -1.6162  0.5351
 3321TIP3    H231379   6.222   3.960   1.573 -0.6363  1.1878  0.9019
 3322TIP3   OH231380   4.530   3.594   1.309 -0.1136  0.0545 -0.2102
 3322TIP3    H131381   4.614   3.593   1.262  0.2011 -2.0729  0.3777
 3322TIP3    H231382   4.470   3.639   1.249  1.4629  1.7750 -0.5582
 3323TIP3   OH231383   4.571   3.991   5.292 -0.0947 -0.0485 -0.4742
 3323TIP3    H131384   4.533   3.911   5.326 -0.8314 -0.1225 -1.4672
 3323TIP3    H231385   4.497   4.039   5.254  0.4268  0.8550 -0.3769
 3324TIP3   OH231386   4.604   4.897   1.483  0.4962  0.3688  0.3149
 3324TIP3    H131387   4.622   4.817   1.533 -0.2479  0.7702  1.2390
 3324TIP3    H231388   4.599   4.867   1.392  1.6325 -0.4122  0.4904
 3325TIP3   OH231389   5.754   2.740  15.938 -0.2186  0.3351  0.0557
 3325TIP3    H131390   5.845   2.767  15.950 -0.0029 -1.0574  1.7520
 3325TIP3    H231391   5.753   2.694  15.854  0.7162  0.0843  0.1766
 3326TIP3   OH231392   1.418   6.546   4.321  0.1646 -0.9987  0.3955
 3326TIP3    H131393   1.422   6.570   4.414  0.9210 -0.9066  0.3436
 3326TIP3    H231394   1.339   6.493   4.313 -0.1299 -0.6595  1.0137
 3327TIP3   OH231395   3.030   3.781  13.286  0.5190 -0.2557  0.3043
 3327TIP3    H131396   3.122   3.760  13.269  0.2883 -1.9938  1.1427
 3327TIP3    H231397   2.982   3.703  13.260 -0.7830  0.7824 -0.4928
 3328TIP3   OH231398   2.447   0.025  15.435  0.2276  0.1235 -0.3818
 3328TIP3    H131399   2.465   0.034  15.341 -1.9171  0.0655 -0.8183
 3328TIP3    H231400   2.371   0.082  15.451 -1.1855 -2.0012  0.7280
 3329TIP3   OH231401   3.416   6.353   2.926  0.6319  0.2094  0.6277
 3329TIP3    H131402   3.443   6.295   2.997  0.8693  0.9236  1.1225
 3329TIP3    H231403   3.454   6.313   2.847  0.8689 -0.2556  0.9777
 3330TIP3   OH231404   4.766   0.546  16.088 -0.3513  0.2448 -0.6528
 3330TIP3    H131405   4.857   0.562  16.114 -0.1847 -0.8317 -0.5426
 3330TIP3    H231406   4.764   0.453  16.066 -1.4783  0.2320 -0.4908
 3331TIP3   OH231407   6.126   2.693  11.548 -0.0794  0.3528 -0.1402
 3331TIP3    H131408   6.116   2.622  11.611 -1.1925  1.4366  0.9267
 3331TIP3    H231409   6.214   2.728  11.564  0.1934 -0.3046 -0.1878
 3332TIP3   OH231410   1.486   6.443   2.171  0.0812  0.4951 -0.1276
 3332TIP3    H131411   1.546   6.400   2.232 -0.7951  1.5168  1.4819
 3332TIP3    H231412   1.534   6.520   2.141 -0.7460  1.8322  1.8890
 3333TIP3   OH231413   1.311   5.013  12.382 -0.2167  0.0311 -0.7572
 3333TIP3    H131414   1.285   5.085  12.324  1.5228  1.8024  0.5565
 3333TIP3    H231415   1.406   5.005  12.368  0.2790  0.6977  2.0125
 3334TIP3   OH231416   4.628   4.787  14.610  0.6287  0.3812 -0.0432
 3334TIP3    H131417   4.584   4.852  14.665 -1.2123 -1.1356  0.3538
 3334TIP3    H231418   4.568   4.772  14.537  1.4031 -0.2600 -0.5613
 3335TIP3   OH231419   5.484   6.528   0.264 -0.9096 -0.1265 -0.1601
 3335TIP3    H131420   5.497   6.516   0.170 -3.6009 -0.9877 -0.4455
 3335TIP3    H231421   5.517   6.448   0.303 -0.1840  0.0535 -0.3998
 3336TIP3   OH231422   4.051   6.400  11.039 -1.1148  0.0630  0.3947
 3336TIP3    H131423   3.966   6.443  11.030 -0.5162  1.0854 -0.6266
 3336TIP3    H231424   4.057   6.342  10.963 -0.8386  0.1067  0.3827
 3337TIP3   OH231425   6.147   2.946  14.541 -0.5215 -0.7149 -0.4396
 3337TIP3    H131426   6.156   2.862  14.495 -0.5239 -1.7947  1.4782
 3337TIP3    H231427   6.215   2.944  14.608  0.1413  1.2837 -1.0112
 3338TIP3   OH231428   1.246   2.428   2.461 -0.4277 -0.0462  1.2018
 3338TIP3    H131429   1.233   2.333   2.468  1.1764 -0.4559 -0.7819
 3338TIP3    H231430   1.341   2.439   2.455 -0.5397  1.7826  2.3789
 3339TIP3   OH231431   5.049   6.655  16.243 -0.1330  0.2814  0.1644
 3339TIP3    H131432   4.971   6.710  16.251  0.4213  0.8910  1.5765
 3339TIP3    H231433   5.018   6.575  16.200 -1.1613  1.2538 -0.9065
 3340TIP3   OH231434   4.615   2.912   3.266 -0.2429  0.1107  0.8640
 3340TIP3    H131435   4.571   2.996   3.271 -1.6325 -0.6175  1.1391
 3340TIP3    H231436   4.699   2.926   3.309 -2.3238  0.1348  5.2112
 3341TIP3   OH231437   4.032   1.535   0.653 -0.4037 -0.7001 -0.7492
 3341TIP3    H131438   4.079   1.457   0.680 -0.9061 -0.8003 -0.1310
 3341TIP3    H231439   3.948   1.503   0.620 -1.2747 -0.3399  1.0113
 3342TIP3   OH231440   2.028   2.695  13.260 -0.1291 -0.0655 -0.5767
 3342TIP3    H131441   2.041   2.693  13.355  1.1683 -0.8358 -0.7437
 3342TIP3    H231442   1.935   2.676  13.248 -0.1405 -0.7864  0.5120
 3343TIP3   OH231443   5.284   1.763  13.339  0.0878 -0.0892  0.3684
 3343TIP3    H131444   5.257   1.677  13.306 -0.2997  0.6364 -1.2561
 3343TIP3    H231445   5.291   1.817  13.261  0.1130  1.4205  1.4042
 3344TIP3   OH231446   3.590   0.836  12.625 -0.1620  0.8935 -0.1546
 3344TIP3    H131447   3.527   0.817  12.694 -0.5968  0.0203 -0.7865
 3344TIP3    H231448   3.579   0.765  12.562  3.3560 -0.8110  1.0263
 3345TIP3   OH231449   5.815   4.144  14.693  0.7265  0.0432 -0.7684
 3345TIP3    H131450   5.903   4.112  14.713  1.0601  1.7874  0.6802
 3345TIP3    H231451   5.756   4.078  14.729  1.4189 -0.1818 -0.0398
 3346TIP3   OH231452   2.737   4.148   0.539  0.1331 -0.2027 -0.1298
 3346TIP3    H131453   2.723   4.086   0.467 -0.8499 -0.7571  0.5318
 3346TIP3    H231454   2.832   4.147   0.553  0.3977  0.3517 -1.8045
 3347TIP3   OH231455   6.441   0.328  13.700 -0.0332  0.2526 -0.1580
 3347TIP3    H131456   6.371   0.342  13.636  1.3552  1.9368 -1.3401
 3347TIP3    H231457   6.502   0.400  13.686  2.1521 -1.3709  0.5889
 3348TIP3   OH231458   0.050   5.886   5.664 -0.0907  0.1583  0.1075
 3348TIP3    H131459   0.070   5.794   5.648  1.9228  0.5521  0.1889
 3348TIP3    H231460   0.083   5.903   5.752 -0.8809  0.8445  0.2794
 3349TIP3   OH231461   2.057   5.495   0.603 -0.3981  0.1307  0.0165
 3349TIP3    H131462   2.134   5.455   0.643  0.8627  1.9634 -0.5159
 3349TIP3    H231463   2.077   5.499   0.510 -2.5245 -2.3365 -0.6316
 3350TIP3   OH231464   6.543   5.143   4.321 -0.2032 -0.3708  0.2487
 3350TIP3    H131465   6.448   5.133   4.323 -0.2375  0.0481  1.5863
 3350TIP3    H231466   6.569   5.145   4.413  1.3290 -2.4303 -0.1011
 3351TIP3   OH231467   3.809   0.848  16.334  0.0304 -0.1763 -0.0120
 3351TIP3    H131468   3.844   0.856  16.246  0.7675 -1.5077  0.1490
 3351TIP3    H231469   3.716   0.869  16.325  0.5888  2.1980 -0.6564
 3352TIP3   OH231470   3.644   1.966  13.554  0.1366 -0.0084  0.0766
 3352TIP3    H131471   3.620   1.874  13.542 -1.7864  0.1429  2.2743
 3352TIP3    H231472   3.567   2.014  13.525  0.2122  0.7998  1.1999
 3353TIP3   OH231473   3.120   0.390   0.271 -0.2793 -0.0063 -0.2251
 3353TIP3    H131474   3.138   0.476   0.233  1.5012 -0.8698 -1.3890
 3353TIP3    H231475   3.059   0.408   0.342 -0.1407  2.1902 -0.6194
 3354TIP3   OH231476   1.497   4.346   4.969 -0.2535  0.5036 -0.4726
 3354TIP3    H131477   1.568   4.366   5.029 -0.4711  2.0073 -0.7056
 3354TIP3    H231478   1.423   4.397   5.001 -1.7239 -2.2186  0.6877
 3355TIP3   OH231479   3.623   3.287   5.557  0.5243  0.5343 -0.1915
 3355TIP3    H131480   3.683   3.216   5.579  1.4863  1.4351  0.1193
 3355TIP3    H231481   3.550   3.244   5.511 -0.3620 -1.0560  2.6196
 3356TIP3   OH231482   4.716   2.191  16.392  0.2024  0.2849  0.7167
 3356TIP3    H131483   4.701   2.281  16.422  1.5733  0.7451  0.0445
 3356TIP3    H231484   4.691   2.137  16.467 -0.9736  1.1961  1.0076
 3357TIP3   OH231485   2.200   4.624  12.870 -0.0697 -0.3456  0.1513
 3357TIP3    H131486   2.221   4.535  12.898  2.1475  0.2281  0.4133
 3357TIP3    H231487   2.187   4.672  12.951 -1.2966 -0.4302  0.0080
 3358TIP3   OH231488   6.786   0.636  12.271 -0.0335 -0.1470  0.0107
 3358TIP3    H131489   6.692   0.644  12.259 -0.0843  0.2200  0.6735
 3358TIP3    H231490   6.824   0.667  12.188 -0.5092 -0.8404 -0.4748
 3359TIP3   OH231491   4.862   5.453   5.664 -0.2070  0.3123 -0.2861
 3359TIP3    H131492   4.819   5.449   5.578  0.4145  0.7682 -0.6200
 3359TIP3    H231493   4.955   5.464   5.644 -0.0089 -0.0461  0.4445
 3360TIP3   OH231494   1.819   1.742   0.092 -0.6264  0.1558  0.6205
 3360TIP3    H131495   1.911   1.756   0.112 -0.8490  1.4165  0.8212
 3360TIP3    H231496   1.815   1.740  -0.004 -0.4519  0.5373  0.6044
 3361TIP3   OH231497   0.673   0.863   6.027 -0.5657  0.0759 -0.3131
 3361TIP3    H131498   0.709   0.872   6.116 -3.8538  0.3253  1.0721
 3361TIP3    H231499   0.744   0.826   5.976  1.5812  0.4076  2.3238
 3362TIP3   OH231500   4.967   6.350   3.607 -0.0903 -0.0369 -0.3779
 3362TIP3    H131501   4.912   6.337   3.684 -0.6806 -0.5168 -0.8755
 3362TIP3    H231502   5.010   6.265   3.594  1.0413  0.4322  0.2104
 3363TIP3   OH231503   3.666   1.317  11.295 -0.1106 -0.1820 -0.0471
 3363TIP3    H131504   3.587   1.284  11.252 -0.8006  0.0778  0.9757
 3363TIP3    H231505   3.665   1.275  11.381 -0.1477  1.2504  0.6735
 3364TIP3   OH231506   6.320   5.312   1.000  0.4219 -0.4235  0.1631
 3364TIP3    H131507   6.389   5.269   1.049 -0.4990 -0.0411  1.8182
 3364TIP3    H231508   6.238   5.282   1.040 -0.4142 -1.2241 -2.0491
 3365TIP3   OH231509   2.067   6.497  13.543  0.1397  0.4454  0.6055
 3365TIP3    H131510   2.113   6.424  13.502  1.4510  0.7956  1.4123
 3365TIP3    H231511   1.981   6.497  13.502  0.6667 -0.5634 -0.5468
 3366TIP3   OH231512   0.237   3.472   4.394 -0.2583  0.1425 -0.4417
 3366TIP3    H131513   0.235   3.555   4.442 -0.7326  0.5794 -1.2041
 3366TIP3    H231514   0.329   3.449   4.389 -0.4044 -1.5152  3.3952
 3367TIP3   OH231515   3.015   0.596   1.118  0.3958 -0.7217 -0.5074
 3367TIP3    H131516   3.068   0.613   1.196  1.1826  0.6815 -1.3129
 3367TIP3    H231517   2.925   0.616   1.145  0.9789  2.3477 -0.6558
 3368TIP3   OH231518   4.125   6.750   0.906 -0.4884  0.3802 -0.0932
 3368TIP3    H131519   4.091   6.714   0.988  2.5527  1.7893  1.8545
 3368TIP3    H231520   4.209   6.706   0.894 -0.6080  0.6677 -2.1515
 3369TIP3   OH231521   5.161   0.098  16.962  1.2436  0.3235  0.3554
 3369TIP3    H131522   5.171   0.167  16.897  2.3283 -1.5080 -1.5067
 3369TIP3    H231523   5.150   0.018  16.910 -1.5794 -0.7257  2.4285
 3370TIP3   OH231524   4.967   0.463  14.775 -0.2942 -0.1163 -0.6385
 3370TIP3    H131525   4.999   0.549  14.749  0.4963 -0.1161  0.2647
 3370TIP3    H231526   5.042   0.405  14.764 -1.1867 -0.9453 -2.4502
 3371TIP3   OH231527   3.701   0.043   3.131 -0.0655  0.0980 -0.2138
 3371TIP3    H131528   3.625   0.066   3.185  1.0077  1.2624  0.8295
 3371TIP3    H231529   3.720  -0.047   3.155 -2.0579 -0.7523 -1.6379
 3372TIP3   OH231530   2.593   3.314   4.576 -0.5715 -0.0549 -0.3490
 3372TIP3    H131531   2.593   3.279   4.665 -0.1055 -1.2577 -0.8133
 3372TIP3    H231532   2.663   3.265   4.531 -1.2623  0.0533 -1.5559
 3373TIP3   OH231533   6.309   2.476  15.554 -0.4835 -0.5545  0.2725
 3373TIP3    H131534   6.351   2.401  15.596 -1.2215 -0.0062  2.0822
 3373TIP3    H231535   6.319   2.461  15.460  1.3961 -1.7530  0.6391
 3374TIP3   OH231536   0.716   1.609   1.797  0.4584 -0.2397 -0.1268
 3374TIP3    H131537   0.630   1.598   1.838  0.9054 -1.1066  0.5929
 3374TIP3    H231538   0.779   1.598   1.869  1.1494  1.1389 -0.5008
 3375TIP3   OH231539   2.132   3.790  12.470 -0.3327 -0.2074 -0.0380
 3375TIP3    H131540   2.115   3.877  12.436  1.2021 -0.0158 -0.3711
 3375TIP3    H231541   2.157   3.738  12.393 -0.7158 -0.7955  0.2288
 3376TIP3   OH231542   6.744   5.329  14.201 -0.4987 -0.5499  0.2804
 3376TIP3    H131543   6.740   5.405  14.142  4.8669 -0.2948  0.0232
 3376TIP3    H231544   6.743   5.253  14.144  2.0176 -0.3654 -0.0827
 3377TIP3   OH231545   1.527   1.701  11.609  0.2442 -0.0049  0.0395
 3377TIP3    H131546   1.598   1.638  11.620  0.0269 -0.6498 -2.0177
 3377TIP3    H231547   1.565   1.785  11.634  1.5140 -0.4465 -0.3868
 3378TIP3   OH231548   0.706   1.606  16.868  0.0577 -0.4428 -0.1414
 3378TIP3    H131549   0.767   1.658  16.920 -0.7140  1.2466 -0.8681
 3378TIP3    H231550   0.760   1.570  16.797  0.1239  1.6245 -1.1910
 3379TIP3   OH231551   0.942   2.729  16.311  0.3597 -0.5686  0.6199
 3379TIP3    H131552   0.867   2.707  16.257 -0.1713 -0.7152  1.4100
 3379TIP3    H231553   1.008   2.759  16.249 -0.5038 -0.0076 -0.0417
 3380TIP3   OH231554   4.989   4.844  11.882 -0.4779  0.3506  0.1962
 3380TIP3    H131555   4.936   4.828  11.804  0.7312  0.0141 -0.5672
 3380TIP3    H231556   5.073   4.876  11.848 -0.6511  2.1907  1.4507
 3381TIP3   OH231557   0.248   4.962   4.701  0.2352 -0.1515  0.3786
 3381TIP3    H131558   0.286   4.905   4.635  1.4628  0.8922  0.1569
 3381TIP3    H231559   0.155   4.938   4.704  0.3747 -0.8960 -0.9973
 3382TIP3   OH231560   5.619   4.336   4.847  0.5295  0.1694 -0.3760
 3382TIP3    H131561   5.614   4.395   4.923  0.5210 -0.2217 -0.0712
 3382TIP3    H231562   5.539   4.354   4.798 -0.7539 -1.4235  1.0653
 3383TIP3   OH231563   5.388   5.955  11.703 -0.0763  0.1027  0.2357
 3383TIP3    H131564   5.426   5.878  11.746 -0.3776 -0.3822 -0.3623
 3383TIP3    H231565   5.429   6.029  11.747 -0.6173 -0.3811  1.5804
 3384TIP3   OH231566   1.060   5.593  16.210 -0.3499  0.2749 -0.7148
 3384TIP3    H131567   1.016   5.607  16.126 -0.7199  0.1280 -0.5468
 3384TIP3    H231568   1.011   5.522  16.251 -0.6786  0.8962 -0.0264
 3385TIP3   OH231569   3.507   4.169  16.399  0.3596  0.5411  0.2548
 3385TIP3    H131570   3.493   4.255  16.437 -0.6432  0.2734  0.5115
 3385TIP3    H231571   3.422   4.126  16.404  0.4181  0.1899 -1.5184
 3386TIP3   OH231572   2.435   1.745   1.287  0.5685 -0.0677  0.4725
 3386TIP3    H131573   2.457   1.707   1.202 -0.3914  2.4070 -0.9468
 3386TIP3    H231574   2.424   1.839   1.269 -2.6092  0.0656  2.7325
 3387TIP3   OH231575   4.887   0.768   5.694 -0.0731  0.1751 -0.1339
 3387TIP3    H131576   4.978   0.772   5.664  0.8262 -1.0784  2.2856
 3387TIP3    H231577   4.866   0.858   5.718  0.7672  0.3658 -0.0941
 3388TIP3   OH231578   1.434   5.906   5.840  0.6602  0.3922 -0.0993
 3388TIP3    H131579   1.418   5.957   5.919  0.6325  1.5345 -0.8327
 3388TIP3    H231580   1.509   5.948   5.799  0.8006 -0.3206 -0.5757
 3389TIP3   OH231581   2.515   0.086  13.856  0.7415  0.1662  0.4131
 3389TIP3    H131582   2.482   0.133  13.933 -1.0152 -0.1469 -0.1268
 3389TIP3    H231583   2.468   0.003  13.857  0.7952  0.1111 -0.9180
 3390TIP3   OH231584   2.626   5.079  15.704  0.4742 -0.3315  0.8430
 3390TIP3    H131585   2.594   5.167  15.684 -3.2623 -2.5015 -3.6871
 3390TIP3    H231586   2.716   5.078  15.673  0.8112  2.1075  1.6648
 3391TIP3   OH231587   1.503   1.477  16.041 -0.1170  0.1541 -0.2342
 3391TIP3    H131588   1.445   1.450  15.970 -1.5501  1.3006  0.4964
 3391TIP3    H231589   1.549   1.396  16.066 -1.3238 -0.7336 -0.8581
 3392TIP3   OH231590   2.843   0.412  14.259 -0.1085 -0.3791  0.6493
 3392TIP3    H131591   2.936   0.420  14.236  0.4087  0.3887  2.8750
 3392TIP3    H231592   2.827   0.485  14.319 -2.1090 -0.6436  0.4674
 3393TIP3   OH231593   6.658   2.531   5.228 -0.4087  0.8310 -0.3129
 3393TIP3    H131594   6.717   2.495   5.161  0.2155  0.1980  0.5622
 3393TIP3    H231595   6.598   2.459   5.248  1.2490  0.0194  1.9076
 3394TIP3   OH231596   6.057   3.688   3.010  0.4495 -0.8198 -0.7525
 3394TIP3    H131597   6.088   3.772   3.043 -2.7936  1.0496 -2.3269
 3394TIP3    H231598   6.115   3.668   2.937  2.5273 -1.0351  0.8865
 3395TIP3   OH231599   2.651   3.380  16.759  0.1349 -0.1439 -0.1557
 3395TIP3    H131600   2.631   3.288  16.776  1.2167 -0.5242 -0.8644
 3395TIP3    H231601   2.695   3.379  16.674 -1.3830  1.2340 -0.9862
 3396TIP3   OH231602   5.420   2.982  15.998 -0.0891 -0.4985  0.1227
 3396TIP3    H131603   5.515   2.995  16.006 -0.0231 -1.0606  0.2833
 3396TIP3    H231604   5.410   2.887  15.991 -0.7344 -0.5165  1.2765
 3397TIP3   OH231605   3.425   4.954   2.258 -0.3370  0.2737  0.0015
 3397TIP3    H131606   3.441   4.946   2.352  1.8462  0.1184 -0.3533
 3397TIP3    H231607   3.375   5.035   2.248  0.8752  1.1751  1.1543
 3398TIP3   OH231608   1.734   1.073  15.000 -0.0334  0.1209  0.4486
 3398TIP3    H131609   1.723   0.983  15.032  1.8322 -0.0900  0.5408
 3398TIP3    H231610   1.787   1.065  14.921  2.2844  1.3220  1.8241
 3399TIP3   OH231611   6.696   6.635  12.632  0.3066 -0.0197 -0.9588
 3399TIP3    H131612   6.702   6.564  12.568  0.6491 -1.4066  0.5803
 3399TIP3    H231613   6.756   6.609  12.702  1.4709  2.4687 -0.9841
 3400TIP3   OH231614   4.998   4.070  11.428  0.7578 -0.0104 -0.3169
 3400TIP3    H131615   4.923   4.015  11.406  0.7241  0.2869 -0.9394
 3400TIP3    H231616   5.043   4.022  11.497  0.2804 -0.4360 -0.2960
 3401TIP3   OH231617   2.121   1.368  11.185 -0.5699 -0.4314 -0.3350
 3401TIP3    H131618   2.036   1.326  11.203 -0.5261 -0.8420 -1.0824
 3401TIP3    H231619   2.136   1.424  11.261 -1.0678 -1.0772  0.2471
 3402TIP3   OH231620   5.783   2.081   0.363 -0.6771  0.1916 -0.1283
 3402TIP3    H131621   5.759   1.989   0.378  1.1121 -0.4049 -0.7990
 3402TIP3    H231622   5.802   2.115   0.450  1.2985 -0.8460 -0.1258
 3403TIP3   OH231623   1.557   3.337   5.818 -0.5076 -0.0114  0.4365
 3403TIP3    H131624   1.589   3.274   5.882 -2.7452  0.4394  2.0584
 3403TIP3    H231625   1.546   3.418   5.867  1.8403  1.5381 -1.5088
 3404TIP3   OH231626   5.799   6.242   3.593 -0.6579  0.1029  0.0837
 3404TIP3    H131627   5.725   6.281   3.639 -1.4894 -1.3543 -0.0124
 3404TIP3    H231628   5.847   6.196   3.662 -0.0498  0.7001  0.0700
 3405TIP3   OH231629   4.070   2.708  15.294 -0.0692  0.0369  0.1001
 3405TIP3    H131630   4.166   2.707  15.294 -0.0427  1.1966 -0.2642
 3405TIP3    H231631   4.044   2.621  15.325  1.1082  0.5617  2.6749
 3406TIP3   OH231632   2.929   5.685  13.369 -0.1279  0.5949  0.0088
 3406TIP3    H131633   2.958   5.637  13.292  0.4657  3.7246 -1.8036
 3406TIP3    H231634   3.000   5.747  13.387 -0.9514  0.9563  2.1471
 3407TIP3   OH231635   2.703   6.001   1.873 -0.5982  0.3048  0.2093
 3407TIP3    H131636   2.722   5.908   1.863  0.2812  0.6873 -1.9365
 3407TIP3    H231637   2.636   6.019   1.808  0.3185  1.4682 -0.4408
 3408TIP3   OH231638   1.751   4.905  11.338  0.2491 -0.3604 -0.0493
 3408TIP3    H131639   1.843   4.909  11.312  0.2319  0.0657 -0.0472
 3408TIP3    H231640   1.707   4.964  11.277 -0.0663 -0.7925 -0.2433
 3409TIP3   OH231641   1.312   3.473  12.368 -0.0972 -0.1576 -0.3418
 3409TIP3    H131642   1.241   3.494  12.306 -0.3874 -0.0619  0.0211
 3409TIP3    H231643   1.371   3.417  12.318 -0.7203 -0.7101 -0.4706
 3410TIP3   OH231644   4.211   1.314  10.494 -0.1199  0.2960  0.1900
 3410TIP3    H131645   4.298   1.275  10.490 -0.1119  0.4483 -1.2708
 3410TIP3    H231646   4.184   1.303  10.586  1.0620 -0.5428  0.4459
 3411TIP3   OH231647   2.968   3.544   2.627  0.1577 -0.0005  0.4391
 3411TIP3    H131648   2.876   3.528   2.606  0.7625 -0.7177 -1.8073
 3411TIP3    H231649   3.011   3.459   2.616  1.5378  0.8729 -1.1841
 3412TIP3   OH231650   4.211   6.649  14.443 -0.1982  0.0512 -0.1650
 3412TIP3    H131651   4.252   6.598  14.373 -1.4953 -0.1456 -0.7880
 3412TIP3    H231652   4.135   6.598  14.469 -0.3884  0.7039  0.5838
 3413TIP3   OH231653   3.175   1.949  14.201 -0.2232 -0.5281  0.1025
 3413TIP3    H131654   3.261   1.965  14.164 -1.0366  0.8744 -1.2584
 3413TIP3    H231655   3.192   1.906  14.284  1.7389 -1.3399 -0.6901
 3414TIP3   OH231656   4.935   1.657  13.763  0.3131 -0.1889  0.3152
 3414TIP3    H131657   4.963   1.665  13.855  0.4895 -2.0338  0.4260
 3414TIP3    H231658   4.943   1.564  13.743 -1.0337 -0.0060 -1.1668
 3415TIP3   OH231659   4.214   2.524   3.755 -0.0350 -0.4958 -0.1692
 3415TIP3    H131660   4.192   2.452   3.815  0.4599 -0.5459 -0.0420
 3415TIP3    H231661   4.136   2.580   3.756  0.4545  0.1822  1.5420
 3416TIP3   OH231662   5.515   4.928   1.053  0.2024 -0.2720 -0.1601
 3416TIP3    H131663   5.470   4.974   1.124  1.8825 -0.2156  0.9207
 3416TIP3    H231664   5.561   4.997   1.005 -0.5206 -0.3713 -1.0060
 3417TIP3   OH231665   0.536   4.389   1.197 -0.6846  0.3150  0.7334
 3417TIP3    H131666   0.500   4.311   1.240  1.4330 -1.3138 -0.3340
 3417TIP3    H231667   0.554   4.449   1.269 -2.3004 -0.1882  1.5834
 3418TIP3   OH231668   6.255   2.624   0.630  0.2247  0.2332 -0.0434
 3418TIP3    H131669   6.218   2.708   0.656 -0.7024  0.1786 -1.1583
 3418TIP3    H231670   6.180   2.565   0.625  0.7238 -0.3819 -0.3519
 3419TIP3   OH231671   2.833   3.558   2.168  0.1103  0.3050  0.6707
 3419TIP3    H131672   2.877   3.643   2.168  0.0100  0.3596  1.3091
 3419TIP3    H231673   2.905   3.495   2.176  0.0979  0.3798  1.3744
 3420TIP3   OH231674   2.905   4.674   0.241 -0.0626  0.0267 -0.0711
 3420TIP3    H131675   2.995   4.700   0.222  0.3890  0.0890  1.9688
 3420TIP3    H231676   2.863   4.754   0.271 -0.7857 -0.0175 -0.9446
 3421TIP3   OH231677   6.488   6.689  16.699  0.0455  0.9603 -0.1771
 3421TIP3    H131678   6.442   6.654  16.623 -0.7323 -0.9735  1.1526
 3421TIP3    H231679   6.492   6.616  16.761  4.0202  1.3922  0.1750
 3422TIP3   OH231680   3.611   2.572   1.472 -0.3414  0.4107 -0.4972
 3422TIP3    H131681   3.656   2.527   1.401  0.1456  0.0349  0.0491
 3422TIP3    H231682   3.529   2.603   1.432 -0.6253 -0.8369 -0.9093
 3423TIP3   OH231683   6.345   0.158  16.744 -0.2026  0.2155 -0.0682
 3423TIP3    H131684   6.342   0.181  16.651 -0.3179 -2.7032 -0.8452
 3423TIP3    H231685   6.390   0.073  16.746 -2.2183 -0.8658  2.2821
 3424TIP3   OH231686   4.233   5.831  11.472  0.2163 -0.3938  0.0643
 3424TIP3    H131687   4.251   5.880  11.391 -0.1251 -1.9736 -1.0008
 3424TIP3    H231688   4.156   5.873  11.509  0.2055  0.1723 -0.5803
 3425TIP3   OH231689   3.051   3.821   5.401 -0.5330  0.0966  1.0314
 3425TIP3    H131690   3.056   3.909   5.438  1.6644  0.0054  1.0129
 3425TIP3    H231691   3.012   3.767   5.470 -0.4244  0.7809  1.6291
 3426TIP3   OH231692   2.158   1.875   4.653  0.3225  0.1578  0.1488
 3426TIP3    H131693   2.105   1.906   4.726  1.1731 -0.4908  1.0428
 3426TIP3    H231694   2.148   1.943   4.586  1.1750  1.7666  1.6329
 3427TIP3   OH231695   5.501   3.451   3.838  0.8028  0.1374 -0.6846
 3427TIP3    H131696   5.562   3.447   3.765  1.6818  1.8693 -0.0745
 3427TIP3    H231697   5.433   3.388   3.816  1.2323  0.3904 -2.8431
 3428TIP3   OH231698   4.469   0.550   5.377  0.3227  0.9064  0.3342
 3428TIP3    H131699   4.510   0.465   5.361  0.4641  1.2259 -0.9985
 3428TIP3    H231700   4.515   0.585   5.454  0.4081 -0.1132  0.7481
 3429TIP3   OH231701   4.341   1.593   0.235 -0.0341  0.4768 -0.2663
 3429TIP3    H131702   4.336   1.549   0.320 -1.3042  1.4105  0.1512
 3429TIP3    H231703   4.425   1.639   0.237 -0.0660  0.5105  0.4794
 3430TIP3   OH231704   5.761   6.025  11.907  0.7037  0.1841  0.0144
 3430TIP3    H131705   5.757   5.975  11.988  1.2856 -2.0109 -1.2418
 3430TIP3    H231706   5.847   6.066  11.907  0.8964 -0.2238  0.2806
 3431TIP3   OH231707   0.486   2.291  13.463  0.1143  0.2026 -0.0287
 3431TIP3    H131708   0.503   2.225  13.396  0.3907  1.6934 -1.4464
 3431TIP3    H231709   0.460   2.240  13.540  0.4514 -1.5617 -1.0497
 3432TIP3   OH231710   2.250   6.593  16.585  0.0432 -0.3834 -0.2689
 3432TIP3    H131711   2.186   6.539  16.632  0.8529 -0.9346  0.2177
 3432TIP3    H231712   2.299   6.531  16.532  1.1880 -0.1797  0.5275
 3433TIP3   OH231713   6.713   6.121   0.851  0.0116  0.5170  0.4880
 3433TIP3    H131714   6.777   6.091   0.916  0.4716  0.4814  0.0213
 3433TIP3    H231715   6.761   6.121   0.768 -0.7037  0.1361  0.0704
 3434TIP3   OH231716   5.437   0.921  14.301  0.2644  0.5042  0.0075
 3434TIP3    H131717   5.376   0.885  14.238  1.7018  0.5054 -1.4130
 3434TIP3    H231718   5.383   0.945  14.377 -1.3956  0.0677 -1.0306
 3435TIP3   OH231719   6.740   6.241  11.345  0.6038  0.1149  0.2438
 3435TIP3    H131720   6.750   6.304  11.274  2.3064  3.4562  3.2522
 3435TIP3    H231721   6.652   6.256  11.379  0.1403 -0.8022 -0.5568
 3436TIP3   OH231722   2.378   4.306  14.348  0.1255  0.0395 -0.2486
 3436TIP3    H131723   2.426   4.383  14.379 -0.1584  0.7289 -1.5010
 3436TIP3    H231724   2.336   4.335  14.267 -1.1429 -1.0180  0.0246
 3437TIP3   OH231725   5.740   6.315   2.815 -0.3324  0.0649 -0.7618
 3437TIP3    H131726   5.747   6.396   2.764  1.0043  0.7963  0.5203
 3437TIP3    H231727   5.783   6.249   2.762 -2.0541  0.0261 -2.1427
 3438TIP3   OH231728   1.873   4.699   4.283 -0.6388  0.3816  0.6020
 3438TIP3    H131729   1.824   4.616   4.282  0.0261 -0.0257 -1.9567
 3438TIP3    H231730   1.958   4.676   4.319 -0.3489 -0.1290 -0.3889
 3439TIP3   OH231731   0.088   4.989  15.862  0.3469  0.4857  0.0119
 3439TIP3    H131732   0.092   5.081  15.835  1.0244  0.6194  0.5554
 3439TIP3    H231733   0.146   4.944  15.802 -0.4811  0.3114 -0.6613
 3440TIP3   OH231734   1.253   6.330  13.283  0.3669 -0.4390 -0.0396
 3440TIP3    H131735   1.200   6.402  13.319 -1.3619 -1.6542 -0.1178
 3440TIP3    H231736   1.321   6.374  13.232 -0.2246  1.1698  0.5206
 3441TIP3   OH231737   3.444   0.436  13.509  0.4831 -0.5422  0.6433
 3441TIP3    H131738   3.465   0.343  13.501  2.4667 -0.0753  0.1648
 3441TIP3    H231739   3.354   0.443  13.477  1.2096 -1.8872 -1.8644
 3442TIP3   OH231740   0.852   4.060  13.586  0.1446 -0.4308  0.4238
 3442TIP3    H131741   0.928   4.089  13.536  0.4751 -0.1972  1.0611
 3442TIP3    H231742   0.777   4.086  13.533  0.5084 -0.6167 -0.1796
 3443TIP3   OH231743   3.158   1.152   5.242  0.0894 -0.4063  0.7152
 3443TIP3    H131744   3.122   1.090   5.178 -2.1680  1.9318 -0.3797
 3443TIP3    H231745   3.127   1.121   5.327  0.6211 -1.8659  0.3775
 3444TIP3   OH231746   2.059   4.950   1.716  0.0234  0.2209 -0.3330
 3444TIP3    H131747   2.022   4.995   1.792  1.4215  1.2545 -0.2319
 3444TIP3    H231748   1.986   4.900   1.679 -0.3791 -1.2773  2.3866
 3445TIP3   OH231749   1.382   3.097  17.032 -1.1415 -0.3539 -0.7305
 3445TIP3    H131750   1.445   3.024  17.036 -0.5669  0.2002  0.7892
 3445TIP3    H231751   1.313   3.072  17.094 -0.5901  0.6928  0.3301
 3446TIP3   OH231752   5.208   5.024   2.675  0.2754  0.0504  0.2964
 3446TIP3    H131753   5.148   5.095   2.650  0.7255  0.0657 -0.7668
 3446TIP3    H231754   5.230   4.981   2.593 -1.8085 -2.8142  1.2053
 3447TIP3   OH231755   2.191   4.451   4.642  0.5903 -0.5194  0.1672
 3447TIP3    H131756   2.111   4.404   4.618 -0.1332  1.4316 -1.3361
 3447TIP3    H231757   2.161   4.517   4.704  0.8330  0.9449 -1.2506
 3448TIP3   OH231758   2.087   2.043   6.100 -0.0233 -0.4172  0.1985
 3448TIP3    H131759   2.107   1.976   6.165  1.0589 -0.1249  0.1713
 3448TIP3    H231760   2.029   2.000   6.038  0.9332 -1.4251 -0.0029
 3449TIP3   OH231761   6.744   5.500   1.321 -0.5154 -0.1472  0.0791
 3449TIP3    H131762   6.722   5.557   1.395  0.1555  0.0992  0.0857
 3449TIP3    H231763   6.837   5.481   1.332 -0.3226  0.2106 -0.9275
 3450TIP3   OH231764   6.344   3.119   3.279 -0.2356 -0.2235  0.4291
 3450TIP3    H131765   6.424   3.111   3.331  0.6677 -0.5161 -0.9859
 3450TIP3    H231766   6.277   3.146   3.342  0.6674 -1.3356  1.8834
 3451TIP3   OH231767   1.919   6.118   2.733 -0.1716  0.0292 -0.2184
 3451TIP3    H131768   1.972   6.198   2.736 -1.2564  0.8400 -1.6568
 3451TIP3    H231769   1.962   6.062   2.669  1.2732 -1.0774  1.6754
 3452TIP3   OH231770   4.121   3.944   5.020  0.3761  0.2773 -0.2308
 3452TIP3    H131771   4.121   3.856   4.984  0.8905  0.0388  0.3470
 3452TIP3    H231772   4.160   3.935   5.107 -2.7558  0.4884  1.2454
 3453TIP3   OH231773   1.388   6.228   2.643 -0.4817  0.5484 -0.0260
 3453TIP3    H131774   1.476   6.265   2.635 -0.5319  1.1241  2.0334
 3453TIP3    H231775   1.335   6.279   2.582  0.4091  0.8066 -0.5945
 3454TIP3   OH231776   5.312   0.632   2.117 -0.0016 -0.3583 -0.0157
 3454TIP3    H131777   5.331   0.549   2.074  0.6523 -0.1284 -0.1812
 3454TIP3    H231778   5.343   0.698   2.055  0.6656 -0.0158  0.6740
 3455TIP3   OH231779   6.747   1.948   3.739 -0.1948 -0.4719 -0.2384
 3455TIP3    H131780   6.835   1.973   3.711 -0.1966  0.3121  0.4631
 3455TIP3    H231781   6.756   1.857   3.768  0.9862  0.4513  2.4434
 3456TIP3   OH231782   4.484   1.474   4.127  0.1282  0.2177  0.2213
 3456TIP3    H131783   4.390   1.461   4.143  0.1003  0.6896  0.4372
 3456TIP3    H231784   4.506   1.407   4.063 -0.1894 -0.4154  0.7581
 3457TIP3   OH231785   2.532   2.689  10.750  0.3447  0.0351  0.9344
 3457TIP3    H131786   2.488   2.605  10.737  0.0636 -0.0709  2.4605
 3457TIP3    H231787   2.599   2.691  10.682 -0.4427 -0.8728  0.0974
 3458TIP3   OH231788   0.164   2.023  14.130  0.7635 -0.0321 -0.0433
 3458TIP3    H131789   0.123   2.108  14.115  1.6163  0.4461  0.3289
 3458TIP3    H231790   0.130   1.995  14.215 -2.3816 -1.7552 -1.7946
 3459TIP3   OH231791   3.650   6.241  13.785  0.3469 -0.6564  0.1170
 3459TIP3    H131792   3.615   6.160  13.749 -0.4277 -0.5333  0.5852
 3459TIP3    H231793   3.649   6.227  13.880 -0.1456  0.0376  0.2188
 3460TIP3   OH231794   5.358   3.504  11.052 -0.3060  0.1028  0.3164
 3460TIP3    H131795   5.419   3.441  11.015  0.2007  1.2214 -0.8187
 3460TIP3    H231796   5.272   3.463  11.043 -0.0191 -0.2834 -0.7379
 3461TIP3   OH231797   1.916   0.634   5.349 -0.2607 -0.3800 -0.0087
 3461TIP3    H131798   1.837   0.677   5.316 -0.9178 -2.1558 -0.7786
 3461TIP3    H231799   1.897   0.617   5.442  0.0041  0.9558  0.3037
 3462TIP3   OH231800   5.009   5.325  13.031  0.1386 -0.5383 -0.3558
 3462TIP3    H131801   4.936   5.373  12.992 -0.1440 -0.4594  0.2673
 3462TIP3    H231802   4.991   5.326  13.125  1.3714  0.1796 -0.1261
 3463TIP3   OH231803   4.411   5.761   1.009  0.2118 -0.2546  0.3171
 3463TIP3    H131804   4.453   5.832   1.059 -1.3877  1.1311 -0.2440
 3463TIP3    H231805   4.324   5.752   1.050 -0.3672 -0.4621 -0.9510
 3464TIP3   OH231806   3.028   1.708   6.736 -0.1165 -0.7206 -0.0889
 3464TIP3    H131807   3.078   1.789   6.742 -1.5193  0.1277  0.4368
 3464TIP3    H231808   3.086   1.641   6.772  0.8911  0.1280 -0.1172
 3465TIP3   OH231809   5.603   3.890  12.104  0.3165  0.7634  0.4381
 3465TIP3    H131810   5.662   3.874  12.178 -1.6309 -1.2835  1.5945
 3465TIP3    H231811   5.592   3.803  12.064 -0.8989  1.3693 -0.5465
 3466TIP3   OH231812   0.210   0.015   2.009  0.2522 -0.1477  0.1193
 3466TIP3    H131813   0.209  -0.057   1.946  0.1628  0.3608 -0.4593
 3466TIP3    H231814   0.166  -0.021   2.086 -0.6768 -0.4046 -0.5226
 3467TIP3   OH231815   5.427   1.840  14.354 -0.4177  0.4086 -0.5396
 3467TIP3    H131816   5.344   1.880  14.329 -0.8436  0.3048  0.6600
 3467TIP3    H231817   5.406   1.789  14.432 -0.0459 -2.7711 -2.4584
 3468TIP3   OH231818   3.233   5.995  12.579 -0.2255 -0.1666 -0.1314
 3468TIP3    H131819   3.325   5.970  12.581 -0.7481 -2.2049 -0.0967
 3468TIP3    H231820   3.199   5.968  12.664 -0.7617  1.0097  0.0361
 3469TIP3   OH231821   3.689   2.281  11.168  0.3342  0.4699  0.3943
 3469TIP3    H131822   3.608   2.264  11.218 -0.0471 -0.1877 -0.4255
 3469TIP3    H231823   3.707   2.197  11.125  0.9505  0.8833 -0.1461
 3470TIP3   OH231824   2.377   1.953   0.495 -0.2761 -0.2841 -0.2086
 3470TIP3    H131825   2.398   1.862   0.477  1.2366  0.0159  0.0205
 3470TIP3    H231826   2.455   2.002   0.469 -0.6341  0.8206  0.7367
 3471TIP3   OH231827   5.528   0.026   4.318 -0.7832 -0.4931 -0.0581
 3471TIP3    H131828   5.471   0.036   4.395 -0.3893 -1.1265  0.3240
 3471TIP3    H231829   5.606   0.077   4.339 -0.8914 -0.2441 -0.2599
 3472TIP3   OH231830   2.875   5.870  15.555 -0.5314 -0.3355  0.1203
 3472TIP3    H131831   2.870   5.790  15.607  0.3540  0.4764  1.4725
 3472TIP3    H231832   2.817   5.853  15.480 -0.5434 -2.1362  0.5127
 3473TIP3   OH231833   3.981   2.214   2.102  0.0412 -0.0269  0.8513
 3473TIP3    H131834   3.952   2.256   2.183  1.0321  3.1128 -0.3235
 3473TIP3    H231835   4.075   2.203   2.114  0.0178 -0.5379  0.5486
 3474TIP3   OH231836   0.220   0.006  12.653  0.4985 -0.1049 -0.1524
 3474TIP3    H131837   0.235  -0.074  12.704  3.2455  1.4621  1.6438
 3474TIP3    H231838   0.196   0.071  12.718  1.6767  1.3646 -1.1670
 3475TIP3   OH231839   1.920   0.596  13.955 -0.3651  0.3292 -0.1789
 3475TIP3    H131840   1.933   0.652  13.879 -1.0315 -0.0949 -0.6060
 3475TIP3    H231841   1.993   0.534  13.952 -0.4999  0.1894 -0.5784
 3476TIP3   OH231842   5.548   1.839  15.271  0.0586  0.4614  0.2100
 3476TIP3    H131843   5.642   1.831  15.290  0.1217  0.0837 -0.2525
 3476TIP3    H231844   5.519   1.749  15.258  0.0056  0.6995 -1.4119
 3477TIP3   OH231845   1.216   2.126  13.556 -0.6108 -0.1558 -0.2762
 3477TIP3    H131846   1.297   2.176  13.545 -0.9839  1.0359  2.0246
 3477TIP3    H231847   1.164   2.178  13.617 -2.9580 -1.1154 -1.3984
 3478TIP3   OH231848   1.207   0.413  13.359 -1.2721 -0.0256  0.4671
 3478TIP3    H131849   1.265   0.453  13.423 -0.3607 -1.6984  0.7046
 3478TIP3    H231850   1.193   0.324  13.391 -1.1893 -0.7302 -1.3918
 3479TIP3   OH231851   1.332   5.705  16.527 -0.1009  0.0064 -0.3957
 3479TIP3    H131852   1.315   5.797  16.550  1.0438 -0.0897  0.8671
 3479TIP3    H231853   1.302   5.698  16.436  1.2521  2.0301 -1.0383
 3480TIP3   OH231854   4.973   6.309  17.074  0.0598  0.0595  0.1540
 3480TIP3    H131855   4.924   6.236  17.113  0.7208 -0.3424  0.2299
 3480TIP3    H231856   5.056   6.271  17.048 -0.1168  0.4776 -1.0490
 3481TIP3   OH231857   6.780   6.545   0.654  0.4187 -0.0168  0.4274
 3481TIP3    H131858   6.847   6.489   0.615  1.0667  0.1791  1.2237
 3481TIP3    H231859   6.754   6.499   0.734  1.2448  0.9901  1.2968
 3482TIP3   OH231860   5.403   2.130   0.620  0.5808 -0.0486  0.1216
 3482TIP3    H131861   5.479   2.182   0.645 -0.1266  0.0558  2.1744
 3482TIP3    H231862   5.331   2.194   0.614  0.4189 -0.3035 -0.6984
 3483TIP3   OH231863   0.066   3.144  13.273  0.5920 -0.1601  1.2970
 3483TIP3    H131864   0.045   3.062  13.230  1.4187 -1.3630  3.1458
 3483TIP3    H231865   0.153   3.167  13.239 -0.3297  0.8269 -0.4644
 3484TIP3   OH231866   3.631   2.596   2.452 -0.0852 -0.5758  0.4007
 3484TIP3    H131867   3.713   2.620   2.408 -1.6800  3.6440 -0.4890
 3484TIP3    H231868   3.658   2.562   2.537  2.6971 -1.9019 -0.9578
 3485TIP3   OH231869   6.212   1.046  14.598  0.4381 -0.3445 -0.2250
 3485TIP3    H131870   6.238   1.053  14.690 -0.5940 -2.0196  0.2159
 3485TIP3    H231871   6.179   0.956  14.590  1.4355 -0.5273 -2.4639
 3486TIP3   OH231872   3.031   4.016  11.277 -0.3984 -0.5073  0.2143
 3486TIP3    H131873   3.121   4.049  11.270  0.2244 -2.1510  0.3407
 3486TIP3    H231874   2.988   4.049  11.198  0.1882  0.6655  0.3723
 3487TIP3   OH231875   2.784   3.607  13.188  0.1695 -0.8604 -0.2678
 3487TIP3    H131876   2.706   3.651  13.220  0.0348 -1.9487  0.9454
 3487TIP3    H231877   2.786   3.626  13.094 -0.1855  1.2335  0.1266
 3488TIP3   OH231878   1.398   6.618  16.949  0.1113 -0.1663  0.2965
 3488TIP3    H131879   1.364   6.702  16.918 -2.1815 -0.8314  0.9214
 3488TIP3    H231880   1.321   6.572  16.982  1.0449 -3.1764 -1.5164
 3489TIP3   OH231881   6.226   4.862  12.426  0.0994 -0.5426  0.2713
 3489TIP3    H131882   6.237   4.767  12.434  0.2210 -0.4575  1.1478
 3489TIP3    H231883   6.137   4.873  12.393  0.7989 -1.0340 -1.9062
 3490TIP3   OH231884   1.702   1.422   5.790  0.0929 -0.1380  0.1304
 3490TIP3    H131885   1.705   1.397   5.883 -0.8346 -1.2473 -0.1261
 3490TIP3    H231886   1.792   1.447   5.769  0.1523  0.9073  1.5331
 3491TIP3   OH231887   2.505   0.380  12.166  0.0034 -0.3169 -0.1561
 3491TIP3    H131888   2.457   0.461  12.183 -1.5661 -1.0191 -1.1504
 3491TIP3    H231889   2.465   0.316  12.225  0.3324 -0.6973 -0.3452
 3492TIP3   OH231890   3.762   4.411  16.459 -0.7057 -0.7580  0.6090
 3492TIP3    H131891   3.678   4.446  16.428 -1.2828 -1.6105  1.1687
 3492TIP3    H231892   3.760   4.426  16.554  0.9091  1.5685  0.3090
 3493TIP3   OH231893   1.491   6.220  11.708  0.9639 -0.5522  0.1396
 3493TIP3    H131894   1.494   6.197  11.800  0.5453 -0.4790  0.1711
 3493TIP3    H231895   1.573   6.268  11.693  0.8018 -0.1263  0.5915
 3494TIP3   OH231896   1.619   3.536   1.743 -0.0554 -0.2792 -0.2021
 3494TIP3    H131897   1.677   3.604   1.709  1.8735 -1.3624  0.8616
 3494TIP3    H231898   1.594   3.568   1.830 -0.3263 -0.2467 -0.2912
 3495TIP3   OH231899   4.701   0.181   1.825  0.1478 -0.4173  0.7139
 3495TIP3    H131900   4.649   0.256   1.852  0.0869 -0.3966  0.5403
 3495TIP3    H231901   4.789   0.199   1.858  0.5911  0.6469 -0.9623
 3496TIP3   OH231902   4.319   5.548  16.967 -0.0849  0.1629 -0.0973
 3496TIP3    H131903   4.258   5.612  17.004 -0.3618 -0.1084 -0.0815
 3496TIP3    H231904   4.328   5.573  16.875 -0.5833 -0.0753 -0.2122
 3497TIP3   OH231905   2.291   4.354   5.029  0.2281 -0.2040 -0.1155
 3497TIP3    H131906   2.228   4.413   5.071 -0.0742 -1.0683  0.6667
 3497TIP3    H231907   2.238   4.278   5.002  0.5039  0.1203 -1.6334
 3498TIP3   OH231908   6.778   2.436  11.930  0.4351 -0.1466  0.1918
 3498TIP3    H131909   6.870   2.461  11.924  0.4107 -0.0169  0.3481
 3498TIP3    H231910   6.736   2.510  11.974  0.0318  0.3718 -1.0258
 3499TIP3   OH231911   5.899   4.361   1.960 -0.4443 -0.5845  0.2739
 3499TIP3    H131912   5.983   4.343   2.003 -0.1402 -0.4056 -0.2381
 3499TIP3    H231913   5.893   4.295   1.892 -1.0365 -1.0146  0.7402
 3500TIP3   OH231914   1.877   1.573   1.450  0.2381 -0.3578  0.1659
 3500TIP3    H131915   1.912   1.502   1.396  0.1082 -0.1961 -0.1325
 3500TIP3    H231916   1.786   1.548   1.466  0.3085 -0.4631  0.4091
 3501TIP3   OH231917   3.055   2.408  12.211 -0.7141 -0.0070 -0.2170
 3501TIP3    H131918   2.983   2.420  12.273 -0.5605  0.6895 -0.1711
 3501TIP3    H231919   3.124   2.467  12.242  0.6804 -2.1984  0.9440
 3502TIP3   OH231920   0.253   3.406  13.570 -0.1429 -0.4542 -0.4836
 3502TIP3    H131921   0.313   3.338  13.600  0.6415 -0.2681 -1.5516
 3502TIP3    H231922   0.291   3.487  13.603 -1.1363 -0.5346  0.8809
 3503TIP3   OH231923   5.925   0.902   1.359 -0.2080  0.1824 -0.1128
 3503TIP3    H131924   6.016   0.926   1.377 -0.6504  0.8927  1.2334
 3503TIP3    H231925   5.891   0.973   1.306 -0.8164  1.4191  1.8646
 3504TIP3   OH231926   6.382   2.546   2.470  0.1219  0.2846  0.1476
 3504TIP3    H131927   6.379   2.609   2.397 -2.0915 -0.2733 -0.2578
 3504TIP3    H231928   6.306   2.567   2.524  0.4614 -0.7922  1.0692
 3505TIP3   OH231929   3.136   5.880  15.677 -0.7033 -0.3164 -0.0074
 3505TIP3    H131930   3.043   5.878  15.652 -0.8546  1.1360  0.4062
 3505TIP3    H231931   3.148   5.965  15.718  1.1242  0.0118 -1.1829
 3506TIP3   OH231932   4.322   4.463   5.430 -0.1525  0.4122 -0.1578
 3506TIP3    H131933   4.290   4.531   5.490  0.1141  0.7034 -0.3429
 3506TIP3    H231934   4.408   4.439   5.465 -0.0499  0.4935 -0.3532
 3507TIP3   OH231935   3.530   4.024  17.201  0.4643 -0.3370 -0.0905
 3507TIP3    H131936   3.585   4.045  17.126  2.0313  1.5473  1.5217
 3507TIP3    H231937   3.589   3.986  17.265 -0.8141 -1.7408  0.2886
 3508TIP3   OH231938   5.616   0.082   1.546  0.3821  0.6897 -0.2083
 3508TIP3    H131939   5.598   0.156   1.488  2.6843  1.1396 -0.3823
 3508TIP3    H231940   5.670   0.023   1.494  0.8076  0.1490  0.8379
 3509TIP3   OH231941   2.552   0.373  11.852 -0.1007 -0.2444 -0.9735
 3509TIP3    H131942   2.500   0.453  11.844 -0.6703 -0.5782 -0.6181
 3509TIP3    H231943   2.503   0.318  11.913  2.8448  1.1542  2.8329
 3510TIP3   OH231944   1.235   0.751   1.310 -0.0156  0.5446  0.0498
 3510TIP3    H131945   1.312   0.756   1.254  0.3107 -1.3149  0.2830
 3510TIP3    H231946   1.249   0.818   1.377  0.4958  1.4841 -0.9789
 3511TIP3   OH231947   1.348   5.813  15.044 -0.8236 -0.1100  0.4096
 3511TIP3    H131948   1.315   5.732  15.083 -4.2398  1.3501  0.7111
 3511TIP3    H231949   1.310   5.815  14.956 -3.6724  2.7489  1.5928
 3512TIP3   OH231950   4.437   0.576  12.334  0.7706  0.8745  0.7922
 3512TIP3    H131951   4.515   0.565  12.280  0.3025  1.7342 -0.0767
 3512TIP3    H231952   4.401   0.488  12.343  1.3628  0.6008  0.4750
 3513TIP3   OH231953   2.293   0.327  16.713  0.1745 -0.7324 -0.7583
 3513TIP3    H131954   2.290   0.364  16.624 -2.3009 -0.7193 -0.6822
 3513TIP3    H231955   2.204   0.298  16.730  0.7657 -1.2597  1.5325
 3514TIP3   OH231956   2.066   2.087   2.104 -0.3947 -0.2608 -0.1411
 3514TIP3    H131957   2.023   2.139   2.171 -0.4898 -0.9091  0.3123
 3514TIP3    H231958   2.142   2.048   2.150  0.5393  0.6821 -0.8630
 3515TIP3   OH231959   6.723   2.963  11.363 -0.3371  0.0610  0.1558
 3515TIP3    H131960   6.680   2.892  11.411  2.6061 -1.3501  0.7813
 3515TIP3    H231961   6.695   2.950  11.272 -3.5680  0.9798  0.9654
 3516TIP3   OH231962   5.054   4.881   3.278 -0.7323  0.3150  0.0274
 3516TIP3    H131963   4.983   4.942   3.261 -0.5560  0.6437  0.4534
 3516TIP3    H231964   5.134   4.934   3.272 -0.5626  0.0782  0.1560
 3517TIP3   OH231965   1.696   3.146  16.165  0.3980  0.1199 -0.2829
 3517TIP3    H131966   1.784   3.121  16.137  0.0041 -0.5308 -0.9884
 3517TIP3    H231967   1.708   3.221  16.222  1.3791  0.3009 -0.7263
 3518TIP3   OH231968   1.231   3.559  13.913  0.0845  0.4504  0.5306
 3518TIP3    H131969   1.269   3.602  13.990  0.7303 -0.7391  0.8928
 3518TIP3    H231970   1.224   3.467  13.939 -0.1995  0.1393 -0.6476
 3519TIP3   OH231971   1.847   4.348  16.002 -0.4563 -0.0448 -0.0315
 3519TIP3    H131972   1.822   4.336  15.910  2.2793  1.6974 -1.0781
 3519TIP3    H231973   1.913   4.281  16.018 -0.0869  0.3953  0.3054
 3520TIP3   OH231974   0.938   0.623   0.543 -0.3707 -0.0098 -0.3508
 3520TIP3    H131975   0.853   0.616   0.586 -0.5197 -0.1913 -0.6788
 3520TIP3    H231976   0.941   0.550   0.482  0.0616 -0.0627 -0.2707
 3521TIP3   OH231977   3.621   1.987  11.809 -0.3603  0.4952  0.2088
 3521TIP3    H131978   3.609   2.049  11.881  0.5695 -0.4207  1.1606
 3521TIP3    H231979   3.559   1.917  11.828 -0.7448  0.6670 -0.3735
 3522TIP3   OH231980   0.072   5.676   5.257  0.3275  0.3788  0.2736
 3522TIP3    H131981   0.040   5.759   5.222  1.3522  0.8593  0.4644
 3522TIP3    H231982   0.017   5.610   5.215 -0.7623  1.1684  0.4173
 3523TIP3   OH231983   5.966   2.073  14.560 -0.0659 -0.5981  0.1183
 3523TIP3    H131984   5.977   2.126  14.639  1.4808 -0.0100 -0.4946
 3523TIP3    H231985   5.968   2.136  14.488 -1.4523 -1.1370 -0.4099
 3524TIP3   OH231986   5.336   4.382  13.478 -0.1932  0.3360  0.1288
 3524TIP3    H131987   5.345   4.294  13.443 -0.1047 -0.6743  2.5834
 3524TIP3    H231988   5.344   4.440  13.402  2.6617 -1.6070 -1.1182
 3525TIP3   OH231989   6.592   1.423   2.547 -0.6599 -0.5564  0.3490
 3525TIP3    H131990   6.630   1.345   2.588  0.4773  0.2620  0.8911
 3525TIP3    H231991   6.660   1.452   2.486 -0.6751  0.5538  0.8562
 3526TIP3   OH231992   1.056   4.529  15.434 -0.0583  0.0755  0.3395
 3526TIP3    H131993   0.992   4.518  15.505 -0.5244 -0.1138 -0.1009
 3526TIP3    H231994   1.126   4.582  15.472  0.7892 -1.9199  1.6473
 3527TIP3   OH231995   6.315   2.966  16.419 -0.1370  0.7353  0.8910
 3527TIP3    H131996   6.228   2.985  16.385  1.2410  2.3827 -1.9598
 3527TIP3    H231997   6.328   2.872  16.401 -1.8286  0.1508  2.6342
 3528TIP3   OH231998   0.145   4.312   0.424 -0.2412  0.5385  0.2766
 3528TIP3    H131999   0.116   4.354   0.505 -0.5561  3.1706 -1.1488
 3528TIP3    H232000   0.068   4.312   0.367 -0.1701 -1.7777  0.1236
 3529TIP3   OH232001   4.063   1.161  14.624 -0.3443 -0.6199  0.4446
 3529TIP3    H132002   4.071   1.184  14.717 -2.1620  0.2057  0.4324
 3529TIP3    H232003   4.091   1.070  14.619 -1.8795 -1.2248  2.1301
 3530TIP3   OH232004   6.215   3.675  15.536 -0.1807 -0.0411  0.1779
 3530TIP3    H132005   6.279   3.618  15.578 -1.2878 -1.7083 -0.3435
 3530TIP3    H232006   6.153   3.697  15.606 -0.2030 -0.1400  0.1878
 3531TIP3   OH232007   2.014   5.239   5.940 -0.5195  0.1661  0.0221
 3531TIP3    H132008   1.938   5.265   5.994 -0.8390  0.2158 -0.4501
 3531TIP3    H232009   2.052   5.165   5.986 -0.5481  0.4696  0.5398
 3532TIP3   OH232010   1.579   1.307   2.277 -0.1435 -0.2621 -0.0769
 3532TIP3    H132011   1.558   1.336   2.366  0.0243  0.1355 -0.1658
 3532TIP3    H232012   1.617   1.220   2.289  1.3824  0.4342  0.3946
 3533TIP3   OH232013   0.971   2.856  12.602  0.3147  0.2831  0.5820
 3533TIP3    H132014   0.999   2.794  12.534  1.9231  1.1246  0.4586
 3533TIP3    H232015   0.951   2.936  12.554 -0.5207  0.2586  0.8863
 3534TIP3   OH232016   5.534   1.932  16.613  0.2694  0.1336  0.5056
 3534TIP3    H132017   5.446   1.945  16.577 -0.2708 -0.6279  1.5498
 3534TIP3    H232018   5.541   1.838  16.625  1.2706  0.1857  0.3299
 3535TIP3   OH232019   1.302   5.009  15.053  0.3532 -0.0251  0.5535
 3535TIP3    H132020   1.385   4.980  15.091  1.6980  0.7312 -1.7175
 3535TIP3    H232021   1.278   5.087  15.104  1.5915  0.3726  0.5350
 3536TIP3   OH232022   6.089   2.595  15.303  0.5311 -0.0603  0.0128
 3536TIP3    H132023   6.090   2.558  15.214  1.8086 -0.1334  0.0577
 3536TIP3    H232024   5.996   2.611  15.320  0.2717  0.0480 -1.3808
 3537TIP3   OH232025   5.186   4.097   4.527  0.1057 -0.1761 -0.2437
 3537TIP3    H132026   5.256   4.091   4.591 -0.7390 -0.5872  0.6503
 3537TIP3    H232027   5.153   4.186   4.534 -0.4222 -0.4183  0.3573
 3538TIP3   OH232028   0.162   0.505   3.192  0.3476 -0.2708  0.3943
 3538TIP3    H132029   0.140   0.454   3.114  1.1082 -0.1947  0.1323
 3538TIP3    H232030   0.090   0.487   3.252  0.8046 -2.0029  0.4653
 3539TIP3   OH232031   5.420   6.262  10.645  0.4805  0.7319  0.0482
 3539TIP3    H132032   5.397   6.341  10.596 -0.0314  1.2133  1.0507
 3539TIP3    H232033   5.362   6.263  10.721  0.8419 -0.3326  0.3439
 3540TIP3   OH232034   2.407   2.397  15.738  0.3479 -0.4020  0.1936
 3540TIP3    H132035   2.357   2.400  15.657 -1.0206  0.2152  1.0330
 3540TIP3    H232036   2.481   2.456  15.723  0.4786 -0.8042 -0.8211
 3541TIP3   OH232037   2.641   0.469  14.845  0.2679 -0.3240  0.2344
 3541TIP3    H132038   2.718   0.516  14.811 -0.3077  0.3857 -0.1269
 3541TIP3    H232039   2.621   0.513  14.928  1.4585 -1.8279  1.3359
 3542TIP3   OH232040   5.778   5.322   2.899  0.3133 -0.2139 -0.2269
 3542TIP3    H132041   5.836   5.330   2.974  0.3057  1.2658 -0.3627
 3542TIP3    H232042   5.819   5.376   2.830 -0.8697  0.3522 -0.5188
 3543TIP3   OH232043   3.258   2.413  15.545  0.2366  0.5523  0.9651
 3543TIP3    H132044   3.179   2.430  15.494  0.5631  0.6059  0.4757
 3543TIP3    H232045   3.246   2.324  15.580  0.2071  0.3479  0.4344
 3544TIP3   OH232046   0.860   4.683  16.247 -0.8012  0.8622 -0.3956
 3544TIP3    H132047   0.924   4.729  16.300 -0.5694  0.5585 -0.4081
 3544TIP3    H232048   0.775   4.717  16.275 -0.5745  2.0571 -1.1450
 3545TIP3   OH232049   4.730   0.127  11.941 -0.0394 -0.3428  0.4412
 3545TIP3    H132050   4.767   0.187  11.876 -1.7176  0.5807  0.3172
 3545TIP3    H232051   4.758   0.040  11.911  1.1040  0.2360 -0.2455
 3546TIP3   OH232052   3.904   6.235  15.159  0.5119  0.0216  0.0880
 3546TIP3    H132053   3.829   6.291  15.179  1.8150  1.1437  2.0932
 3546TIP3    H232054   3.869   6.147  15.154 -1.1067  0.6616 -0.1726
 3547TIP3   OH232055   4.868   1.655  14.071  0.0526  0.3391  0.1742
 3547TIP3    H132056   4.827   1.573  14.100 -0.6852  0.7132  0.2055
 3547TIP3    H232057   4.815   1.684  13.997 -2.1602  2.8495  2.6085
 3548TIP3   OH232058   1.267   3.239  14.334 -0.0799  0.2918  0.2630
 3548TIP3    H132059   1.334   3.307  14.339 -0.1587  0.3140  1.1259
 3548TIP3    H232060   1.301   3.168  14.390  0.1496 -0.5065 -0.8639
 3549TIP3   OH232061   6.591   3.682   2.141 -0.0867  0.1281 -0.2104
 3549TIP3    H132062   6.562   3.733   2.217  1.5355  1.3485 -0.3776
 3549TIP3    H232063   6.610   3.748   2.074  3.4036 -0.5348  0.0371
 3550TIP3   OH232064   3.826   3.796  13.023  0.6629  0.0979 -0.3672
 3550TIP3    H132065   3.832   3.700  13.022 -2.6651 -0.1707 -0.9490
 3550TIP3    H232066   3.799   3.819  12.934 -1.3978  1.3018  0.5232
 3551TIP3   OH232067   3.144   4.468   0.734 -0.0708 -0.8676  0.0708
 3551TIP3    H132068   3.125   4.428   0.649  1.1453  0.4595 -0.8331
 3551TIP3    H232069   3.212   4.413   0.772 -0.7158 -1.5436  0.2720
 3552TIP3   OH232070   4.870   5.237   3.584  0.3513 -0.0572  0.3044
 3552TIP3    H132071   4.929   5.266   3.653  0.4408 -1.3565  0.7917
 3552TIP3    H232072   4.927   5.194   3.520  0.1895  0.5442 -0.2392
 3553TIP3   OH232073   5.299   3.910   1.923  0.2498  0.3877  1.1798
 3553TIP3    H132074   5.310   4.003   1.903 -0.5242  0.5319  1.4114
 3553TIP3    H232075   5.383   3.884   1.962  1.3500  0.3870 -1.1001
 3554TIP3   OH232076   3.333   2.886  16.749  0.2189  0.0691 -0.1354
 3554TIP3    H132077   3.398   2.948  16.714  0.0863 -1.2683 -2.8880
 3554TIP3    H232078   3.277   2.865  16.674 -2.0286 -0.5324  1.6712
 3555TIP3   OH232079   6.200   4.536   5.861 -0.0044  0.1313 -0.3119
 3555TIP3    H132080   6.220   4.597   5.932  0.3291 -0.3955  0.0575
 3555TIP3    H232081   6.275   4.476   5.861  1.1139  1.4797 -2.6060
 3556TIP3   OH232082   2.773   2.628  15.174 -0.4270  0.0620  0.1126
 3556TIP3    H132083   2.711   2.597  15.109  0.0705  2.0601 -1.3720
 3556TIP3    H232084   2.858   2.621  15.131 -0.1085  1.5066  0.4789
 3557TIP3   OH232085   3.522   4.868   2.557 -0.2089 -0.3004 -0.3087
 3557TIP3    H132086   3.613   4.883   2.583  0.0865 -1.6164 -0.4982
 3557TIP3    H232087   3.482   4.954   2.558  0.2824 -0.0519  2.6201
 3558TIP3   OH232088   5.923   0.659   5.745 -0.6352  0.0480 -0.0649
 3558TIP3    H132089   6.003   0.639   5.793 -0.3724 -1.9775 -1.2639
 3558TIP3    H232090   5.853   0.621   5.798 -0.7936  1.5471  0.8266
 3559TIP3   OH232091   3.288   2.263   3.604 -0.0292 -0.2018  0.5512
 3559TIP3    H132092   3.277   2.224   3.517  0.4935 -0.6014  0.6651
 3559TIP3    H232093   3.234   2.342   3.601  1.7258  0.9998 -0.9292
 3560TIP3   OH232094   6.013   2.222  12.910  0.3909 -0.6501 -0.2858
 3560TIP3    H132095   6.090   2.274  12.928 -0.4724  0.5397  0.0189
 3560TIP3    H232096   6.016   2.204  12.816  1.8299 -1.9196 -0.0148
 3561TIP3   OH232097   1.405   3.852  11.142 -0.3465  0.2640 -0.9754
 3561TIP3    H132098   1.468   3.844  11.071 -0.8833 -1.8920 -1.2459
 3561TIP3    H232099   1.333   3.904  11.105  0.4744  1.2778 -1.1875
 3562TIP3   OH232100   4.362   1.185  12.469  0.7003  0.6140  0.1981
 3562TIP3    H132101   4.450   1.163  12.498  0.8389 -0.1463 -0.7886
 3562TIP3    H232102   4.342   1.121  12.401 -0.9429  0.2416  1.0097
 3563TIP3   OH232103   6.115   2.301  16.231 -0.0738 -0.1781  0.1197
 3563TIP3    H132104   6.165   2.306  16.312  0.2120 -2.0582  0.0655
 3563TIP3    H232105   6.152   2.227  16.184 -0.7451  0.4314 -1.3951
 3564TIP3   OH232106   4.731   4.207   5.261 -0.5410 -0.0494  0.0069
 3564TIP3    H132107   4.699   4.121   5.288  0.6833 -0.0804  1.4399
 3564TIP3    H232108   4.715   4.263   5.337  0.1566  0.5970 -0.3162
 3565TIP3   OH232109   0.793   0.659  14.422  1.1392  0.3820  0.4880
 3565TIP3    H132110   0.799   0.739  14.474  0.7116  0.3656  0.5624
 3565TIP3    H232111   0.758   0.593  14.482 -0.3223  0.6121 -0.0904
 3566TIP3   OH232112   1.618   4.427   1.607 -0.5329  0.1858  0.6367
 3566TIP3    H132113   1.545   4.474   1.568 -2.1457 -0.7962  2.4202
 3566TIP3    H232114   1.587   4.337   1.617  0.3605  0.0848  2.7982
 3567TIP3   OH232115   4.579   6.518   2.778  0.5484 -0.2103 -0.3886
 3567TIP3    H132116   4.593   6.552   2.690 -0.1691 -0.1357 -0.4687
 3567TIP3    H232117   4.539   6.432   2.765 -0.6509  0.3009 -0.1125
 3568TIP3   OH232118   4.105   1.005   2.489  0.4627  0.1069 -0.1158
 3568TIP3    H132119   4.075   1.095   2.503 -1.1488 -0.7212  1.9526
 3568TIP3    H232120   4.168   0.990   2.559 -2.8684 -1.9237  2.6093
 3569TIP3   OH232121   2.693   1.772   6.350 -0.2160  0.1962  0.1488
 3569TIP3    H132122   2.690   1.864   6.325  0.2068 -0.1596 -1.2665
 3569TIP3    H232123   2.786   1.755   6.369 -0.1991 -0.0885 -0.1835
 3570TIP3   OH232124   5.965   3.469  15.436 -0.3849  0.6280 -0.4409
 3570TIP3    H132125   5.975   3.496  15.345 -0.6620  0.1981 -0.5956
 3570TIP3    H232126   6.036   3.407  15.451 -0.5176  0.4770 -0.4437
 3571TIP3   OH232127   4.419   3.488  11.192  0.4315  0.0711 -0.3690
 3571TIP3    H132128   4.325   3.471  11.195  0.4337  0.1019 -0.1233
 3571TIP3    H232129   4.426   3.583  11.199  0.4315  0.1639 -1.5214
 3572TIP3   OH232130   6.112   6.722  16.658 -0.2715  0.1230  0.2508
 3572TIP3    H132131   6.161   6.697  16.580  0.8888  2.7569  0.0967
 3572TIP3    H232132   6.021   6.696  16.638  0.1749 -0.1028 -1.5516
 3573TIP3   OH232133   1.384   0.327   3.728 -0.4243  0.3815  0.0217
 3573TIP3    H132134   1.395   0.322   3.823  0.7981 -0.2777 -0.1430
 3573TIP3    H232135   1.289   0.333   3.715 -0.6838 -0.9542  1.2245
 3574TIP3   OH232136   1.796   0.676   2.012  0.0713 -0.4835 -0.2152
 3574TIP3    H132137   1.762   0.765   2.007 -1.6669 -1.1541 -0.6420
 3574TIP3    H232138   1.855   0.668   1.937 -1.3467 -0.3300 -1.3682
 3575TIP3   OH232139   2.164   4.609  13.618 -0.0555  0.1462 -0.1986
 3575TIP3    H132140   2.237   4.556  13.585  1.0215  0.8935  0.9215
 3575TIP3    H232141   2.092   4.547  13.630  0.3343 -0.5646 -1.5096
 3576TIP3   OH232142   5.601   5.019  12.841  0.5420  0.6007 -0.5560
 3576TIP3    H132143   5.587   5.078  12.767 -1.7624  2.0420  0.9862
 3576TIP3    H232144   5.526   4.959  12.838  2.2518 -1.5636 -1.4138
 3577TIP3   OH232145   6.171   3.926   2.282 -0.3741 -0.5023  0.1452
 3577TIP3    H132146   6.261   3.958   2.279 -0.8278  0.7828 -0.0987
 3577TIP3    H232147   6.156   3.890   2.194 -1.4303  3.0605 -1.1922
 3578TIP3   OH232148   4.018   1.082   4.559 -0.4670 -0.2965  0.4594
 3578TIP3    H132149   4.081   1.062   4.627  0.6348 -0.2243 -0.5343
 3578TIP3    H232150   3.938   1.035   4.585 -0.5521  0.9885  2.6064
 3579TIP3   OH232151   3.261   1.154  14.833 -0.4065  0.0510 -0.0654
 3579TIP3    H132152   3.330   1.105  14.877  0.5198  0.8250 -0.6429
 3579TIP3    H232153   3.195   1.089  14.812  0.5338 -0.8432 -0.2781
 3580TIP3   OH232154   4.774   1.193  15.824  0.3415 -0.0390 -0.2226
 3580TIP3    H132155   4.745   1.168  15.912 -0.3961 -0.5052 -0.5945
 3580TIP3    H232156   4.703   1.166  15.767  0.0074  1.9534 -0.7612
 3581TIP3   OH232157   3.832   2.028   2.958  0.4749  0.3126 -0.2623
 3581TIP3    H132158   3.889   2.056   3.030  1.5212  2.2682 -1.7640
 3581TIP3    H232159   3.890   1.979   2.900 -0.1452 -0.4628 -0.2329
 3582TIP3   OH232160   1.539   3.320  12.433 -0.1811 -0.6315  0.7801
 3582TIP3    H132161   1.581   3.404  12.416 -0.5973 -0.1864  1.8793
 3582TIP3    H232162   1.535   3.314  12.528 -1.0240 -1.4556  0.7032
 3583TIP3   OH232163   2.837   1.188  12.459 -0.2141 -0.1500  0.1600
 3583TIP3    H132164   2.898   1.260  12.474 -0.2336  0.1931 -1.3143
 3583TIP3    H232165   2.779   1.220  12.390 -0.5666 -1.3671 -0.1183
 3584TIP3   OH232166   0.710   1.926  11.850 -0.1214 -0.3922  0.2079
 3584TIP3    H132167   0.683   2.013  11.877  0.4494 -0.3092  0.5275
 3584TIP3    H232168   0.804   1.924  11.868  0.0599 -0.7197 -0.7327
 3585TIP3   OH232169   2.362   4.115  11.008  0.7165 -1.0726 -0.3837
 3585TIP3    H132170   2.456   4.097  11.011  0.4935 -2.5233 -1.5723
 3585TIP3    H232171   2.336   4.093  10.918 -0.2704  1.8544 -0.8541
 3586TIP3   OH232172   4.645   1.149  15.367  0.0265 -0.2263  0.1718
 3586TIP3    H132173   4.703   1.106  15.430 -2.9343 -1.8472  1.9138
 3586TIP3    H232174   4.570   1.179  15.419  0.5025  4.3538 -1.5300
 3587TIP3   OH232175   5.272   1.934  12.697 -0.0160 -0.3843  0.4944
 3587TIP3    H132176   5.246   1.842  12.689  1.2797 -0.7459  0.2302
 3587TIP3    H232177   5.295   1.960  12.607  1.3692 -0.3465  0.8523
 3588TIP3   OH232178   3.223   1.123  13.274  0.1189 -0.4217 -0.2755
 3588TIP3    H132179   3.159   1.169  13.220 -1.2755 -0.0834  1.6292
 3588TIP3    H232180   3.264   1.192  13.326  0.1688 -0.9634  0.4102
 3589TIP3   OH232181   4.936   6.700   5.108  0.6705  0.7692 -0.5285
 3589TIP3    H132182   4.998   6.684   5.037  3.0541 -0.1438  1.7002
 3589TIP3    H232183   4.973   6.775   5.155 -1.2964  1.8580 -0.6492
 3590TIP3   OH232184   2.914   5.966  15.218 -0.4065  0.0730 -0.4439
 3590TIP3    H132185   2.828   5.984  15.179 -1.3745 -1.0710  1.1134
 3590TIP3    H232186   2.907   5.877  15.251  0.5234  0.8884  2.0234
 3591TIP3   OH232187   5.107   2.901  16.538  0.3080  0.0884 -0.1888
 3591TIP3    H132188   5.163   2.978  16.547  0.5504 -0.2378  1.2693
 3591TIP3    H232189   5.030   2.933  16.490  1.9018  0.4403 -2.6234
 3592TIP3   OH232190   4.469   1.171  14.507  0.2310 -0.3774 -0.6832
 3592TIP3    H132191   4.463   1.102  14.574  1.4043  0.3829  0.2329
 3592TIP3    H232192   4.418   1.243  14.543  0.8194  0.0125 -0.6107
 3593TIP3   OH232193   3.303   2.820   5.877  0.1139  0.4340  0.0917
 3593TIP3    H132194   3.235   2.756   5.899  0.6876 -0.2681 -0.1605
 3593TIP3    H232195   3.356   2.826   5.957 -0.2743  1.0257  0.3087
 3594TIP3   OH232196   5.333   2.249   4.201  0.4767 -0.1263  0.7175
 3594TIP3    H132197   5.248   2.226   4.164  1.0536 -2.8054  0.9515
 3594TIP3    H232198   5.316   2.265   4.294 -0.4212  3.4457  0.0166
 3595TIP3   OH232199   1.488   0.902   1.301 -0.0087  0.6263 -0.0908
 3595TIP3    H132200   1.544   0.978   1.316 -0.0200  0.3766  1.3253
 3595TIP3    H232201   1.419   0.933   1.244 -1.3374  2.3212  2.3495
 3596TIP3   OH232202   1.514   2.316   4.168 -0.0053 -0.2992  0.3748
 3596TIP3    H132203   1.449   2.306   4.237  1.1235  2.9229  2.0044
 3596TIP3    H232204   1.598   2.315   4.214  0.7790  1.5295 -0.9871
 3597TIP3   OH232205   2.601   0.675   3.838  0.2823 -0.6206  0.3215
 3597TIP3    H132206   2.587   0.592   3.792 -0.4849  0.3802 -1.3194
 3597TIP3    H232207   2.514   0.699   3.871  0.0982  0.4917 -0.9239
 3598TIP3   OH232208   0.686   3.600  15.093 -0.1402  0.1001 -0.0848
 3598TIP3    H132209   0.660   3.658  15.022  0.1119  0.7032  0.3094
 3598TIP3    H232210   0.761   3.551  15.058  1.3117  1.8703  0.4480
 3599TIP3   OH232211   4.290   4.894  15.222 -0.8951  0.1475 -0.4220
 3599TIP3    H132212   4.288   4.841  15.142 -2.3073  1.2545 -1.1543
 3599TIP3    H232213   4.199   4.891  15.254 -0.5586  0.5584  0.5858
 3600TIP3   OH232214   2.178   0.287   4.942 -1.1650 -0.5696 -0.0510
 3600TIP3    H132215   2.171   0.244   4.857  1.3024 -0.2537 -0.4491
 3600TIP3    H232216   2.149   0.377   4.926 -2.0177 -0.8664 -0.2254
 3601TIP3   OH232217   6.275   5.002  13.327  0.0837 -0.3160  0.4048
 3601TIP3    H132218   6.286   4.988  13.233  3.7485 -0.1533  0.7522
 3601TIP3    H232219   6.274   5.097  13.337 -0.2374 -0.3334  0.5359
 3602TIP3   OH232220   2.284   0.172  12.415  0.0594  0.1460 -0.1793
 3602TIP3    H132221   2.199   0.212  12.434  0.2785  1.3598 -1.6379
 3602TIP3    H232222   2.270   0.078  12.428 -1.2530  0.4269  0.5044
 3603TIP3   OH232223   3.144   1.722   1.312 -0.2785 -0.0496  0.3156
 3603TIP3    H132224   3.075   1.761   1.259 -0.1419  0.2357  0.3503
 3603TIP3    H232225   3.222   1.773   1.292 -0.0964 -0.3102  0.3508
 3604TIP3   OH232226   6.523   1.497   4.157 -0.4859  1.0951  0.0972
 3604TIP3    H132227   6.445   1.506   4.102  0.4071  1.4782 -1.1176
 3604TIP3    H232228   6.590   1.463   4.098  0.0175 -0.1629  1.3610
 3605TIP3   OH232229   1.679   3.935  16.811  0.3354 -0.0014  0.0498
 3605TIP3    H132230   1.670   3.977  16.896  4.1431 -0.1932  0.6072
 3605TIP3    H232231   1.623   3.858  16.816  0.3320  0.1288  2.2495
 3606TIP3   OH232232   5.373   5.443   1.413  0.0517  0.1511 -0.1330
 3606TIP3    H132233   5.458   5.487   1.414  0.1849 -0.1014 -0.2456
 3606TIP3    H232234   5.314   5.504   1.370  0.3320  0.0449 -0.6723
 3607TIP3   OH232235   6.598   5.930   2.904  0.1516 -0.2157  0.4498
 3607TIP3    H132236   6.526   5.993   2.911 -0.6564 -1.0209 -0.6155
 3607TIP3    H232237   6.582   5.867   2.974 -0.9651 -1.1786 -0.6561
 3608TIP3   OH232238   1.290   0.185  13.448 -0.2480 -0.1352  0.4844
 3608TIP3    H132239   1.336   0.197  13.531  0.2272  0.0790  0.1941
 3608TIP3    H232240   1.360   0.174  13.383 -0.6339 -2.2483  0.3998
 3609TIP3   OH232241   1.922   3.752  13.280 -0.0566  0.0149  0.1035
 3609TIP3    H132242   1.996   3.763  13.340 -0.3315 -0.6715  0.5618
 3609TIP3    H232243   1.907   3.658  13.277  0.6428 -0.0651 -1.8650
 3610TIP3   OH232244   1.555   4.069   3.111 -0.3648  0.4291 -0.0875
 3610TIP3    H132245   1.601   4.138   3.063  0.3267  1.1948  1.6400
 3610TIP3    H232246   1.470   4.107   3.134 -1.0436 -0.2461 -1.4598
 3611TIP3   OH232247   6.063   0.018  12.382 -0.0866  0.3813  0.2381
 3611TIP3    H132248   6.013  -0.038  12.441 -1.5142 -0.9214 -2.1291
 3611TIP3    H232249   5.997   0.074  12.340  0.7877  0.7216 -0.7161
 3612TIP3   OH232250   0.063   0.754   3.375  0.9294  0.1781  0.6173
 3612TIP3    H132251   0.051   0.818   3.445  2.2199  0.7232  0.3565
 3612TIP3    H232252   0.122   0.798   3.313 -0.4407 -0.1648 -0.9641
 3613TIP3   OH232253   3.183   3.048   5.733 -0.1258  0.2722 -0.5482
 3613TIP3    H132254   3.223   2.985   5.793  1.5984  0.8661 -1.0666
 3613TIP3    H232255   3.153   3.119   5.790  0.6627  0.3956 -0.2862
 3614TIP3   OH232256   1.993   3.686  12.856  0.0304  0.2843  0.1269
 3614TIP3    H132257   2.057   3.618  12.836 -0.2969 -0.2990  1.0404
 3614TIP3    H232258   1.934   3.688  12.781 -0.9815 -1.6207  0.8630
 3615TIP3   OH232259   4.648   2.731   0.423  0.1044 -0.3263  0.0869
 3615TIP3    H132260   4.679   2.821   0.407  1.3435 -0.5811  1.0485
 3615TIP3    H232261   4.705   2.677   0.368  1.4048 -0.7999  1.8870
 3616TIP3   OH232262   5.402   4.524  12.768 -0.4582  0.2291 -0.2349
 3616TIP3    H132263   5.440   4.537  12.855  0.8634 -1.2140 -0.5788
 3616TIP3    H232264   5.436   4.440  12.739 -3.4311 -0.8333 -0.8383
 3617TIP3   OH232265   3.391   1.587  12.961 -0.0515 -0.3865 -0.0092
 3617TIP3    H132266   3.435   1.502  12.957  0.1979 -0.1665 -2.2609
 3617TIP3    H232267   3.412   1.630  12.878 -1.7032  1.1223  0.3144
 3618TIP3   OH232268   5.415   2.029  14.682 -0.1898  0.3270 -0.4013
 3618TIP3    H132269   5.352   1.978  14.632  0.2928 -1.2508  0.5851
 3618TIP3    H232270   5.474   2.065  14.616 -0.4515 -0.4856 -1.0840
 3619TIP3   OH232271   0.076   2.888  13.192  0.7434  0.5648  0.0784
 3619TIP3    H132272   0.059   2.826  13.121 -0.5164 -1.6724  2.2409
 3619TIP3    H232273   0.171   2.887  13.204  0.7486 -0.8434 -0.0349
 3620TIP3   OH232274   4.955   5.834  16.326 -0.0498 -0.5025 -0.0794
 3620TIP3    H132275   5.041   5.876  16.324  0.1388 -0.9171 -1.3755
 3620TIP3    H232276   4.894   5.903  16.302 -0.0825 -0.2131  0.8191
 3621TIP3   OH232277   1.230   1.703  15.400  0.4732  0.3242  0.4557
 3621TIP3    H132278   1.173   1.628  15.416 -1.0504  1.4457  0.4441
 3621TIP3    H232279   1.317   1.674  15.425 -0.5291 -0.5946  3.0131
 3622TIP3   OH232280   5.435   5.947   1.774 -0.0709  0.1369  0.3370
 3622TIP3    H132281   5.366   5.985   1.719 -0.1165  1.3965  1.2425
 3622TIP3    H232282   5.515   5.991   1.745  0.1294 -0.2527  0.2958
 3623TIP3   OH232283   1.593   4.162  11.858 -0.2387 -0.2686  0.1633
 3623TIP3    H132284   1.527   4.210  11.808  0.1499  0.5275  0.3967
 3623TIP3    H232285   1.594   4.207  11.943 -0.2035 -0.9937  0.5458
 3624TIP3   OH232286   3.985   2.714  16.248  0.6505  0.0948 -0.0944
 3624TIP3    H132287   4.021   2.756  16.170  0.0503 -0.6564 -0.7794
 3624TIP3    H232288   4.003   2.777  16.319  2.8552 -0.0524 -0.4841
 3625TIP3   OH232289   0.585   3.376   2.272 -0.1170 -0.5686 -0.3588
 3625TIP3    H132290   0.616   3.333   2.192 -1.2924 -0.7089 -0.7600
 3625TIP3    H232291   0.546   3.305   2.323 -0.4147 -0.2815 -0.1850
 3626TIP3   OH232292   3.670   6.727  16.982 -0.2300  0.1894  0.0040
 3626TIP3    H132293   3.579   6.712  16.956 -0.6624 -0.0061  1.6243
 3626TIP3    H232294   3.719   6.721  16.900 -1.8925  2.2048 -1.2046
 3627TIP3   OH232295   0.568   5.268  15.741 -0.0279 -0.4087  0.4894
 3627TIP3    H132296   0.527   5.256  15.655 -0.6109  0.0835  0.6932
 3627TIP3    H232297   0.616   5.187  15.755  1.8075  0.3447 -1.2193
 3628TIP3   OH232298   3.249   4.005  12.378 -0.2739  0.2970 -0.5091
 3628TIP3    H132299   3.312   4.067  12.342 -1.9086  1.1946 -1.9516
 3628TIP3    H232300   3.188   4.059  12.428 -0.0857 -0.5081  0.5979
 3629TIP3   OH232301   3.429   4.883  11.772 -0.0260  0.2087 -0.4292
 3629TIP3    H132302   3.361   4.828  11.734 -0.0265  1.4777 -2.3583
 3629TIP3    H232303   3.383   4.963  11.798  0.7613  1.2008 -2.0331
 3630TIP3   OH232304   0.641   1.134   0.512 -0.2119  0.0427 -0.1352
 3630TIP3    H132305   0.611   1.114   0.424 -0.2177  0.8081 -0.3097
 3630TIP3    H232306   0.734   1.155   0.502  0.3158 -2.0035  0.3561
 3631TIP3   OH232307   0.639   6.438  14.756  0.0113 -0.1266 -0.3660
 3631TIP3    H132308   0.626   6.515  14.700  0.2793 -0.0531 -0.3276
 3631TIP3    H232309   0.733   6.419  14.750 -0.5875 -2.5408 -3.1361
 3632TIP3   OH232310   5.777   2.287   3.900 -0.0455  0.7028 -0.2736
 3632TIP3    H132311   5.709   2.330   3.952 -0.2025  0.3555 -0.1853
 3632TIP3    H232312   5.848   2.270   3.962 -0.3179  0.0991 -0.1185
 3633TIP3   OH232313   6.345   4.884   2.359 -0.1728  0.2727  0.5979
 3633TIP3    H132314   6.306   4.812   2.408  0.2900  0.4654  1.2493
 3633TIP3    H232315   6.435   4.856   2.344 -0.4268  0.0246 -0.5173
 3634TIP3   OH232316   2.116   6.325   2.757 -0.4744 -0.1787  0.1982
 3634TIP3    H132317   2.085   6.356   2.842 -1.0853 -0.4097  0.0586
 3634TIP3    H232318   2.202   6.288   2.776 -0.5011 -0.0107  0.6736
 3635TIP3   OH232319   2.012   2.331   3.727  0.2282 -0.1687 -0.1494
 3635TIP3    H132320   1.925   2.371   3.723 -1.1958 -2.9525  1.0801
 3635TIP3    H232321   2.055   2.376   3.800 -0.4220  0.7753 -0.3360
 3636TIP3   OH232322   0.446   2.526   2.554 -0.0390 -0.4202 -0.6416
 3636TIP3    H132323   0.468   2.439   2.587 -1.9451 -0.4747  0.5554
 3636TIP3    H232324   0.529   2.572   2.549  0.8486 -1.9738 -0.2971
 3637TIP3   OH232325   4.750   2.681   2.000 -0.1466  0.0700 -0.4325
 3637TIP3    H132326   4.811   2.708   2.068 -1.1186  0.0863  0.4537
 3637TIP3    H232327   4.772   2.589   1.983 -1.0165 -0.4464  1.1477
 3638TIP3   OH232328   5.045   0.964   2.482  0.3122  0.2716  0.0065
 3638TIP3    H132329   5.034   0.985   2.389 -0.5008  2.2426  0.5077
 3638TIP3    H232330   4.973   1.011   2.525  0.5898 -0.7526  1.6123
 3639TIP3   OH232331   3.351   3.861  16.237  0.2329  0.3992  0.4847
 3639TIP3    H132332   3.342   3.780  16.288 -0.3358 -0.1016 -0.3824
 3639TIP3    H232333   3.317   3.929  16.295 -1.0596 -0.2630  0.5408
 3640TIP3   OH232334   5.974   1.784   0.122  0.2624  0.2347 -0.2748
 3640TIP3    H132335   6.034   1.803   0.050 -0.6895  2.1027 -0.6030
 3640TIP3    H232336   6.013   1.708   0.166  1.9921  0.4024 -1.4619
 3641TIP3   OH232337   2.460   2.633   6.418 -0.5705  0.0262  0.0752
 3641TIP3    H132338   2.396   2.679   6.364 -0.0265  0.0194 -0.5792
 3641TIP3    H232339   2.513   2.702   6.458 -2.3976  0.1507  2.4317
 3642TIP3   OH232340   1.219   2.942  14.319  0.1946 -0.0517  0.2810
 3642TIP3    H132341   1.175   2.975  14.397  0.9160 -0.4562  0.8746
 3642TIP3    H232342   1.268   3.017  14.285 -0.4835  0.2410 -0.0390
 3643TIP3   OH232343   3.141   4.868  14.874  0.1366  0.1166 -0.6140
 3643TIP3    H132344   3.161   4.899  14.786  3.9030 -2.4180 -0.8052
 3643TIP3    H232345   3.064   4.813  14.863 -0.2431  0.9244 -2.0863
 3644TIP3   OH232346   5.071   0.165  12.774 -0.4590 -0.1928 -0.0086
 3644TIP3    H132347   5.078   0.247  12.822  1.6954 -0.1159 -0.4416
 3644TIP3    H232348   5.040   0.190  12.687  2.6191  0.4575 -0.9485
 3645TIP3   OH232349   3.750   1.263   2.372 -0.0032  0.2351  0.5708
 3645TIP3    H132350   3.717   1.177   2.345 -1.8532  0.9381  0.5572
 3645TIP3    H232351   3.705   1.325   2.315  1.7692  1.1938  0.1791
 3646TIP3   OH232352   1.672   5.947   3.900  0.9529 -0.4814 -0.0924
 3646TIP3    H132353   1.639   5.872   3.849  0.5533 -0.0685 -0.4439
 3646TIP3    H232354   1.594   5.985   3.940  1.1528 -0.2332  0.0612
 3647TIP3   OH232355   0.858   0.109   2.935 -0.0450 -0.5090 -0.1940
 3647TIP3    H132356   0.952   0.095   2.921  0.0552  0.0504 -0.0811
 3647TIP3    H232357   0.839   0.067   3.018  0.4222  0.7419  0.5503
 3648TIP3   OH232358   0.523   0.518   3.563  0.3827 -0.3837 -0.6247
 3648TIP3    H132359   0.554   0.597   3.517 -2.5300  2.6062  2.2860
 3648TIP3    H232360   0.434   0.505   3.531 -0.8318  0.3422  2.3550
 3649TIP3   OH232361   0.040   5.156   2.713 -0.2360 -0.1613  0.3835
 3649TIP3    H132362   0.121   5.110   2.733 -0.9563 -0.8506  1.8625
 3649TIP3    H232363  -0.015   5.090   2.672 -0.3727  0.0558  0.2181
 3650TIP3   OH232364   3.184   0.883  15.796 -0.4932  0.3216  0.2160
 3650TIP3    H132365   3.144   0.891  15.709 -1.2412 -0.9220  0.4426
 3650TIP3    H232366   3.276   0.907  15.782 -1.1370  2.6030 -0.4204
 3651TIP3   OH232367   0.774   5.863   2.433 -0.6271  0.1980  0.1172
 3651TIP3    H132368   0.834   5.864   2.507  1.1376  1.1777 -1.3022
 3651TIP3    H232369   0.710   5.931   2.453  0.8563  1.6662 -0.0679
 3652TIP3   OH232370   5.108   1.348   0.411 -0.5035 -0.1554  0.5332
 3652TIP3    H132371   5.171   1.284   0.381  0.2556  1.6114 -1.7655
 3652TIP3    H232372   5.125   1.356   0.505  0.7814 -1.7422  0.4556
 3653TIP3   OH232373   2.702   5.345   2.212 -0.3901 -0.0842  0.5264
 3653TIP3    H132374   2.643   5.421   2.206 -0.4293 -0.2019 -0.8401
 3653TIP3    H232375   2.762   5.356   2.138 -0.8908 -1.8060 -0.1464
 3654TIP3   OH232376   4.732   5.986  13.001  0.3943 -0.3251 -0.4892
 3654TIP3    H132377   4.784   5.976  13.081  1.6146  0.4925 -1.1590
 3654TIP3    H232378   4.730   5.899  12.963  1.2821 -0.3828 -0.4323
 3655TIP3   OH232379   2.238   6.201   1.699  0.2777 -0.4829 -0.0446
 3655TIP3    H132380   2.276   6.288   1.690 -2.6414  0.8146 -0.5115
 3655TIP3    H232381   2.155   6.216   1.745 -0.4918 -2.9416 -0.5402
 3656TIP3   OH232382   4.336   4.704  15.424 -0.0220 -0.0897  0.5409
 3656TIP3    H132383   4.309   4.783  15.377  2.1532  0.3313 -0.0658
 3656TIP3    H232384   4.320   4.633  15.361 -1.5788 -0.0999  0.9329
 3657TIP3   OH232385   2.432   6.614  16.871 -0.0847  0.5704 -0.2106
 3657TIP3    H132386   2.438   6.709  16.862  1.7910  0.4570 -0.3297
 3657TIP3    H232387   2.459   6.579  16.786  0.4558 -0.0829  0.2141
 3658TIP3   OH232388   2.168   2.148  12.830 -0.4894 -0.1850  0.4008
 3658TIP3    H132389   2.260   2.129  12.812 -0.1509  1.2615  0.5459
 3658TIP3    H232390   2.127   2.151  12.744 -0.1599  0.3495  0.2585
 3659TIP3   OH232391   5.913   4.140   6.705 -0.0074  0.3121  0.2534
 3659TIP3    H132392   5.944   4.149   6.614  0.1060 -0.8003  0.1715
 3659TIP3    H232393   5.990   4.156   6.758 -0.5675  3.2544  0.2460
 3660TIP3   OH232394   4.146   5.057   4.136  0.6225  0.1614  0.0554
 3660TIP3    H132395   4.060   5.082   4.169 -0.3294 -0.4828 -1.8587
 3660TIP3    H232396   4.162   4.971   4.175  0.0682 -0.0399 -0.1522
 3661TIP3   OH232397   1.529   0.706  15.598 -0.5290 -0.3856 -0.4330
 3661TIP3    H132398   1.624   0.719  15.594 -0.4696 -0.6023  0.1646
 3661TIP3    H232399   1.516   0.651  15.675 -1.2940  1.1482  0.5446
 3662TIP3   OH232400   0.521   5.178  16.024 -0.1841 -0.9092  0.3548
 3662TIP3    H132401   0.528   5.257  16.078  0.8644 -1.2619  0.7466
 3662TIP3    H232402   0.452   5.198  15.961  1.0512  0.8805 -0.4813
 3663TIP3   OH232403   5.535   0.386  15.372  0.6728  0.1982  0.1958
 3663TIP3    H132404   5.493   0.469  15.350 -0.8080 -0.1377  1.6498
 3663TIP3    H232405   5.489   0.322  15.318  0.5376  0.0732  0.4584
 3664TIP3   OH232406   6.704   1.639  13.589 -0.3232  0.6902  0.0878
 3664TIP3    H132407   6.739   1.577  13.525  0.8191  2.1878 -0.7532
 3664TIP3    H232408   6.759   1.627  13.666 -1.2549 -0.6099  0.5802
 3665TIP3   OH232409   5.484   4.921  16.808 -0.3852 -0.1510  0.4105
 3665TIP3    H132410   5.459   5.010  16.831 -1.0977 -0.0472 -0.6922
 3665TIP3    H232411   5.577   4.915  16.830  0.2476  1.6070 -1.5970
 3666TIP3   OH232412   4.414   6.037  12.580 -0.1788 -0.0196 -0.1175
 3666TIP3    H132413   4.434   5.946  12.598  1.2374  0.1820 -0.5762
 3666TIP3    H232414   4.438   6.049  12.488  0.1103  0.9357  0.0766
 3667TIP3   OH232415   0.221   6.563  12.184 -0.4503  1.0768 -0.1188
 3667TIP3    H132416   0.292   6.513  12.144 -0.7800  1.5227 -1.2512
 3667TIP3    H232417   0.208   6.638  12.127 -2.6669  0.3595 -0.6010
 3668TIP3   OH232418   4.690   3.072  13.425 -1.1325  0.0806 -0.2219
 3668TIP3    H132419   4.754   3.076  13.495  0.0933 -1.4396 -1.2287
 3668TIP3    H232420   4.605   3.065  13.470 -0.3220 -1.4793  1.0982
 3669TIP3   OH232421   4.497   5.006  13.805 -0.1166  0.8662  0.0941
 3669TIP3    H132422   4.560   5.063  13.762 -0.8856  0.9962 -0.8579
 3669TIP3    H232423   4.459   4.953  13.735  0.1768 -0.4266  0.8905
 3670TIP3   OH232424   2.301   3.457  14.111  0.8526 -0.0921  0.2985
 3670TIP3    H132425   2.376   3.496  14.065  0.1631 -0.7383 -1.4374
 3670TIP3    H232426   2.271   3.525  14.171 -0.5042  2.2064 -2.8320
 3671TIP3   OH232427   5.244   0.584   4.675 -0.3321  0.1570 -0.6006
 3671TIP3    H132428   5.167   0.554   4.627 -1.5423 -0.7813  1.8301
 3671TIP3    H232429   5.216   0.666   4.717  0.2298  0.1987 -0.3013
 3672TIP3   OH232430   4.840   0.599  14.304 -0.1995 -0.1972 -0.4522
 3672TIP3    H132431   4.876   0.511  14.296 -0.2468 -0.1015 -1.9636
 3672TIP3    H232432   4.814   0.622  14.215 -1.1582  0.9368  0.1078
 3673TIP3   OH232433   4.198   5.537  13.096  0.0221 -0.1627  0.1663
 3673TIP3    H132434   4.229   5.621  13.130  1.0275 -0.4125 -0.1451
 3673TIP3    H232435   4.274   5.497  13.054 -0.7415 -0.7171 -0.7169
 3674TIP3   OH232436   1.981   0.866  15.211 -0.3931  0.2640 -0.2635
 3674TIP3    H132437   1.963   0.945  15.260 -0.2355  1.2263 -1.7185
 3674TIP3    H232438   1.895   0.828  15.193 -0.3846 -0.9886  2.1379
 3675TIP3   OH232439   3.891   5.986   3.034 -0.0365 -0.5197 -0.4563
 3675TIP3    H132440   3.841   6.068   3.036  3.6444  1.8533 -0.1474
 3675TIP3    H232441   3.852   5.933   3.104 -0.8159  2.0404  1.1435
 3676TIP3   OH232442   0.121   2.179   0.046 -0.2941  1.2024  0.7347
 3676TIP3    H132443   0.065   2.111   0.084  0.5396 -0.1723 -0.4070
 3676TIP3    H232444   0.197   2.183   0.104 -1.2909  2.6545  1.9602
 3677TIP3   OH232445   6.157   3.802  13.352  0.3511  0.6574 -0.0013
 3677TIP3    H132446   6.169   3.708  13.354  0.8477  0.7473  1.3816
 3677TIP3    H232447   6.063   3.814  13.336  0.3442 -0.0617 -0.5080
 3678TIP3   OH232448   0.130   5.714   6.116  0.3171  0.7054 -0.6740
 3678TIP3    H132449   0.051   5.660   6.116  1.3424 -0.8977  1.3049
 3678TIP3    H232450   0.107   5.790   6.170 -0.2480  0.8161 -1.0767
 3679TIP3   OH232451   3.161   1.496   2.653 -0.0516  0.4058  0.7182
 3679TIP3    H132452   3.211   1.550   2.592  2.6699 -0.5404  2.0032
 3679TIP3    H232453   3.203   1.512   2.738 -0.3288 -2.3150  1.4202
 3680TIP3   OH232454   2.623   4.656  14.783 -0.1116 -0.0759  0.1390
 3680TIP3    H132455   2.577   4.739  14.778 -0.8319 -0.4480  0.5714
 3680TIP3    H232456   2.604   4.622  14.870 -0.9359 -1.3322 -0.5146
 3681TIP3   OH232457   3.694   6.072   2.186 -0.4575  0.2395 -0.0644
 3681TIP3    H132458   3.631   6.015   2.143 -0.2916 -1.2385  1.5569
 3681TIP3    H232459   3.643   6.118   2.253  0.1955 -1.2485  1.5119
 3682TIP3   OH232460   3.411   2.888  13.539  0.1219 -0.1681 -0.8087
 3682TIP3    H132461   3.444   2.825  13.603 -1.7258 -1.1041 -0.7434
 3682TIP3    H232462   3.421   2.844  13.455 -0.5219 -0.2640 -0.8339
 3683TIP3   OH232463   0.234   0.599  13.697 -0.3190 -0.2510  0.1073
 3683TIP3    H132464   0.216   0.675  13.753  1.0646  1.1122 -1.2515
 3683TIP3    H232465   0.249   0.637  13.610  1.2247 -2.0178 -0.4222
 3684TIP3   OH232466   5.759   5.495   4.280  0.3061 -0.4149  0.3665
 3684TIP3    H132467   5.702   5.572   4.288 -1.4028 -1.6248  0.2816
 3684TIP3    H232468   5.847   5.528   4.295 -0.4138  1.5435  0.3990
 3685TIP3   OH232469   1.834   3.790   4.428 -0.2565 -0.0672 -0.0113
 3685TIP3    H132470   1.922   3.757   4.445  1.0813  4.4533  2.3913
 3685TIP3    H232471   1.784   3.769   4.507 -0.0443  1.4722  0.5422
 3686TIP3   OH232472   0.413   1.215  16.370  0.5300 -0.1171 -0.5310
 3686TIP3    H132473   0.433   1.124  16.396  0.2853 -0.3470 -1.1513
 3686TIP3    H232474   0.426   1.265  16.451 -0.1707 -0.8250  0.0340
 3687TIP3   OH232475   4.850   1.909   3.415 -0.4137 -0.2278 -0.3171
 3687TIP3    H132476   4.892   1.915   3.501 -2.4076  2.2270  0.5474
 3687TIP3    H232477   4.914   1.945   3.354  0.5239 -0.7969  0.3288
 3688TIP3   OH232478   2.250   0.531  15.132 -0.0244 -0.0056 -0.0069
 3688TIP3    H132479   2.209   0.449  15.107  0.5417  0.2058 -1.6946
 3688TIP3    H232480   2.343   0.519  15.112  0.4911  0.1351  2.1674
 3689TIP3   OH232481   0.346   2.824   2.986  0.4940 -0.0910 -0.0318
 3689TIP3    H132482   0.386   2.786   3.064 -1.9197 -3.2050 -0.1831
 3689TIP3    H232483   0.313   2.909   3.015  2.3109  0.1260  1.4902
 3690TIP3   OH232484   5.148   4.410  13.674 -0.4392  0.3528  0.6979
 3690TIP3    H132485   5.118   4.329  13.715 -0.5738  0.5836  1.0619
 3690TIP3    H232486   5.222   4.384  13.620 -1.4927 -0.2827 -0.4825
 3691TIP3   OH232487   3.998   2.483   0.680 -0.5608 -0.1816 -0.3878
 3691TIP3    H132488   4.036   2.444   0.758  0.4855 -0.9209 -1.2358
 3691TIP3    H232489   3.930   2.421   0.653 -0.8735  0.0375 -0.0983
 3692TIP3   OH232490   6.506   2.081  17.051 -0.2348 -0.3145  0.9128
 3692TIP3    H132491   6.499   2.132  16.971  0.3386 -1.2472  0.2549
 3692TIP3    H232492   6.562   2.133  17.108 -0.4395  0.2326  0.6192
 3693TIP3   OH232493   0.592   5.492  15.905 -0.3424 -0.3913 -0.7046
 3693TIP3    H132494   0.546   5.554  15.849 -0.3703 -0.5896 -0.9037
 3693TIP3    H232495   0.577   5.407  15.864 -1.1102 -0.6467  0.1006
 3694TIP3   OH232496   1.231   1.203   4.120  0.1040  0.2096  0.2106
 3694TIP3    H132497   1.255   1.245   4.037  1.0748  1.2375  1.0001
 3694TIP3    H232498   1.311   1.158   4.148 -0.8193 -1.9059 -0.4472
 3695TIP3   OH232499   3.126   6.279  13.609 -0.7568 -0.5487 -0.0074
 3695TIP3    H132500   3.141   6.368  13.641  2.0488 -1.3430  1.0212
 3695TIP3    H232501   3.103   6.291  13.517 -1.1815  1.2837  0.3052
 3696TIP3   OH232502   6.146   4.196  15.221  0.0121  0.1086  0.5721
 3696TIP3    H132503   6.108   4.137  15.286  0.0880 -1.0575 -0.4126
 3696TIP3    H232504   6.217   4.240  15.267 -0.9309  0.4608  1.7192
 3697TIP3   OH232505   6.033   0.629  14.103  0.2040 -1.0581 -0.0747
 3697TIP3    H132506   6.096   0.688  14.061  0.4365 -0.7914  0.6549
 3697TIP3    H232507   6.003   0.572  14.031  1.3669 -1.2812 -0.4030
 3698TIP3   OH232508   4.916   1.932  16.411  0.7342  0.0259  0.1410
 3698TIP3    H132509   4.959   1.992  16.473  2.0206 -1.8357  1.1049
 3698TIP3    H232510   4.823   1.938  16.433  0.8213  1.8146  0.0779
 3699TIP3   OH232511   3.802   4.421   4.804  0.3013 -0.4777  1.2224
 3699TIP3    H132512   3.890   4.407   4.840 -0.6090 -2.9590  2.5836
 3699TIP3    H232513   3.769   4.333   4.786 -1.9724  0.4158  0.8993
 3700TIP3   OH232514   6.251   4.335   4.285 -0.0165  0.4199 -0.3799
 3700TIP3    H132515   6.190   4.262   4.278  0.1399  0.2799 -0.2910
 3700TIP3    H232516   6.263   4.347   4.380 -1.0322  1.3877 -0.3533
 3701TIP3   OH232517   3.788   5.468   0.631  0.0320  0.1690  0.2491
 3701TIP3    H132518   3.854   5.429   0.573 -0.9634 -1.1723 -0.0094
 3701TIP3    H232519   3.837   5.497   0.707  0.8538 -1.4032  0.3444
 3702TIP3   OH232520   5.425   1.398   5.913 -0.0014  0.2605  0.1600
 3702TIP3    H132521   5.494   1.460   5.937 -0.1943 -0.2026  1.9713
 3702TIP3    H232522   5.464   1.344   5.845  0.3793  1.9430 -1.0124
 3703TIP3   OH232523   3.079   4.174   0.076  0.5040  0.3154 -0.4870
 3703TIP3    H132524   3.124   4.091   0.058 -1.4671 -1.1037  0.9202
 3703TIP3    H232525   3.008   4.178   0.013 -0.2552  0.2577  0.3572
 3704TIP3   OH232526   1.250   2.032  11.317  0.0393  0.4852  0.1682
 3704TIP3    H132527   1.235   2.081  11.236 -1.0323 -1.5485 -0.9049
 3704TIP3    H232528   1.243   1.940  11.291 -0.7198 -0.1938  2.6456
 3705TIP3   OH232529   6.479   5.523  13.614  0.2702 -0.1680 -0.4869
 3705TIP3    H132530   6.558   5.574  13.596  1.1957 -1.8223 -1.2205
 3705TIP3    H232531   6.449   5.493  13.528 -1.1872  0.4516 -0.2222
 3706TIP3   OH232532   1.746   3.772   2.837  0.5016  0.1732 -0.1583
 3706TIP3    H132533   1.704   3.693   2.802  1.1253  0.9002 -2.5820
 3706TIP3    H232534   1.719   3.842   2.778  1.3797  1.4907  0.9643
 3707TIP3   OH232535   4.010   2.009   1.442 -0.2791 -0.2407  0.0948
 3707TIP3    H132536   3.921   2.029   1.473 -1.0348 -0.9870 -1.5575
 3707TIP3    H232537   4.051   2.094   1.430 -1.5487  0.1883 -1.3405
 3708TIP3   OH232538   3.567   1.222   5.371 -0.6046  0.7072 -0.3997
 3708TIP3    H132539   3.515   1.158   5.322 -0.4385  0.7676 -0.6600
 3708TIP3    H232540   3.534   1.307   5.341  0.4718  0.7626 -1.4879
 3709TIP3   OH232541   3.458   2.309  16.998 -0.2505 -0.2483 -0.2067
 3709TIP3    H132542   3.375   2.322  17.044 -0.3416 -0.0869 -0.4211
 3709TIP3    H232543   3.507   2.389  17.013  0.1424 -0.6144  0.4990
 3710TIP3   OH232544   0.755   2.849  16.692 -0.2761  0.2517  0.0092
 3710TIP3    H132545   0.737   2.819  16.781  0.4164  0.5040  0.2399
 3710TIP3    H232546   0.815   2.784  16.657 -0.6148  0.1080 -0.3050
 3711TIP3   OH232547   0.949   6.582   3.663  0.4170 -0.2033  0.1005
 3711TIP3    H132548   0.876   6.606   3.606  0.5553 -0.3374 -0.1336
 3711TIP3    H232549   0.932   6.628   3.745 -0.5509 -1.1555  0.4477
 3712TIP3   OH232550   5.946   3.529  13.328  0.1739  0.0055  0.2359
 3712TIP3    H132551   5.868   3.580  13.348  0.6097  0.2884  1.2431
 3712TIP3    H232552   5.931   3.444  13.368 -1.6795 -1.6113 -3.6379
 3713TIP3   OH232553   2.007   5.827   2.652  0.5218 -0.4469 -0.5129
 3713TIP3    H132554   1.912   5.814   2.649  0.2813  0.4536  1.8202
 3713TIP3    H232555   2.031   5.854   2.563 -1.4780 -0.2726 -1.0204
 3714TIP3   OH232556   0.015   3.148  11.902 -0.3934  0.6367 -0.2863
 3714TIP3    H132557  -0.064   3.158  11.848 -1.0587 -0.5209  0.4468
 3714TIP3    H232558  -0.005   3.075  11.960  0.8118  1.0391  0.6567
 3715TIP3   OH232559   5.913   3.906   3.597  0.5703  0.1179  0.0008
 3715TIP3    H132560   5.952   3.926   3.512  2.1055  2.0362  1.1239
 3715TIP3    H232561   5.930   3.813   3.610 -1.6144 -0.7554 -2.7315
 3716TIP3   OH232562   4.669   1.364  11.226 -0.1202 -0.1271  0.1362
 3716TIP3    H132563   4.628   1.290  11.270  0.5708  0.4257  1.7751
 3716TIP3    H232564   4.753   1.330  11.194  0.3851  0.0492  1.2595
 3717TIP3   OH232565   4.874   0.625   3.457  0.1573  0.6871  0.3388
 3717TIP3    H132566   4.855   0.583   3.373 -0.0042  0.3380  0.5471
 3717TIP3    H232567   4.889   0.717   3.435  1.8666  0.2633 -0.2981
 3718TIP3   OH232568   0.428   2.877   6.563  0.2117  0.0022  0.4373
 3718TIP3    H132569   0.395   2.808   6.620 -0.8507  1.2372  1.3438
 3718TIP3    H232570   0.450   2.833   6.482  0.8608 -1.6348  1.4815
 3719TIP3   OH232571   0.676   4.004   4.695  0.1746  0.1623 -0.0503
 3719TIP3    H132572   0.636   4.091   4.687  1.8140  0.9514  0.0132
 3719TIP3    H232573   0.621   3.948   4.641 -1.2455  1.1198  0.3641
 3720TIP3   OH232574   6.618   3.117  14.395 -0.7030  0.1452  0.3052
 3720TIP3    H132575   6.619   3.138  14.302  2.2775 -1.1979  0.0006
 3720TIP3    H232576   6.548   3.173  14.431 -1.1840  1.4490 -2.5235
 3721TIP3   OH232577   5.439   0.419  14.600 -0.0995 -0.2931  0.0077
 3721TIP3    H132578   5.409   0.475  14.528 -0.2910 -0.4714 -0.0520
 3721TIP3    H232579   5.365   0.362  14.618  2.1187 -4.8185 -4.1116
 3722TIP3   OH232580   3.237   0.458   5.857  0.0370 -0.1732 -0.8369
 3722TIP3    H132581   3.226   0.460   5.952  0.3827 -0.3623 -0.7905
 3722TIP3    H232582   3.174   0.394   5.826  0.5088 -0.7368 -0.6481
 3723TIP3   OH232583   6.551   4.441   1.124 -0.0698 -0.0128  0.0945
 3723TIP3    H132584   6.633   4.464   1.079  2.0397 -1.0381  3.2442
 3723TIP3    H232585   6.557   4.347   1.139 -0.8868  0.2190  2.0983
 3724TIP3   OH232586   0.944   5.766  13.566 -0.8562 -0.1528 -0.2842
 3724TIP3    H132587   0.922   5.857  13.588 -1.1184 -0.1107 -0.7161
 3724TIP3    H232588   1.040   5.765  13.566 -0.8564 -0.0954  0.6115
 3725TIP3   OH232589   6.224   5.980   1.156 -0.3547  0.5624 -0.1791
 3725TIP3    H132590   6.268   5.913   1.104  0.5364  1.4155 -0.5410
 3725TIP3    H232591   6.145   6.000   1.106 -0.2156  0.3585 -0.4872
 3726TIP3   OH232592   5.708   0.004  13.596 -0.1402  0.8922 -0.4423
 3726TIP3    H132593   5.750   0.015  13.511 -0.0694  1.4529 -0.3392
 3726TIP3    H232594   5.614   0.006  13.578 -0.1267  1.5154 -0.4470
 3727TIP3   OH232595   2.435   0.913   3.230  0.0628  0.2806 -0.0093
 3727TIP3    H132596   2.531   0.903   3.228  0.0175 -0.0720 -0.4485
 3727TIP3    H232597   2.404   0.861   3.157 -0.5668 -0.6241  0.8958
 3728TIP3   OH232598   0.156   2.032   2.856  0.7147  0.0568 -0.3714
 3728TIP3    H132599   0.096   1.959   2.845  1.4512 -0.6505  0.3264
 3728TIP3    H232600   0.102   2.110   2.840  0.3435 -0.6837 -2.9726
 3729TIP3   OH232601   4.790   5.011  16.912 -0.1027 -0.1308  0.3882
 3729TIP3    H132602   4.846   4.950  16.961  0.4894 -0.6019 -0.8337
 3729TIP3    H232603   4.825   5.097  16.934  0.9234 -0.4039 -0.1111
 3730TIP3   OH232604   1.716   0.315  16.961  0.3719 -0.2825 -0.1458
 3730TIP3    H132605   1.721   0.232  16.913 -0.0624 -1.2838  1.5250
 3730TIP3    H232606   1.638   0.306  17.016  0.1224  1.3786 -0.2035
 3731TIP3   OH232607   0.918   1.473  12.440  0.1412  0.5626  0.2386
 3731TIP3    H132608   0.971   1.395  12.452 -3.7016 -1.8409  2.7514
 3731TIP3    H232609   0.892   1.471  12.347  0.7713 -0.6749  0.0910
 3732TIP3   OH232610   2.993   1.836  12.074  0.0260 -0.0778  0.1889
 3732TIP3    H132611   2.988   1.741  12.087  0.8293  0.1172  2.1343
 3732TIP3    H232612   3.042   1.868  12.150 -1.5483  2.0756  0.3541
 3733TIP3   OH232613   4.419   5.961  15.103  0.0686 -0.4299  0.0287
 3733TIP3    H132614   4.397   5.957  15.009 -0.4859 -1.3010  0.1843
 3733TIP3    H232615   4.506   6.000  15.105  0.9342 -2.1926 -1.0063
 3734TIP3   OH232616   5.276   1.877  11.699 -0.2898  0.0133 -0.2547
 3734TIP3    H132617   5.335   1.953  11.698  0.0369 -0.2476 -0.8218
 3734TIP3    H232618   5.196   1.910  11.739 -1.1510  1.4221 -2.9989
 3735TIP3   OH232619   4.419   1.675  15.928 -0.1743 -0.0377 -0.3259
 3735TIP3    H132620   4.497   1.727  15.908  0.1196 -0.7127 -0.9591
 3735TIP3    H232621   4.409   1.682  16.023  0.1573  0.7535 -0.3506
 3736TIP3   OH232622   6.686   6.520   5.726 -0.3189  0.1926  0.0441
 3736TIP3    H132623   6.682   6.432   5.763 -2.5503  0.1059 -0.3214
 3736TIP3    H232624   6.646   6.576   5.793  2.4361  1.1798  0.9136
 3737TIP3   OH232625   2.070   2.220  10.797  0.4372  0.1070  0.3981
 3737TIP3    H132626   2.151   2.174  10.776 -0.1036  0.0050 -1.6408
 3737TIP3    H232627   2.073   2.299  10.744 -1.2640 -0.4289 -0.5388
 3738TIP3   OH232628   4.228   2.067   0.905  0.2169 -0.3353 -0.3986
 3738TIP3    H132629   4.311   2.018   0.898 -0.4450 -1.3831 -1.1384
 3738TIP3    H232630   4.231   2.129   0.832  0.3651 -0.3684 -0.4211
 3739TIP3   OH232631   5.411   0.064   4.613  0.0170 -0.2070  0.3598
 3739TIP3    H132632   5.386  -0.028   4.621 -0.6482 -0.1120 -0.6021
 3739TIP3    H232633   5.331   0.108   4.584  0.6921  0.4628 -0.5013
 3740TIP3   OH232634   4.536   0.259   0.608 -0.1893  0.2356 -0.1154
 3740TIP3    H132635   4.466   0.230   0.667  0.0513  0.5182  0.3152
 3740TIP3    H232636   4.616   0.251   0.661  0.2014 -0.8274 -0.8465
 3741TIP3   OH232637   5.257   5.386   4.826 -0.2723 -0.2115 -0.0599
 3741TIP3    H132638   5.318   5.412   4.757  0.1449 -1.2266 -0.0759
 3741TIP3    H232639   5.217   5.469   4.855 -0.1033  0.2681 -1.1805
 3742TIP3   OH232640   2.162   2.349  14.262 -0.3099 -0.0990 -0.1828
 3742TIP3    H132641   2.152   2.317  14.352 -0.7202  0.9574  0.1537
 3742TIP3    H232642   2.157   2.270  14.208  3.4495 -1.2469  0.9276
 3743TIP3   OH232643   3.276   2.233  14.372  0.1115 -0.5301 -0.7519
 3743TIP3    H132644   3.330   2.166  14.331 -0.7837 -1.0160 -1.1325
 3743TIP3    H232645   3.307   2.315  14.333  0.8379 -0.7647 -0.6803
 3744TIP3   OH232646   4.208   0.370   5.474 -0.7311  0.7794 -0.0601
 3744TIP3    H132647   4.287   0.343   5.520  0.1323  1.7740 -0.9242
 3744TIP3    H232648   4.239   0.403   5.390 -2.1080  0.7498 -0.6013
 3745TIP3   OH232649   0.620   6.716   5.266  0.5142 -0.4211 -0.2898
 3745TIP3    H132650   0.588   6.632   5.235  1.6974 -0.9254 -0.1611
 3745TIP3    H232651   0.715   6.708   5.263  0.6328  0.8999 -0.2483
 3746TIP3   OH232652   2.555   0.126  12.034 -0.1406 -0.3690 -0.2773
 3746TIP3    H132653   2.467   0.132  12.071  0.3549  0.5094  0.7994
 3746TIP3    H232654   2.613   0.132  12.110  0.8583 -0.6720 -1.0032
 3747TIP3   OH232655   1.630   6.297   2.363 -0.6508  0.0307 -0.4852
 3747TIP3    H132656   1.724   6.283   2.368 -0.7323 -0.9065 -1.2468
 3747TIP3    H232657   1.611   6.364   2.428 -0.2909 -3.9454  3.9526
 3748TIP3   OH232658   2.259   6.762  13.306 -0.1846 -0.2018 -0.0644
 3748TIP3    H132659   2.296   6.692  13.253  1.2447  0.0352  0.5985
 3748TIP3    H232660   2.165   6.750  13.300  0.0590 -2.7982  0.8810
 3749TIP3   OH232661   1.289   4.789  16.426  0.0734 -0.1158 -0.6083
 3749TIP3    H132662   1.306   4.778  16.333 -0.7813 -2.9874 -0.4635
 3749TIP3    H232663   1.195   4.773  16.436 -0.4053  2.9572  0.3859
 3750TIP3   OH232664   3.165   2.878  11.774 -0.1466 -0.2258 -0.1757
 3750TIP3    H132665   3.220   2.800  11.777  1.5887  1.0338  1.3566
 3750TIP3    H232666   3.224   2.949  11.748 -0.9359  1.1916  1.7658
 3751TIP3   OH232667   0.798   3.711  11.862 -0.5899  0.0918  0.5115
 3751TIP3    H132668   0.788   3.627  11.816 -0.8598  0.8419 -0.8382
 3751TIP3    H232669   0.747   3.701  11.942 -0.5202 -1.0774  0.4170
 3752TIP3   OH232670   1.839   3.511   4.057  0.3542  0.0787  0.0848
 3752TIP3    H132671   1.819   3.592   4.104  0.6455 -0.4265  1.0842
 3752TIP3    H232672   1.933   3.499   4.069  0.6008  0.4380 -1.4201
 3753TIP3   OH232673   4.903   5.569  16.302 -0.0277 -0.0801 -0.3674
 3753TIP3    H132674   4.913   5.661  16.329  0.7277 -0.7774  1.8351
 3753TIP3    H232675   4.910   5.519  16.383  0.7650 -2.1918 -1.6883
 3754TIP3   OH232676   0.733   3.524   0.974  0.1223  0.3469  0.6248
 3754TIP3    H132677   0.737   3.564   0.887  0.5545 -2.3820 -0.6712
 3754TIP3    H232678   0.643   3.539   1.003 -0.0987  1.0552 -0.4085
 3755TIP3   OH232679   3.109   1.489   2.231 -0.2460 -0.1367 -0.2771
 3755TIP3    H132680   3.124   1.397   2.252  1.9031  0.0604 -0.9288
 3755TIP3    H232681   3.091   1.490   2.137 -1.2142  0.0163 -0.0998
 3756TIP3   OH232682   1.106   5.367  12.673 -0.5100 -0.2544  0.9344
 3756TIP3    H132683   1.128   5.331  12.759  0.7929  0.4889  0.9159
 3756TIP3    H232684   1.067   5.293  12.626  1.0408 -1.3306  1.3155
 3757TIP3   OH232685   2.295   2.821  16.912  0.5517 -0.6780 -0.1922
 3757TIP3    H132686   2.364   2.806  16.977  1.8443 -0.4232 -1.4809
 3757TIP3    H232687   2.261   2.734  16.893  1.1225 -0.9062 -0.1916
 3758TIP3   OH232688   1.642   6.022   5.651 -0.1575  0.1919  0.4466
 3758TIP3    H132689   1.698   6.090   5.689  0.2876 -0.2435  0.5692
 3758TIP3    H232690   1.696   5.984   5.581 -0.2908 -0.2487  0.5863
 3759TIP3   OH232691   0.167   5.812  12.574  0.4390 -0.3286  0.2811
 3759TIP3    H132692   0.131   5.900  12.558 -2.6103 -1.6568 -0.5016
 3759TIP3    H232693   0.253   5.814  12.531 -0.8479  1.3364 -2.3986
 3760TIP3   OH232694   2.368   1.660  15.188 -0.5728  0.3985  0.3991
 3760TIP3    H132695   2.416   1.742  15.200  1.0017 -0.2003 -1.4224
 3760TIP3    H232696   2.297   1.682  15.128 -0.1556  0.4317 -0.0831
 3761TIP3   OH232697   4.203   2.591  12.469  0.0524 -0.1731 -0.3848
 3761TIP3    H132698   4.110   2.596  12.491  0.1284 -2.0840  0.4619
 3761TIP3    H232699   4.207   2.611  12.376 -1.1368  0.4724 -0.3050
 3762TIP3   OH232700   4.807   6.196  12.660  0.2515  0.0607 -0.3780
 3762TIP3    H132701   4.853   6.113  12.673 -0.5499 -0.4060 -0.5051
 3762TIP3    H232702   4.721   6.182  12.700  0.0519  0.7753 -0.5490
 3763TIP3   OH232703   6.051   5.520  16.119  0.1499 -0.2267 -0.7439
 3763TIP3    H132704   6.122   5.455  16.122 -1.7896 -2.4101 -0.3713
 3763TIP3    H232705   6.079   5.582  16.052  1.7546 -1.8422 -1.6453
 3764TIP3   OH232706   3.156   4.552  15.338 -0.5801  0.0787 -0.1181
 3764TIP3    H132707   3.120   4.468  15.310  0.4523  0.0563 -1.4011
 3764TIP3    H232708   3.110   4.617  15.284 -1.0917  0.3162  0.5946
 3765TIP3   OH232709   4.620   6.280  16.382  0.0790 -0.2707 -1.0333
 3765TIP3    H132710   4.681   6.354  16.381 -1.1180  0.8610  2.5585
 3765TIP3    H232711   4.564   6.295  16.306  1.0521  1.4641 -1.4423
 3766TIP3   OH232712   3.180   6.316  14.473  0.1521  0.1486  0.3076
 3766TIP3    H132713   3.243   6.307  14.544  0.4001 -1.6866 -0.1236
 3766TIP3    H232714   3.095   6.323  14.516  0.4210  0.3206  0.8103
 3767TIP3   OH232715   1.732   2.834   5.549 -0.1399  0.0693  0.5675
 3767TIP3    H132716   1.732   2.749   5.506 -1.1016  1.7453 -2.8854
 3767TIP3    H232717   1.804   2.882   5.509 -1.0638  1.6789  0.7936
 3768TIP3   OH232718   3.683   5.272  12.749  0.1192  0.0831 -0.1418
 3768TIP3    H132719   3.737   5.307  12.678  2.8045  0.6369  2.0757
 3768TIP3    H232720   3.713   5.182  12.759 -0.3440 -0.0334  0.1864
 3769TIP3   OH232721   6.244   3.608   2.409  0.1317 -0.2585 -0.2330
 3769TIP3    H132722   6.201   3.524   2.426 -0.5159 -0.0836 -0.9444
 3769TIP3    H232723   6.332   3.598   2.445 -0.7855 -0.3243  2.0292
 3770TIP3   OH232724   3.442   3.296   6.391 -0.4478  0.2231 -1.0340
 3770TIP3    H132725   3.397   3.235   6.333 -1.7533 -1.4308  1.6181
 3770TIP3    H232726   3.512   3.244   6.430 -1.7121  0.3029  1.4268
 3771TIP3   OH232727   2.777   1.632   6.696 -0.1866 -0.1087  0.1850
 3771TIP3    H132728   2.754   1.621   6.788 -0.0764 -1.7398  0.0305
 3771TIP3    H232729   2.873   1.634   6.695 -0.2008  1.8077  0.2926
 3772TIP3   OH232730   3.970   5.382   3.163 -0.2629 -0.2700 -0.8948
 3772TIP3    H132731   4.029   5.448   3.200  0.0679 -1.0110 -0.0945
 3772TIP3    H232732   3.883   5.423   3.166  0.0787  0.4871 -1.2740
 3773TIP3   OH232733   0.889   6.187  13.051 -0.1037 -0.1634 -0.4047
 3773TIP3    H132734   0.895   6.279  13.027 -0.0837  0.2174  1.0218
 3773TIP3    H232735   0.795   6.171  13.062 -0.1248 -0.3785 -0.8836
 3774TIP3   OH232736   3.724   0.727   1.264 -0.4900 -0.3201  0.2047
 3774TIP3    H132737   3.659   0.780   1.312  0.1817 -0.8869  1.7691
 3774TIP3    H232738   3.808   0.760   1.295 -0.0533 -3.1934  2.2663
 3775TIP3   OH232739   2.999   3.416  17.225  0.4646  0.3171  0.0936
 3775TIP3    H132740   3.094   3.407  17.232  0.5604  0.3673 -1.0110
 3775TIP3    H232741   2.980   3.505  17.256  0.8117  0.3892  0.0965
 3776TIP3   OH232742   4.832   2.311   5.020  0.2590  0.3071 -0.6130
 3776TIP3    H132743   4.775   2.355   4.958 -1.6871  1.4684  1.8827
 3776TIP3    H232744   4.882   2.248   4.968 -0.6124  1.9061 -3.4347
 3777TIP3   OH232745   3.252   5.519  17.002  0.9011  0.1612  0.0397
 3777TIP3    H132746   3.241   5.589  16.938  0.4100  0.4268  0.4118
 3777TIP3    H232747   3.230   5.439  16.954 -0.5975  0.4723  0.1853
 3778TIP3   OH232748   4.363   6.672   6.439  0.5315  0.2366 -0.5269
 3778TIP3    H132749   4.433   6.612   6.411 -1.0620 -0.9672 -2.0483
 3778TIP3    H232750   4.298   6.615   6.479 -0.8833  0.9761 -1.7387
 3779TIP3   OH232751   0.820   4.285  13.820  0.2117 -0.0019 -0.4262
 3779TIP3    H132752   0.734   4.326  13.805  0.2472  0.3716  0.3694
 3779TIP3    H232753   0.824   4.215  13.755 -0.8375 -0.2339 -0.2581
 3780TIP3   OH232754   4.660   2.499   0.753 -0.3709  0.3888  0.0412
 3780TIP3    H132755   4.618   2.419   0.785  0.0217  0.2255  0.1512
 3780TIP3    H232756   4.726   2.519   0.819  0.8468 -0.2747 -0.9514
 3781TIP3   OH232757   6.419   4.542  15.186 -0.3508  0.2010 -0.2277
 3781TIP3    H132758   6.432   4.469  15.246  0.7978  0.4879 -0.0979
 3781TIP3    H232759   6.395   4.502  15.103  0.2003 -0.3209 -0.1369
 3782TIP3   OH232760   4.576   4.100  16.961 -0.2340  0.2468 -0.1547
 3782TIP3    H132761   4.657   4.151  16.959 -0.3336  0.3732 -1.5971
 3782TIP3    H232762   4.603   4.011  16.941 -0.2844  0.0488  0.6548
 3783TIP3   OH232763   1.274   5.863   2.066  0.3580 -0.2590  0.0505
 3783TIP3    H132764   1.198   5.920   2.077  0.7977  0.3583 -0.0686
 3783TIP3    H232765   1.297   5.837   2.155  0.3607  0.0242  0.1340
 3784TIP3   OH232766   2.558   6.609  15.588  0.2040  0.0822 -0.3879
 3784TIP3    H132767   2.549   6.682  15.526  0.5416  0.3813 -0.0857
 3784TIP3    H232768   2.484   6.619  15.647  0.1211  0.0469 -0.4867
 3785TIP3   OH232769   3.284   4.290  11.975  0.0403 -0.0275 -0.0846
 3785TIP3    H132770   3.252   4.348  11.906  0.0134  0.8880  0.6780
 3785TIP3    H232771   3.363   4.251  11.939 -0.2662  0.0360 -0.8323
 3786TIP3   OH232772   4.986   0.452   5.551 -0.1221 -0.1195  0.4384
 3786TIP3    H132773   5.055   0.426   5.490 -0.9150 -2.2637  0.4079
 3786TIP3    H232774   4.961   0.540   5.522  1.4097  0.0076 -0.5957
 3787TIP3   OH232775   1.402   3.716   1.408  0.2970  0.3169  0.1843
 3787TIP3    H132776   1.492   3.686   1.392  0.2318  0.6915 -0.9121
 3787TIP3    H232777   1.348   3.638   1.393  0.4368  0.0460  1.0131
 3788TIP3   OH232778   1.355   5.527  12.113 -0.1474 -0.1667  0.2258
 3788TIP3    H132779   1.357   5.490  12.025  0.8252  0.5554 -0.0582
 3788TIP3    H232780   1.442   5.509  12.149 -0.1088  0.6773  0.5589
 3789TIP3   OH232781   4.594   4.940  15.184 -0.6518 -0.1639 -0.1589
 3789TIP3    H132782   4.507   4.902  15.197  0.3764 -2.7846 -0.5352
 3789TIP3    H232783   4.578   5.023  15.140 -2.8946 -1.3563 -1.6825
 3790TIP3   OH232784   6.726   6.636  17.098 -0.0976  0.1459  0.3612
 3790TIP3    H132785   6.706   6.577  17.171  1.7989  0.8030  1.4464
 3790TIP3    H232786   6.701   6.723  17.130 -0.2341  0.3057 -0.1678
 3791TIP3   OH232787   3.240   5.734  14.067  0.0764  0.3057 -0.3472
 3791TIP3    H132788   3.308   5.711  14.005 -0.0656  0.7870 -0.6884
 3791TIP3    H232789   3.268   5.695  14.150  0.1528 -0.5235 -0.7611
 3792TIP3   OH232790   2.103   6.697   3.192  0.5731  0.2302 -0.8098
 3792TIP3    H132791   2.175   6.694   3.255 -0.3109  0.4680  0.2310
 3792TIP3    H232792   2.074   6.606   3.185 -0.3939  0.4356  0.3916
 3793TIP3   OH232793   4.091   3.757   0.419 -0.8064 -0.7558  0.0812
 3793TIP3    H132794   4.153   3.812   0.372 -0.7928  0.7641  1.8136
 3793TIP3    H232795   4.143   3.682   0.449 -0.4864 -0.9673 -0.9875
 3794TIP3   OH232796   4.987   6.646  12.762 -0.3427  0.3402  0.0566
 3794TIP3    H132797   4.959   6.570  12.813 -1.9107  0.3506 -0.7368
 3794TIP3    H232798   4.996   6.716  12.827  0.3180 -0.3115  0.6802
 3795TIP3   OH232799   0.107   1.772  11.103 -0.1130  0.0936 -0.0480
 3795TIP3    H132800   0.059   1.831  11.045  0.3637  0.0390 -0.4960
 3795TIP3    H232801   0.056   1.692  11.105 -1.1929  0.7855  1.1874
 3796TIP3   OH232802   4.293   4.754   1.759  0.0196 -0.1822 -0.0224
 3796TIP3    H132803   4.356   4.802   1.705  0.9452 -0.8284  0.4491
 3796TIP3    H232804   4.315   4.662   1.745  0.5311 -0.3485  1.7250
 3797TIP3   OH232805   1.498   6.316   2.887  0.3097  0.4622 -0.0885
 3797TIP3    H132806   1.447   6.302   2.967  0.5836 -1.1435 -0.1863
 3797TIP3    H232807   1.447   6.274   2.818  0.7328  0.6844 -0.5391
 3798TIP3   OH232808   3.083   4.906   5.148  0.0340  0.0277  0.1923
 3798TIP3    H132809   3.128   4.943   5.224 -0.4962 -0.8813  0.9698
 3798TIP3    H232810   3.111   4.814   5.145  1.5317  0.5267 -1.8610
 3799TIP3   OH232811   0.378   0.230  14.173  0.0024  0.3043  0.1916
 3799TIP3    H132812   0.290   0.193  14.170 -1.3576  3.3895  0.1324
 3799TIP3    H232813   0.416   0.210  14.087 -0.2481 -1.8812  0.5722
 3800TIP3   OH232814   3.713   4.623   4.021  0.2143  0.5740 -0.3077
 3800TIP3    H132815   3.808   4.608   4.018 -0.0402 -1.2617  0.1599
 3800TIP3    H232816   3.678   4.564   3.954 -0.8953 -1.3577  1.9107
 3801TIP3   OH232817   6.013   4.017  16.870  0.4992 -0.5041 -0.8916
 3801TIP3    H132818   6.014   3.960  16.947 -1.6279  1.7170  0.8721
 3801TIP3    H232819   5.941   3.986  16.817 -0.1799  0.0420 -0.2997
 3802TIP3   OH232820   2.407   6.622  13.829  0.4092 -0.0535 -0.0764
 3802TIP3    H132821   2.361   6.660  13.754 -0.5746 -1.0891 -0.0160
 3802TIP3    H232822   2.391   6.528  13.821  1.9634 -0.3624  0.3328
 3803TIP3   OH232823   5.387   5.731   3.139 -0.4489  0.4966  0.0679
 3803TIP3    H132824   5.351   5.818   3.157 -1.3379  0.1409  0.0513
 3803TIP3    H232825   5.425   5.703   3.222 -3.1221 -0.4766  1.0297
 3804TIP3   OH232826   4.014   5.901  16.907  0.2015 -0.6236 -0.2851
 3804TIP3    H132827   4.094   5.943  16.876 -1.1557  0.1815 -2.8380
 3804TIP3    H232828   3.983   5.851  16.833 -1.6342 -0.9693  0.6921
 3805TIP3   OH232829   6.213   3.725  11.300 -0.2014 -0.1662 -0.4140
 3805TIP3    H132830   6.193   3.725  11.394  0.4560 -1.0382 -0.2678
 3805TIP3    H232831   6.216   3.817  11.276 -2.3094  0.0235  0.0080
 3806TIP3   OH232832   0.933   3.443   0.482  0.2251 -0.0714 -0.3315
 3806TIP3    H132833   0.977   3.506   0.539  1.8235 -0.1744 -1.3871
 3806TIP3    H232834   1.003   3.384   0.454 -1.0203 -1.5792 -0.3256
 3807TIP3   OH232835   5.061   1.202  15.027  0.2472 -0.1089  0.1528
 3807TIP3    H132836   4.983   1.183  15.081 -0.1542  1.0291  0.0031
 3807TIP3    H232837   5.050   1.149  14.949  0.3781 -1.0916  0.7879
 3808TIP3   OH232838   4.955   4.482  12.416  0.2349  0.3116 -0.0079
 3808TIP3    H132839   4.958   4.441  12.503  2.7275  1.2823  0.4055
 3808TIP3    H232840   4.943   4.410  12.355 -1.7862 -0.3693  1.1390
 3809TIP3   OH232841   1.019   5.462   5.067 -0.7825 -0.0025  0.0363
 3809TIP3    H132842   0.959   5.435   5.137 -0.4141 -0.8977  0.0088
 3809TIP3    H232843   0.997   5.404   4.994  0.5973 -0.8222  0.2587
 3810TIP3   OH232844   6.503   1.885  11.765  0.8037 -0.0419  0.0889
 3810TIP3    H132845   6.466   1.973  11.760  0.5229 -0.1711 -0.0826
 3810TIP3    H232846   6.448   1.840  11.829  1.0428 -0.0489  0.2944
 3811TIP3   OH232847   1.525   3.219  15.927 -0.1581 -0.2003  0.2247
 3811TIP3    H132848   1.557   3.186  16.012  1.5502  1.4563  0.2528
 3811TIP3    H232849   1.572   3.301  15.914 -1.6151  0.3758 -1.5914
 3812TIP3   OH232850   0.040   1.410   0.400 -0.2003  0.3104  0.1866
 3812TIP3    H132851   0.025   1.329   0.450  2.0944 -0.5144 -0.4134
 3812TIP3    H232852   0.110   1.388   0.339 -0.5953  2.3344 -1.0293
 3813TIP3   OH232853   1.516   0.489   6.020 -0.1105  0.3953 -0.0648
 3813TIP3    H132854   1.547   0.579   6.030  1.6108 -0.0776 -1.0676
 3813TIP3    H232855   1.487   0.464   6.108 -1.2522  2.1493  0.0861
 3814TIP3   OH232856   0.490   3.472  14.344  0.2137  0.1337 -0.5475
 3814TIP3    H132857   0.534   3.539  14.396  0.2390 -0.2614 -0.0564
 3814TIP3    H232858   0.397   3.481  14.366 -0.0344  1.3084 -1.9670
 3815TIP3   OH232859   2.895   3.645  10.645  0.2837  0.8484 -0.1380
 3815TIP3    H132860   2.968   3.593  10.612 -0.1303  1.0024 -1.3244
 3815TIP3    H232861   2.917   3.663  10.736  1.7544  0.9372 -0.5004
 3816TIP3   OH232862   6.260   1.792   6.195  0.2148 -0.7554 -0.4953
 3816TIP3    H132863   6.203   1.772   6.269  0.1953 -2.9407 -1.0395
 3816TIP3    H232864   6.263   1.710   6.145  3.1017 -0.4423 -0.9557
 3817TIP3   OH232865   3.888   2.787  14.238 -0.2309 -0.4542 -0.6902
 3817TIP3    H132866   3.862   2.701  14.270 -0.1397 -0.5555 -0.8889
 3817TIP3    H232867   3.879   2.781  14.143  0.2036 -0.3833 -0.7380
 3818TIP3   OH232868   1.135   1.197  13.355  0.2792  0.6184 -0.6258
 3818TIP3    H132869   1.194   1.272  13.357  1.2876 -0.1231 -1.4073
 3818TIP3    H232870   1.193   1.121  13.364 -0.4370 -0.1668 -2.2466
 3819TIP3   OH232871   5.931   2.294   5.649  0.1845  0.0546 -0.6897
 3819TIP3    H132872   5.920   2.271   5.741  1.7141  1.8499 -0.0305
 3819TIP3    H232873   6.026   2.300   5.637 -0.0237  0.5221 -2.2025
 3820TIP3   OH232874   2.272   2.809   2.009  0.1136 -0.3191 -0.3969
 3820TIP3    H132875   2.348   2.773   1.962  1.3629  0.1348  1.2214
 3820TIP3    H232876   2.297   2.899   2.030 -1.3635  0.2163 -0.8690
 3821TIP3   OH232877   0.484   6.730   6.026  0.1187  0.3666 -0.7316
 3821TIP3    H132878   0.561   6.682   5.994  0.5665  0.9868 -0.6034
 3821TIP3    H232879   0.504   6.748   6.118 -0.7057 -0.4999 -0.3751
 3822TIP3   OH232880   4.694   5.226  16.364  0.4644 -0.4546 -0.0027
 3822TIP3    H132881   4.648   5.198  16.443 -1.5967 -0.8120 -1.2877
 3822TIP3    H232882   4.768   5.277  16.396  0.4217 -1.7230  2.1907
 3823TIP3   OH232883   2.487   3.782  16.547  0.0308  0.2595  0.1335
 3823TIP3    H132884   2.509   3.798  16.639 -0.0331  0.5306  0.1028
 3823TIP3    H232885   2.397   3.814  16.538 -0.4208 -0.9628  0.2880
 3824TIP3   OH232886   1.530   2.990  11.099  0.0596 -0.2002  0.6435
 3824TIP3    H132887   1.588   3.029  11.034 -0.5540 -2.4798 -1.3546
 3824TIP3    H232888   1.442   3.001  11.063 -0.6040  1.2834  2.6109
 3825TIP3   OH232889   1.124   2.060  16.454  0.0282  0.4936 -0.4005
 3825TIP3    H132890   1.202   2.057  16.398  1.2790  1.0618  1.2986
 3825TIP3    H232891   1.157   2.049  16.543 -1.7739  1.2964  0.3911
 3826TIP3   OH232892   5.040   4.492   3.611 -0.4213 -0.2314 -0.1307
 3826TIP3    H132893   5.004   4.562   3.557 -1.1071 -0.5328 -0.0578
 3826TIP3    H232894   5.080   4.537   3.686 -2.1239 -0.0004  0.6604
 3827TIP3   OH232895   2.020   2.766  14.691 -0.0518 -0.4792  0.1615
 3827TIP3    H132896   2.089   2.726  14.743  0.5630  0.3755  0.0084
 3827TIP3    H232897   2.063   2.837  14.643 -1.1893  0.5879  0.6813
 3828TIP3   OH232898   2.445   2.359  11.333  0.3360  0.1875  0.0773
 3828TIP3    H132899   2.419   2.278  11.377  0.7550  0.6219  1.1619
 3828TIP3    H232900   2.363   2.394  11.297  0.2258 -0.9258 -0.7733
 3829TIP3   OH232901   4.011   1.871  15.088 -0.3135  0.1817 -0.4079
 3829TIP3    H132902   3.948   1.798  15.088 -0.6601  0.4600 -1.8793
 3829TIP3    H232903   4.014   1.899  14.996  1.6271  0.4578 -0.2788
 3830TIP3   OH232904   3.566   6.047   5.374 -0.8691  0.3574  0.2583
 3830TIP3    H132905   3.589   5.967   5.327  0.9624  0.8404  0.3082
 3830TIP3    H232906   3.646   6.100   5.373 -1.9811  2.0903  0.4341
 3831TIP3   OH232907   0.889   5.461   3.832 -0.4282  0.3100 -0.5022
 3831TIP3    H132908   0.953   5.478   3.763  0.0993  3.8504  0.7661
 3831TIP3    H232909   0.807   5.442   3.786  0.2611  1.1718 -2.0813
 3832TIP3   OH232910   2.391   5.270   2.370  0.6813  0.4069  0.4704
 3832TIP3    H132911   2.419   5.200   2.311 -0.1044 -0.0291  0.6121
 3832TIP3    H232912   2.463   5.279   2.433  1.1391  0.2858 -0.0278
 3833TIP3   OH232913   6.095   4.876   5.325 -0.3903  0.2822 -0.0352
 3833TIP3    H132914   6.083   4.926   5.244 -1.2396 -1.2067 -0.8512
 3833TIP3    H232915   6.047   4.794   5.310 -0.5053 -0.0313  1.9596
 3834TIP3   OH232916   6.582   4.726   0.349  0.3411  0.1138  0.0203
 3834TIP3    H132917   6.533   4.804   0.376  0.3645  0.1408 -0.0147
 3834TIP3    H232918   6.673   4.756   0.344  0.5250 -0.2418  1.2553
 3835TIP3   OH232919   2.241   3.080   5.465  0.3273 -0.9710 -0.1018
 3835TIP3    H132920   2.278   3.051   5.382  1.0624  1.6458 -0.7493
 3835TIP3    H232921   2.317   3.110   5.515 -0.5570  1.7084 -0.2951
 3836TIP3   OH232922   0.891   2.243   1.791 -0.2256  0.4003 -0.4195
 3836TIP3    H132923   0.801   2.262   1.818 -0.4243 -1.3350  0.2409
 3836TIP3    H232924   0.942   2.245   1.872  0.4072  1.7425 -0.8441
 3837TIP3   OH232925   5.854   1.029  11.146  0.0267  0.6010  0.3566
 3837TIP3    H132926   5.884   0.985  11.066  1.1717 -0.3528  1.2963
 3837TIP3    H232927   5.814   1.110  11.115 -1.0391 -0.5349 -1.3122
 3838TIP3   OH232928   5.685   4.794  16.571  0.1874  0.0378 -0.8167
 3838TIP3    H132929   5.672   4.705  16.605  1.4782 -0.0779 -0.6104
 3838TIP3    H232930   5.616   4.846  16.614 -0.7259 -0.9013 -1.1241
 3839TIP3   OH232931   0.894   3.432  13.299 -0.2885  0.1441 -0.1311
 3839TIP3    H132932   0.917   3.495  13.231  0.3279  0.6134  0.5057
 3839TIP3    H232933   0.950   3.357  13.281 -0.0591  0.3034 -0.0850
 3840TIP3   OH232934   5.022   1.070   6.081 -0.5603  0.4630 -0.2064
 3840TIP3    H132935   5.010   0.990   6.131  0.1132  1.3646  1.4239
 3840TIP3    H232936   5.075   1.044   6.006  0.8990 -0.3404  1.0822
 3841TIP3   OH232937   5.002   5.116   6.961  0.1188 -0.0813 -0.1133
 3841TIP3    H132938   5.039   5.185   6.906  0.6744  0.5383  1.0288
 3841TIP3    H232939   5.063   5.043   6.952  0.6455  0.3056  0.3357
 3842TIP3   OH232940   1.530   6.629  11.570 -0.5224  0.2004 -0.5704
 3842TIP3    H132941   1.511   6.552  11.624  0.8427 -0.3760 -0.8846
 3842TIP3    H232942   1.484   6.613  11.488 -0.3072 -0.2444 -0.6055
 3843TIP3   OH232943   1.338   6.747   2.297 -0.2064  0.4327 -0.2003
 3843TIP3    H132944   1.278   6.799   2.352 -1.1517 -0.5350 -0.3134
 3843TIP3    H232945   1.421   6.751   2.344 -1.2052 -1.0920  1.7930
 3844TIP3   OH232946   3.703   5.347   2.794 -0.5419 -0.3387 -0.0942
 3844TIP3    H132947   3.783   5.384   2.756 -0.1575 -0.2940  0.7597
 3844TIP3    H232948   3.653   5.423   2.824 -1.2923 -0.3125 -1.3788
 3845TIP3   OH232949   3.986   2.311  12.372 -0.6259  0.1620  0.0307
 3845TIP3    H132950   3.915   2.313  12.436 -1.7822  0.5371 -1.2420
 3845TIP3    H232951   4.065   2.299  12.425 -1.7273 -1.3991  1.3829
 3846TIP3   OH232952   6.285   3.249  13.312 -0.2485  0.3021 -0.8065
 3846TIP3    H132953   6.272   3.231  13.405  1.1512  0.2030 -0.6186
 3846TIP3    H232954   6.225   3.189  13.268 -0.2760 -0.2803  0.0062
 3847TIP3   OH232955   5.945   3.071   0.319 -0.3260 -0.1447 -0.4239
 3847TIP3    H132956   6.004   3.143   0.341 -0.1164 -0.6198  0.5939
 3847TIP3    H232957   6.002   3.003   0.282 -0.4339 -0.0364 -0.7890
 3848TIP3   OH232958   2.883   6.226   0.247 -0.4761  0.4478  0.1451
 3848TIP3    H132959   2.893   6.234   0.153 -3.8510  0.6094 -0.2535
 3848TIP3    H232960   2.972   6.235   0.282  1.0545 -1.3061 -3.0929
 3849TIP3   OH232961   3.730   4.156   4.819  0.2249 -0.3625 -0.0122
 3849TIP3    H132962   3.742   4.069   4.779 -1.3111 -0.3798 -0.4338
 3849TIP3    H232963   3.777   4.149   4.902  1.3633 -1.1216 -0.6961
 3850TIP3   OH232964   1.620   5.236   1.723  0.4891 -0.4470 -0.2431
 3850TIP3    H132965   1.660   5.230   1.637  0.7996  1.8848 -0.2793
 3850TIP3    H232966   1.564   5.158   1.729  2.6281 -2.1217 -1.3965
 3851TIP3   OH232967   6.647   5.573   2.928  0.2120 -0.4456 -0.5207
 3851TIP3    H132968   6.576   5.529   2.975 -0.6325 -0.1239 -1.4779
 3851TIP3    H232969   6.720   5.574   2.990 -0.8136 -0.2326  0.7086
 3852TIP3   OH232970   1.094   1.138  15.246 -0.4687 -0.0093  0.2294
 3852TIP3    H132971   1.014   1.171  15.206  0.6875 -0.2857 -2.4008
 3852TIP3    H232972   1.100   1.047  15.217  0.6735 -0.0688  0.6130
 3853TIP3   OH232973   2.158   0.225   4.446 -0.1525  0.6249  0.3310
 3853TIP3    H132974   2.117   0.252   4.528 -2.3102  1.0143 -0.8094
 3853TIP3    H232975   2.247   0.259   4.450  0.0912 -0.2612  2.9287
 3854TIP3   OH232976   4.645   5.407  17.104  0.2034  0.0057 -0.1481
 3854TIP3    H132977   4.609   5.335  17.156 -1.7180 -0.1240 -1.6016
 3854TIP3    H232978   4.577   5.475  17.108  0.5208  0.4211 -1.5449
 3855TIP3   OH232979   6.544   3.321   0.701  0.1376  0.0292  0.4132
 3855TIP3    H132980   6.619   3.313   0.642  0.3426 -0.3934  0.7235
 3855TIP3    H232981   6.501   3.236   0.695 -0.9481  0.6382 -0.6004
 3856TIP3   OH232982   3.219   3.912   6.145  0.2109 -0.1452  0.3049
 3856TIP3    H132983   3.248   3.827   6.111 -1.7345 -0.2767 -1.1294
 3856TIP3    H232984   3.151   3.890   6.209 -0.9111  0.3154 -0.6949
 3857TIP3   OH232985   2.580   2.784   5.718  0.0651 -0.1382 -0.3678
 3857TIP3    H132986   2.576   2.689   5.705 -3.8758 -0.0128 -0.8595
 3857TIP3    H232987   2.595   2.795   5.812 -1.5654 -1.3210  0.0604
 3858TIP3   OH232988   6.011   1.961   5.498  0.3962 -0.3317  0.3213
 3858TIP3    H132989   6.067   1.991   5.569 -0.3511  2.2176 -0.1268
 3858TIP3    H232990   5.922   1.977   5.529 -0.0069 -1.3535 -0.2679
 3859TIP3   OH232991   1.211   2.005   5.822  0.4487 -0.1240  0.5942
 3859TIP3    H132992   1.264   2.015   5.901  0.9267 -1.7684  0.4828
 3859TIP3    H232993   1.238   2.078   5.766  1.0234  0.3043  1.4178
 3860TIP3   OH232994   4.907   2.840   2.588 -0.3715 -0.5534 -0.3665
 3860TIP3    H132995   4.999   2.866   2.587 -0.7177  0.8821  1.7814
 3860TIP3    H232996   4.859   2.921   2.570 -1.3310 -0.4896  2.3262
 3861TIP3   OH232997   5.091   6.164   1.408 -0.2147 -0.6876  0.0312
 3861TIP3    H132998   5.139   6.140   1.329  0.1751 -2.1282  0.6924
 3861TIP3    H232999   5.026   6.228   1.378  0.2147 -0.8925 -1.3730
 3862TIP3   OH233000   5.698   3.944  13.558 -0.0245  0.6938 -0.4550
 3862TIP3    H133001   5.712   4.017  13.498  0.3004  0.0788 -1.1249
 3862TIP3    H233002   5.625   3.895  13.522  0.1885  0.3065 -0.3631
 3863TIP3   OH233003   5.011   1.021   4.738 -0.0477  0.3995  0.2150
 3863TIP3    H133004   4.916   1.017   4.746 -0.0885  0.4878 -0.2258
 3863TIP3    H233005   5.033   1.112   4.755  0.1469 -0.0055  2.2791
 3864TIP3   OH233006   0.317   5.922   2.729  0.0627 -0.3731 -0.1549
 3864TIP3    H133007   0.346   6.005   2.767  3.0585 -1.5851  0.3419
 3864TIP3    H233008   0.311   5.940   2.635 -0.4047  0.6841  0.0636
 3865TIP3   OH233009   3.345   2.748   6.504 -0.6428  0.4818  0.0810
 3865TIP3    H133010   3.415   2.687   6.479  0.2941  1.6905 -0.3147
 3865TIP3    H233011   3.338   2.738   6.599  0.6306  0.9034  0.2395
 3866TIP3   OH233012   5.369   5.179   0.713 -0.1083 -0.0556 -0.2978
 3866TIP3    H133013   5.431   5.250   0.701 -0.5718  0.2842 -0.7071
 3866TIP3    H233014   5.416   5.100   0.686  1.1346 -0.2081  2.2043
 3867TIP3   OH233015   0.906   4.367   2.748 -0.1564  0.0518 -0.5937
 3867TIP3    H133016   0.878   4.306   2.679  1.6468  0.8854 -2.1360
 3867TIP3    H233017   0.956   4.434   2.701  0.4813  1.0613  1.4619
 3868TIP3   OH233018   1.777   4.386  12.742  0.2052  0.2174  0.5194
 3868TIP3    H133019   1.727   4.366  12.821  0.1097 -0.9850  0.1610
 3868TIP3    H233020   1.747   4.322  12.677  2.8079 -1.0965  0.5508
 3869TIP3   OH233021   0.818   5.411  11.410  0.3015 -0.9443  0.0444
 3869TIP3    H133022   0.726   5.409  11.437 -0.6958 -0.0978 -3.1099
 3869TIP3    H233023   0.828   5.337  11.351  1.1106  0.1485 -1.2171
 3870TIP3   OH233024   3.033   5.389   1.258  0.2912 -0.2484  0.3999
 3870TIP3    H133025   3.051   5.411   1.349  1.1571 -0.9764  0.4085
 3870TIP3    H233026   3.111   5.343   1.228  1.2680  2.6417 -1.6274
 3871TIP3   OH233027   5.073   4.373  17.146 -0.0311 -0.2402  0.0435
 3871TIP3    H133028   5.025   4.358  17.227  0.2583  1.0287  0.4586
 3871TIP3    H233029   5.117   4.289  17.128 -2.6075 -1.5170 -0.5035
 3872TIP3   OH233030   3.078   0.360   3.766 -0.7169 -0.2283  0.6404
 3872TIP3    H133031   3.128   0.284   3.737 -2.1715 -0.2925 -1.8110
 3872TIP3    H233032   2.990   0.326   3.782 -1.5932  1.0551 -1.2497
 3873TIP3   OH233033   0.071   5.110   3.897 -0.0236 -0.4174 -0.5680
 3873TIP3    H133034   0.116   5.027   3.911 -0.1259 -0.2573  0.7748
 3873TIP3    H233035   0.019   5.124   3.976  0.3532  1.1441 -0.5655
 3874TIP3   OH233036   1.144   5.497  13.889  0.1506 -0.1875 -0.9717
 3874TIP3    H133037   1.097   5.424  13.849  0.5532 -0.9568 -0.0630
 3874TIP3    H233038   1.149   5.474  13.982  1.1040  0.5478 -0.8337
 3875TIP3   OH233039   1.544   4.734  16.843  0.9331  0.0752 -0.2672
 3875TIP3    H133040   1.589   4.654  16.815 -0.6170 -0.6975 -0.5832
 3875TIP3    H233041   1.562   4.797  16.773 -1.0113 -1.1617 -1.9403
 3876TIP3   OH233042   6.652   0.555  14.131 -0.1145 -0.2287 -0.4950
 3876TIP3    H133043   6.688   0.601  14.054 -1.8324  1.0219 -0.5914
 3876TIP3    H233044   6.726   0.504  14.165  0.5776 -1.1228 -3.2068
 3877TIP3   OH233045   6.351   4.971  14.199 -0.2296  0.1640 -0.4088
 3877TIP3    H133046   6.309   5.056  14.187 -0.0997  0.4664  1.2437
 3877TIP3    H233047   6.410   4.983  14.274  0.9110 -0.9629 -1.0957
 3878TIP3   OH233048   1.628   2.823  16.713  0.2269 -0.2507  0.1667
 3878TIP3    H133049   1.582   2.830  16.630  0.3579  0.1189  0.1249
 3878TIP3    H233050   1.721   2.832  16.691  0.1474  1.9059  0.5776
 3879TIP3   OH233051   6.615   6.144   5.324 -0.2185 -0.1611  0.7131
 3879TIP3    H133052   6.601   6.191   5.405  0.5664  1.7829 -0.2509
 3879TIP3    H233053   6.569   6.195   5.258  1.0967 -0.4301 -0.4405
 3880TIP3   OH233054   5.337   1.674  12.105 -0.3908  0.3394 -0.1069
 3880TIP3    H133055   5.296   1.652  12.021 -2.0669 -1.2249  1.0724
 3880TIP3    H233056   5.424   1.635  12.100 -0.1235  1.0769 -1.4813
 3881TIP3   OH233057   1.031   0.896   1.166 -0.6844 -0.6829  0.0479
 3881TIP3    H133058   1.114   0.867   1.128 -1.9850 -2.5028 -1.4451
 3881TIP3    H233059   1.008   0.828   1.230 -1.5564 -0.7112 -0.2958
 3882TIP3   OH233060   4.595   5.333  13.868 -0.2314  0.2895  0.6723
 3882TIP3    H133061   4.647   5.379  13.801  0.3806 -2.6207 -0.9375
 3882TIP3    H233062   4.515   5.307  13.822 -0.0449 -1.2551  1.2060
 3883TIP3   OH233063   0.015   4.538  16.530 -0.0124 -0.3056  0.0834
 3883TIP3    H133064  -0.058   4.575  16.480  0.6824 -0.4992 -1.0717
 3883TIP3    H233065  -0.016   4.541  16.621 -0.5385  1.7579 -0.1339
 3884TIP3   OH233066   5.577   2.984   0.093 -0.3299 -0.4129 -0.0939
 3884TIP3    H133067   5.485   2.967   0.113  0.1154 -2.7412  0.1663
 3884TIP3    H233068   5.625   2.954   0.170  0.7680 -1.2268 -1.0612
 3885TIP3   OH233069   2.386   1.930  11.961 -0.6877  0.7081 -0.1257
 3885TIP3    H133070   2.339   1.889  12.034  0.8791  0.6391  0.8805
 3885TIP3    H233071   2.359   2.021  11.964  0.2585  0.9707  1.3338
 3886TIP3   OH233072   3.476   2.850  14.197 -0.1391  0.2287 -0.6282
 3886TIP3    H133073   3.398   2.849  14.253 -0.2968  0.8647 -0.8421
 3886TIP3    H233074   3.495   2.942  14.183  2.2517  0.1578  1.6624
 3887TIP3   OH233075   6.730   2.062   0.581  0.1828 -0.3520 -0.0520
 3887TIP3    H133076   6.825   2.071   0.591  0.2917 -0.9216 -0.5381
 3887TIP3    H233077   6.716   1.968   0.570 -0.4667 -0.2936  0.2795
 3888TIP3   OH233078   0.947   1.421   1.746 -0.2799  0.1384 -0.0409
 3888TIP3    H133079   0.876   1.480   1.718 -0.2499 -0.8208 -2.2914
 3888TIP3    H233080   0.904   1.358   1.803 -1.1180  0.0328 -0.7666
 3889TIP3   OH233081   3.325   2.748  14.528 -0.0956 -0.1511  0.1665
 3889TIP3    H133082   3.319   2.843  14.544 -0.1902 -0.1408  0.0647
 3889TIP3    H233083   3.263   2.731  14.457 -0.2508 -0.3276  0.3433
 3890TIP3   OH233084   6.732   1.012  12.822  0.3196  0.1628 -0.2697
 3890TIP3    H133085   6.813   0.966  12.844  0.4284 -0.2386 -1.4354
 3890TIP3    H233086   6.720   0.994  12.728 -1.2960 -0.0684 -0.0273
 3891TIP3   OH233087   2.197   3.223  14.181  0.1173  0.6427 -0.6806
 3891TIP3    H133088   2.248   3.289  14.134  0.6324  0.5944 -0.2006
 3891TIP3    H233089   2.223   3.140  14.141  0.0927  0.6567 -0.7260
 3892TIP3   OH233090   3.460   3.233  13.399  0.2680 -0.8611  0.2958
 3892TIP3    H133091   3.497   3.147  13.420 -3.1730 -1.8647  2.6995
 3892TIP3    H233092   3.508   3.294  13.455  0.5433 -1.6999  0.9969
 3893TIP3   OH233093   2.640   5.539   5.103 -0.3677 -0.5991 -0.4308
 3893TIP3    H133094   2.596   5.510   5.023 -2.2035  1.4417 -0.2232
 3893TIP3    H233095   2.599   5.486   5.172 -0.7551 -0.4135 -0.5171
 3894TIP3   OH233096   2.027   0.298  12.393  0.2123  0.0589 -0.3993
 3894TIP3    H133097   2.030   0.254  12.308 -1.6083 -0.2618 -0.3256
 3894TIP3    H233098   2.046   0.390  12.373  1.3215 -0.2775 -0.9294
 3895TIP3   OH233099   6.080   0.115  13.380 -0.1616 -0.3155 -0.3171
 3895TIP3    H133100   6.118   0.096  13.294 -0.4752 -1.3156 -0.2303
 3895TIP3    H233101   5.998   0.067  13.382 -1.2605  1.5202 -0.3348
 3896TIP3   OH233102   6.629   3.170  14.115 -0.3536  0.1178 -0.8606
 3896TIP3    H133103   6.722   3.158  14.098 -0.3983 -0.7126 -0.5721
 3896TIP3    H233104   6.586   3.140  14.035 -0.3784  0.2555 -0.8983
 3897TIP3   OH233105   2.319   4.894  16.613  0.1959 -0.0463  0.0537
 3897TIP3    H133106   2.313   4.976  16.663 -0.4702  0.0946 -0.2481
 3897TIP3    H233107   2.405   4.859  16.635  0.2731  0.4703  0.5997
 3898TIP3   OH233108   5.249   4.747   0.471 -0.5945  0.0923 -0.0088
 3898TIP3    H133109   5.161   4.765   0.437 -1.5708 -0.1799  2.2478
 3898TIP3    H233110   5.249   4.653   0.487  0.5176 -0.0914 -1.0365
 3899TIP3   OH233111   2.964   3.924  10.805 -0.1319  0.0454  0.8068
 3899TIP3    H133112   3.046   3.878  10.787  0.2750  1.4326 -1.1250
 3899TIP3    H233113   2.985   3.984  10.877  0.3458 -0.1966  0.8724
 3900TIP3   OH233114   1.667   4.394   2.264  0.2403 -0.0006  0.2326
 3900TIP3    H133115   1.638   4.397   2.173  0.2341 -0.6286  0.2119
 3900TIP3    H233116   1.755   4.431   2.262 -0.5115  1.8293  0.2854
 3901TIP3   OH233117   4.505   2.501  15.718 -0.7519 -0.4642  0.3938
 3901TIP3    H133118   4.461   2.578  15.755 -0.3391 -1.2782  2.6312
 3901TIP3    H233119   4.471   2.495  15.629 -1.9787  1.3896  0.7056
 3902TIP3   OH233120   3.391   5.587   2.988  0.5337 -0.0053  0.1292
 3902TIP3    H133121   3.425   5.527   2.921  0.9755 -0.1754  0.5012
 3902TIP3    H233122   3.361   5.529   3.058 -0.3624  0.1535 -0.1280
 3903TIP3   OH233123   3.609   2.637   4.867 -0.2419 -0.5962  0.4499
 3903TIP3    H133124   3.659   2.597   4.796 -1.6317  0.2159 -1.0185
 3903TIP3    H233125   3.519   2.611   4.850 -0.7295  0.4967  1.3189
 3904TIP3   OH233126   4.380   4.152  13.995  0.3473 -0.6888 -0.2433
 3904TIP3    H133127   4.389   4.079  13.934 -1.5246  0.0727 -1.4931
 3904TIP3    H233128   4.306   4.127  14.051 -0.4953  0.3397 -0.8655
 3905TIP3   OH233129   3.491   4.811  13.473 -0.2632  0.0040 -0.1531
 3905TIP3    H133130   3.559   4.818  13.406 -0.2814  0.2069 -0.1530
 3905TIP3    H233131   3.502   4.724  13.511 -0.1158 -0.0289 -0.2734
 3906TIP3   OH233132   1.229   0.236   5.684  0.2317 -0.4567 -0.1031
 3906TIP3    H133133   1.190   0.323   5.686  0.8618 -0.1520 -0.9189
 3906TIP3    H233134   1.234   0.209   5.776  0.1514  0.4148  0.1545
 3907TIP3   OH233135   3.853   5.724   1.988 -0.1979  0.2157 -0.0531
 3907TIP3    H133136   3.851   5.663   2.062 -3.1593  1.5108  1.0191
 3907TIP3    H233137   3.771   5.708   1.941  0.8375  0.6470 -2.0743
 3908TIP3   OH233138   0.757   0.706   1.347 -0.0539  0.4774  0.2494
 3908TIP3    H133139   0.754   0.797   1.378  1.3442  0.7167 -0.2429
 3908TIP3    H233140   0.667   0.685   1.323 -0.6442  1.2451  1.7366
 3909TIP3   OH233141   2.290   1.602  17.212 -0.4687  0.8391 -0.8337
 3909TIP3    H133142   2.343   1.613  17.291 -1.3270  1.0389 -0.2763
 3909TIP3    H233143   2.322   1.670  17.152  1.0187 -0.1104 -1.1247
 3910TIP3   OH233144   3.561   6.707  13.894 -0.3117 -0.6869 -0.3579
 3910TIP3    H133145   3.466   6.708  13.893 -0.3230 -1.9155 -1.2651
 3910TIP3    H233146   3.586   6.790  13.934 -1.7684 -0.5643  0.3046
 3911TIP3   OH233147   0.483   3.551  15.994 -0.0524  1.1414  0.1230
 3911TIP3    H133148   0.522   3.567  16.080 -0.2773 -1.3208  0.6971
 3911TIP3    H233149   0.439   3.633  15.972  0.2153  1.8665  2.2310
 3912TIP3   OH233150   3.074   3.613   1.509  0.0653 -0.3926 -0.5605
 3912TIP3    H133151   3.021   3.533   1.509  3.4641 -2.8223  2.6172
 3912TIP3    H233152   3.123   3.609   1.427  0.5460 -1.8322 -0.2182
 3913TIP3   OH233153   0.054   4.576   2.416  0.4908 -0.4579  0.1539
 3913TIP3    H133154   0.035   4.539   2.330  0.5702 -1.8167  0.7215
 3913TIP3    H233155   0.111   4.512   2.458  1.8322  0.9789  0.5889
 3914TIP3   OH233156   2.616   1.939   5.571  0.1847 -0.0850  0.3581
 3914TIP3    H133157   2.659   1.888   5.640 -0.1492  1.8441  2.0224
 3914TIP3    H233158   2.526   1.905   5.569  0.1973 -0.1529  0.8594
 3915TIP3   OH233159   6.427   1.252  11.517  0.3097  0.0091  0.0267
 3915TIP3    H133160   6.501   1.194  11.535  0.4563  0.2174  0.0945
 3915TIP3    H233161   6.413   1.244  11.422  0.9493  0.5991 -0.1268
 3916TIP3   OH233162   2.401   4.562   4.280  0.3481 -0.5311 -0.1030
 3916TIP3    H133163   2.434   4.524   4.362  1.8795 -1.3821 -1.0858
 3916TIP3    H233164   2.478   4.603   4.240 -0.2815 -0.5490 -1.3582
 3917TIP3   OH233165   1.481   5.449  13.664 -0.4333 -0.1794 -0.2782
 3917TIP3    H133166   1.456   5.515  13.599 -0.1694  0.8422  0.6475
 3917TIP3    H233167   1.508   5.373  13.612 -0.5142  0.5243 -1.3562
 3918TIP3   OH233168   0.208   4.830   5.027  1.1965  0.3744  0.1249
 3918TIP3    H133169   0.121   4.865   5.006  1.3201 -0.1671 -1.3261
 3918TIP3    H233170   0.207   4.819   5.122 -0.9338 -1.2109 -0.0497
 3919TIP3   OH233171   4.433   6.490  15.795  0.0612 -0.0902  0.2695
 3919TIP3    H133172   4.497   6.487  15.724  0.6041 -1.2375  0.7998
 3919TIP3    H233173   4.350   6.468  15.753  0.4193 -1.0013  0.0275
 3920TIP3   OH233174   5.773   5.356   5.177  0.1687  0.2108  0.1482
 3920TIP3    H133175   5.716   5.314   5.242 -1.0961  0.8000 -0.5739
 3920TIP3    H233176   5.760   5.450   5.190 -0.5707  0.3290 -1.3698
 3921TIP3   OH233177   0.737   2.069  15.480 -0.2022 -0.1270 -0.0925
 3921TIP3    H133178   0.659   2.015  15.472  0.3012 -0.7729 -0.7377
 3921TIP3    H233179   0.779   2.039  15.561  2.2180 -3.6032 -2.4631
 3922TIP3   OH233180   4.537   0.183   0.321 -0.2750 -0.0022 -0.5101
 3922TIP3    H133181   4.568   0.208   0.408 -0.7979 -0.7933 -0.0844
 3922TIP3    H233182   4.602   0.121   0.289 -1.4196 -1.7460  0.4281
 3923TIP3   OH233183   4.827   5.694   2.982  0.1278  0.4328  0.0082
 3923TIP3    H133184   4.811   5.649   3.066  1.4353  1.0795  0.6139
 3923TIP3    H233185   4.792   5.782   2.996  0.4922  0.5892 -0.0708
 3924TIP3   OH233186   6.721   0.365  11.447 -0.9014 -0.1994  0.2411
 3924TIP3    H133187   6.765   0.388  11.529 -1.5550 -0.8082  0.7700
 3924TIP3    H233188   6.726   0.269  11.444  0.2230 -0.1021 -1.0511
 3925TIP3   OH233189   2.726   1.347  13.546  0.5699  0.4144 -0.4844
 3925TIP3    H133190   2.800   1.361  13.605 -0.1629  2.5575 -0.0508
 3925TIP3    H233191   2.704   1.254  13.557  1.0290  0.5579  1.8956
 3926TIP3   OH233192   5.413   5.673   2.105  0.0860 -0.2385 -0.2018
 3926TIP3    H133193   5.436   5.580   2.103 -0.0689 -0.2628 -0.8627
 3926TIP3    H233194   5.331   5.679   2.057  0.6342  0.3965 -1.0802
 3927TIP3   OH233195   4.613   5.928   0.484  0.4606  0.6541 -0.2302
 3927TIP3    H133196   4.655   5.856   0.531 -1.0327  0.7109  1.2568
 3927TIP3    H233197   4.604   5.897   0.394  2.3562  0.1001 -0.2330
 3928TIP3   OH233198   4.725   2.647   5.744  0.0227 -1.1286  0.5991
 3928TIP3    H133199   4.714   2.736   5.712 -0.0291 -1.6665 -0.8986
 3928TIP3    H233200   4.684   2.648   5.831  3.5406  1.3342  2.3717
 3929TIP3   OH233201   1.768   2.322  10.891  0.2072  0.1410  0.4177
 3929TIP3    H133202   1.839   2.351  10.833 -0.1006 -0.2367 -0.1565
 3929TIP3    H233203   1.786   2.229  10.907 -1.9333 -0.8438 -2.4069
 3930TIP3   OH233204   0.353   6.731  16.073  0.1611  0.2168 -0.1387
 3930TIP3    H133205   0.383   6.667  16.008 -0.4839 -1.3260  1.0432
 3930TIP3    H233206   0.264   6.752  16.047  0.1761  0.2027 -0.1999
 3931TIP3   OH233207   6.164   3.385   1.866  0.3306 -0.1740 -0.3352
 3931TIP3    H133208   6.227   3.385   1.938  1.5049  1.2396 -1.3136
 3931TIP3    H233209   6.097   3.322   1.892  0.1132  1.1601  2.5246
 3932TIP3   OH233210   5.480   3.863  13.397 -0.1715  0.1877  0.3943
 3932TIP3    H133211   5.449   3.952  13.414 -0.2733  0.1000  0.6750
 3932TIP3    H233212   5.401   3.813  13.378  0.0946  0.6542 -2.0471
 3933TIP3   OH233213   1.217   4.899  17.207 -0.0250 -0.1584  0.2096
 3933TIP3    H133214   1.190   4.985  17.239  0.1368  0.0553 -0.2165
 3933TIP3    H233215   1.200   4.839  17.280 -1.3151  0.0233  0.0790
 3934TIP3   OH233216   6.423   0.196   2.323  0.6483 -0.5398  0.2303
 3934TIP3    H133217   6.370   0.117   2.324  1.0303 -0.7927  0.4317
 3934TIP3    H233218   6.406   0.235   2.237 -0.8152  0.0264  0.7637
 3935TIP3   OH233219   5.591   0.348  16.952  0.2334 -0.4191  0.1530
 3935TIP3    H133220   5.552   0.365  17.038  0.5498  0.3428  0.1495
 3935TIP3    H233221   5.522   0.370  16.890  0.0018 -0.9775  0.2063
 3936TIP3   OH233222   0.172   2.522   2.652  0.6480  0.2324  0.2116
 3936TIP3    H133223   0.258   2.540   2.613  0.3599 -0.0046 -0.5429
 3936TIP3    H233224   0.179   2.555   2.742  1.3848  0.6134  0.0189
 3937TIP3   OH233225   4.912   2.117  11.212 -0.3451  0.6601 -0.2897
 3937TIP3    H133226   4.913   2.206  11.248 -0.4999  0.3233  0.5659
 3937TIP3    H233227   4.820   2.091  11.216  0.0990 -0.6540  2.2950
 3938TIP3   OH233228   0.595   4.301  16.572 -0.6602 -1.1455 -0.1254
 3938TIP3    H133229   0.650   4.302  16.651  1.3445  0.0473 -1.5207
 3938TIP3    H233230   0.622   4.223  16.525 -0.6361 -0.9068 -0.5053
 3939TIP3   OH233231   4.850   0.934  11.865 -0.4476  0.2270  0.1118
 3939TIP3    H133232   4.815   0.993  11.797  0.6669 -0.8728 -1.4648
 3939TIP3    H233233   4.774   0.886  11.897 -0.9636  0.6176 -0.5148
 3940TIP3   OH233234   0.665   6.754   0.518  0.3889 -0.0877 -0.6106
 3940TIP3    H133235   0.576   6.786   0.535  0.3701 -0.3233 -0.2433
 3940TIP3    H233236   0.715   6.784   0.594 -0.2382 -3.2920  1.1711
 3941TIP3   OH233237   5.158   4.458  10.906  0.0575  0.3534 -0.0878
 3941TIP3    H133238   5.126   4.505  10.984 -2.0929  2.0912 -1.9531
 3941TIP3    H233239   5.253   4.474  10.906  0.3760 -1.0916  3.0589
 3942TIP3   OH233240   5.193   0.667  12.318 -0.1950 -0.2526  0.0997
 3942TIP3    H133241   5.272   0.634  12.274 -0.3062  0.0448 -0.3199
 3942TIP3    H233242   5.226   0.702  12.401 -0.1801 -2.1274  0.9026
 3943TIP3   OH233243   5.289   0.426  16.505 -0.1804 -0.7455  0.1376
 3943TIP3    H133244   5.287   0.426  16.410  0.6997  0.6194  0.1041
 3943TIP3    H233245   5.200   0.449  16.532 -0.1551 -0.0330 -0.3773
 3944TIP3   OH233246   2.065   4.345  10.922  0.2410 -0.0305  0.8374
 3944TIP3    H133247   2.033   4.258  10.897  1.4027 -0.3741  0.4682
 3944TIP3    H233248   2.140   4.360  10.864  0.4646  0.9292  1.3595
 3945TIP3   OH233249   4.881   4.835   3.734  0.1424 -0.4952 -0.1980
 3945TIP3    H133250   4.804   4.888   3.714  1.3701  1.7599  0.8947
 3945TIP3    H233251   4.908   4.798   3.650 -0.6001  0.8309 -1.0237
 3946TIP3   OH233252   1.706   6.373   4.454 -0.3026  0.6769 -0.1735
 3946TIP3    H133253   1.667   6.364   4.367 -0.7591  0.0801  0.0895
 3946TIP3    H233254   1.791   6.330   4.448 -1.4079 -1.6908  0.3734
 3947TIP3   OH233255   0.633   2.716  12.521 -0.1034 -0.5401  0.4984
 3947TIP3    H133256   0.704   2.682  12.575  1.2129  0.4438 -0.5644
 3947TIP3    H233257   0.653   2.809  12.511 -1.1131 -0.4119 -0.4730
 3948TIP3   OH233258   5.613   2.563  12.849 -0.3603  0.3976  0.3128
 3948TIP3    H133259   5.640   2.477  12.817 -0.6246  0.9695 -1.5052
 3948TIP3    H233260   5.690   2.597  12.894  0.2210 -0.2114 -0.2082
 3949TIP3   OH233261   4.440   0.443  12.817  0.1981  0.0699  0.6997
 3949TIP3    H133262   4.396   0.360  12.796  0.9217 -0.1292 -0.0775
 3949TIP3    H233263   4.415   0.501  12.745 -1.9723  1.1920  2.2795
 3950TIP3   OH233264   1.540   6.385  14.024  0.3740 -0.3922  0.0014
 3950TIP3    H133265   1.498   6.467  14.051  1.2838 -0.4690  1.7630
 3950TIP3    H233266   1.633   6.398  14.046  0.6100 -1.6788 -0.2167
 3951TIP3   OH233267   3.372   0.933   5.887 -0.3689 -0.2416 -0.1891
 3951TIP3    H133268   3.279   0.921   5.871 -0.4291  1.0301 -0.9150
 3951TIP3    H233269   3.402   0.849   5.921 -1.9381 -0.4140  0.8057
 3952TIP3   OH233270   3.570   3.848   6.110 -0.4388  0.3364 -0.0907
 3952TIP3    H133271   3.513   3.787   6.063  1.2112 -2.5564  1.5121
 3952TIP3    H233272   3.546   3.836   6.202  0.9909  0.9563  0.3678
 3953TIP3   OH233273   3.923   5.304   4.955 -1.0653  0.0009  0.0109
 3953TIP3    H133274   3.910   5.297   4.861  0.8577  0.1885 -0.2704
 3953TIP3    H233275   3.910   5.215   4.988  2.3986 -0.9379 -0.9645
 3954TIP3   OH233276   1.538   5.440  16.117  0.2314 -0.1719  0.1680
 3954TIP3    H133277   1.598   5.428  16.190 -0.8697  0.5671  1.2171
 3954TIP3    H233278   1.593   5.433  16.039  1.3999 -1.1106  1.0523
 3955TIP3   OH233279   1.566   1.022   3.729 -0.0458 -0.3648 -0.1809
 3955TIP3    H133280   1.587   1.111   3.757  0.5674 -0.2444 -1.0137
 3955TIP3    H233281   1.513   0.986   3.801  0.1561  0.4834  0.3968
 3956TIP3   OH233282   3.280   5.574  11.543  0.7979 -0.7741 -0.3577
 3956TIP3    H133283   3.359   5.524  11.520  1.2049 -0.5426  0.5328
 3956TIP3    H233284   3.208   5.518  11.516  1.2597 -1.2671 -0.5847
 3957TIP3   OH233285   4.975   4.036   5.836 -0.6522 -0.0307  0.3187
 3957TIP3    H133286   4.932   4.122   5.833 -3.3352 -1.3569 -0.6492
 3957TIP3    H233287   4.905   3.975   5.859  1.5312 -1.8175  2.5439
 3958TIP3   OH233288   5.240   2.042   3.643  0.5054 -0.2548 -0.4164
 3958TIP3    H133289   5.295   1.992   3.583  1.5677  1.2674 -0.7300
 3958TIP3    H233290   5.290   2.122   3.662 -1.1908  0.7447  0.0050
 3959TIP3   OH233291   1.954   6.446   3.709 -0.0504  0.1486  0.2159
 3959TIP3    H133292   1.884   6.380   3.703 -1.0864  1.3535 -1.5511
 3959TIP3    H233293   1.998   6.441   3.623  3.3151 -1.9116  1.9286
 3960TIP3   OH233294   0.625   6.276   0.356 -0.1181 -0.2285  0.4056
 3960TIP3    H133295   0.584   6.275   0.442 -1.0768  0.2955 -0.0400
 3960TIP3    H233296   0.684   6.351   0.357 -1.6620  1.0271 -0.0847
 3961TIP3   OH233297   4.040   0.415  11.948 -0.1895 -0.3253 -0.2062
 3961TIP3    H133298   4.117   0.360  11.932  0.7782  0.8056  0.4999
 3961TIP3    H233299   3.967   0.354  11.948  0.9862 -1.8179  1.7670
 3962TIP3   OH233300   3.596   0.359   4.255  0.4024  0.0566  0.3996
 3962TIP3    H133301   3.615   0.279   4.206  1.0602  1.1231 -1.1012
 3962TIP3    H233302   3.582   0.426   4.188 -0.5537  1.1257  1.6348
 3963TIP3   OH233303   2.447   2.629   3.609  0.0875  0.0983 -0.6358
 3963TIP3    H133304   2.446   2.697   3.541 -1.8781 -0.3197 -1.0603
 3963TIP3    H233305   2.418   2.550   3.564  1.2494 -0.7695  0.1254
 3964TIP3   OH233306   1.148   0.703   3.418 -0.0206 -0.1194  0.3175
 3964TIP3    H133307   1.111   0.624   3.457  0.9221  0.1903  1.8726
 3964TIP3    H233308   1.177   0.675   3.331  0.0168 -1.3978  0.7291
 3965TIP3   OH233309   5.467   4.423   3.788 -0.5760  0.9521  0.8217
 3965TIP3    H133310   5.524   4.500   3.799  3.3961 -1.8337  0.6512
 3965TIP3    H233311   5.410   4.426   3.864  0.2439  3.4623  1.4160
 3966TIP3   OH233312   0.625   5.785  16.344  0.0526  0.8654  0.0825
 3966TIP3    H133313   0.608   5.752  16.432  0.6111  2.1868  0.7038
 3966TIP3    H233314   0.631   5.707  16.289  0.2715  0.0014  1.3245
 3967TIP3   OH233315   4.915   5.354  14.038 -0.4298 -0.6218 -0.0528
 3967TIP3    H133316   4.874   5.438  14.057  0.5930 -0.1019 -0.1000
 3967TIP3    H233317   4.845   5.290  14.049 -1.6012  0.3830 -1.5711
 3968TIP3   OH233318   0.660   6.061  13.425 -0.3485  0.3843 -0.0047
 3968TIP3    H133319   0.696   5.998  13.363 -0.5058 -0.1400  0.4259
 3968TIP3    H233320   0.652   6.012  13.507 -0.8943  0.8359  0.2181
 3969TIP3   OH233321   5.683   2.320  15.467 -0.5890  0.9988  0.3179
 3969TIP3    H133322   5.752   2.313  15.533 -0.9753  2.3122  0.8689
 3969TIP3    H233323   5.635   2.399  15.490 -0.0363  2.1075 -2.2038
 3970TIP3   OH233324   3.101   4.513  15.907  0.1471  0.2799  0.3111
 3970TIP3    H133325   3.123   4.475  15.822 -0.2096 -1.6503  1.0572
 3970TIP3    H233326   3.034   4.579  15.887  0.3906  0.1573 -0.9502
 3971TIP3   OH233327   2.067   4.367   5.496  0.5019 -0.2855 -0.0842
 3971TIP3    H133328   2.127   4.314   5.548  1.5607  0.0374 -0.9608
 3971TIP3    H233329   2.044   4.311   5.422  0.8463  0.0983 -0.4908
 3972TIP3   OH233330   1.902   6.417  17.066 -0.6536  0.5412 -0.0484
 3972TIP3    H133331   1.988   6.441  17.031 -0.9215  1.1404 -0.2997
 3972TIP3    H233332   1.912   6.326  17.091  0.0002  0.5457 -0.2656
 3973TIP3   OH233333   6.112   1.889  11.607 -0.1520  0.4011 -0.1568
 3973TIP3    H133334   6.119   1.823  11.676  2.0899  2.0010  1.1693
 3973TIP3    H233335   6.133   1.841  11.526  0.9015 -0.6369  0.7217
 3974TIP3   OH233336   2.415   2.076   3.217  0.4450 -0.5292  0.5835
 3974TIP3    H133337   2.430   2.034   3.302  2.0026  0.3498  0.7661
 3974TIP3    H233338   2.431   2.169   3.233 -0.2528 -0.2185 -0.4488
 3975TIP3   OH233339   2.175   0.220   1.680  0.5126 -0.3339  0.1712
 3975TIP3    H133340   2.138   0.137   1.712  2.1774 -0.4754  1.8304
 3975TIP3    H233341   2.212   0.261   1.759  2.9985  0.2391 -1.2428
 3976TIP3   OH233342   0.350   0.566  15.761  0.7607 -0.1976 -0.3488
 3976TIP3    H133343   0.427   0.613  15.793  1.2299 -0.9161 -0.4008
 3976TIP3    H233344   0.283   0.633  15.751  1.4795  0.4893 -0.6085
 3977TIP3   OH233345   5.031   4.478   1.750 -0.1223 -0.0649 -0.2096
 3977TIP3    H133346   5.041   4.508   1.660  1.5672  2.3483  0.7484
 3977TIP3    H233347   5.050   4.554   1.804 -0.2533 -1.6847  2.2266
 3978TIP3   OH233348   5.324   2.331  10.981 -0.1973  0.1692 -0.6445
 3978TIP3    H133349   5.229   2.332  10.979 -0.2390 -0.5542  0.8243
 3978TIP3    H233350   5.349   2.250  10.937 -0.2980 -0.1813 -0.0630
 3979TIP3   OH233351   4.478   5.774  17.152  0.1989 -0.4896  0.0502
 3979TIP3    H133352   4.450   5.862  17.178  0.2821 -0.2507 -0.6551
 3979TIP3    H233353   4.504   5.783  17.060  0.0060 -1.2981 -0.0893
 3980TIP3   OH233354   4.076   3.607   0.030 -0.0202 -0.0494 -0.6130
 3980TIP3    H133355   4.083   3.552   0.108 -0.9787 -1.0701 -1.2351
 3980TIP3    H233356   4.159   3.594  -0.016 -0.3867 -1.2766 -0.9444
 3981TIP3   OH233357   4.073   5.642  13.477 -0.2530  0.3961  0.1323
 3981TIP3    H133358   4.144   5.650  13.414  0.2242 -1.3405  0.4249
 3981TIP3    H233359   4.078   5.722  13.530 -0.7746  1.9715 -2.1041
 3982TIP3   OH233360   4.013   1.896   2.798 -0.2914  0.6354 -0.0072
 3982TIP3    H133361   4.107   1.893   2.815 -0.3403 -0.1531  0.1471
 3982TIP3    H233362   4.005   1.881   2.704 -0.2755  0.3497  0.0346
 3983TIP3   OH233363   1.510   2.390   2.686  0.0243 -0.8019 -0.0834
 3983TIP3    H133364   1.501   2.304   2.646 -1.0214 -0.2948 -0.9643
 3983TIP3    H233365   1.426   2.405   2.729  0.1182 -0.1201 -0.1338
 3984TIP3   OH233366   1.673   2.333   0.069  0.2991  0.0795 -0.0104
 3984TIP3    H133367   1.754   2.328   0.017 -1.0232 -1.3123 -1.9803
 3984TIP3    H233368   1.635   2.418   0.044 -0.2924 -0.5480 -1.2837
 3985TIP3   OH233369   5.098   3.039  13.061 -0.1528 -0.1390  0.4709
 3985TIP3    H133370   5.044   3.095  13.116 -0.1787 -0.5669  0.8890
 3985TIP3    H233371   5.104   3.085  12.978  0.7903  1.0468  1.1853
 3986TIP3   OH233372   5.206   2.691  15.020  0.5593 -0.2519 -0.4169
 3986TIP3    H133373   5.205   2.754  14.948  0.5298  1.0404  0.6897
 3986TIP3    H233374   5.118   2.695  15.057  0.6147 -0.8068 -0.2228
 3987TIP3   OH233375   3.817   6.036   5.876 -0.5528  0.5857 -0.3034
 3987TIP3    H133376   3.768   6.083   5.809  0.2891  1.6003 -0.2092
 3987TIP3    H233377   3.787   6.074   5.959 -0.3724  0.4799 -0.1890
 3988TIP3   OH233378   3.705   4.559   0.382 -0.2847  0.3798 -0.5428
 3988TIP3    H133379   3.725   4.516   0.466 -2.2509 -1.0476 -0.7820
 3988TIP3    H233380   3.785   4.548   0.331  0.6177  0.4530  0.8229
 3989TIP3   OH233381   3.110   6.155   1.200  0.2541  0.8607  0.0147
 3989TIP3    H133382   3.093   6.164   1.294 -1.6926  1.1830 -0.3375
 3989TIP3    H233383   3.081   6.067   1.179 -1.6981  1.6682 -0.7448
 3990TIP3   OH233384   5.452   3.336  12.667  0.5136  0.3735 -0.5085
 3990TIP3    H133385   5.432   3.242  12.663  0.3044  0.4269 -0.6918
 3990TIP3    H233386   5.536   3.344  12.623 -0.0133  0.4348 -1.5116
 3991TIP3   OH233387   1.173   3.367  11.797 -0.3950  0.4393 -0.1399
 3991TIP3    H133388   1.089   3.364  11.843 -0.1056 -0.5067  0.3381
 3991TIP3    H233389   1.158   3.316  11.717 -0.2442  0.1560  0.0098
 3992TIP3   OH233390   4.505   3.350  12.773  0.3395  0.1126 -0.2204
 3992TIP3    H133391   4.510   3.288  12.700  1.3713  1.3306 -1.1966
 3992TIP3    H233392   4.574   3.414  12.756 -0.0457  0.9667  1.3089
 3993TIP3   OH233393   0.930   3.995  13.092 -0.4023  0.4449 -0.1070
 3993TIP3    H133394   0.885   3.912  13.108 -0.3974 -0.0764 -2.5629
 3993TIP3    H233395   1.011   3.988  13.143  0.5704 -1.9672 -1.8616
 3994TIP3   OH233396   0.693   0.049   3.219 -0.7149 -0.0699 -0.2681
 3994TIP3    H133397   0.610   0.085   3.187 -0.2995  0.5810 -0.6240
 3994TIP3    H233398   0.698   0.078   3.310  0.1861  1.8231 -0.8936
 3995TIP3   OH233399   1.584   6.218   1.061 -0.3753 -0.2529 -0.2351
 3995TIP3    H133400   1.563   6.243   1.151  2.7131  0.7035  0.2775
 3995TIP3    H233401   1.595   6.123   1.064 -4.1999 -0.7731 -0.4957
 3996TIP3   OH233402   3.952   2.207  17.028 -0.0290  0.0090  0.5076
 3996TIP3    H133403   4.014   2.138  17.054 -2.2131 -2.2512 -0.0349
 3996TIP3    H233404   3.981   2.234  16.941  1.8185  0.9827  1.3997
 3997TIP3   OH233405   6.073   4.385   5.258  0.6281  0.7444 -0.3769
 3997TIP3    H133406   6.070   4.425   5.172  0.0705  2.1990  0.3041
 3997TIP3    H233407   6.166   4.384   5.281  0.7565  0.5453 -0.8979
 3998TIP3   OH233408   3.591   2.093   4.450 -0.5301  0.1024  0.0576
 3998TIP3    H133409   3.539   2.173   4.448  0.3466  0.6980  0.4913
 3998TIP3    H233410   3.532   2.025   4.419 -1.2265  0.9538 -0.5247
 3999TIP3   OH233411   6.209   5.254   5.156  0.0549  0.7487  0.0453
 3999TIP3    H133412   6.287   5.204   5.181  0.1478 -0.5685 -2.6590
 3999TIP3    H233413   6.214   5.259   5.060 -2.6625  1.5091 -0.0855
 4000TIP3   OH233414   4.356   3.796   5.182 -0.4974  0.1323 -0.2466
 4000TIP3    H133415   4.289   3.817   5.247 -2.5606 -1.2416 -1.8668
 4000TIP3    H233416   4.321   3.720   5.135  1.1627  0.7727 -2.6324
 4001TIP3   OH233417   4.365   5.485  15.955  0.0373  0.0568  0.4716
 4001TIP3    H133418   4.286   5.502  16.006  0.0267  0.1446  0.4249
 4001TIP3    H233419   4.373   5.561  15.897 -0.0753 -0.1481  0.1864
 4002TIP3   OH233420   2.597   1.877  13.939  0.9855 -0.0596 -0.5748
 4002TIP3    H133421   2.520   1.934  13.935 -0.8797 -2.0914  3.2339
 4002TIP3    H233422   2.594   1.826  13.858 -0.6487  1.1242 -1.2889
 4003TIP3   OH233423   5.342   3.098  10.766  0.9841 -0.0637 -0.6661
 4003TIP3    H133424   5.404   3.163  10.734  0.4432  0.7302 -0.1084
 4003TIP3    H233425   5.281   3.147  10.820  1.1866 -1.2093  0.6196
 4004TIP3   OH233426   4.304   2.086   3.000 -0.0553  0.7012  0.4274
 4004TIP3    H133427   4.293   2.026   2.927  1.4827  1.5774 -0.5411
 4004TIP3    H233428   4.342   2.032   3.070 -0.4334  0.1362  0.2052
 4005TIP3   OH233429   1.761   5.587  11.995 -0.2011 -0.2187 -0.9275
 4005TIP3    H133430   1.728   5.551  11.913 -2.4405  1.1183 -0.6309
 4005TIP3    H233431   1.699   5.557  12.062  0.2613  0.6903 -0.0692
 4006TIP3   OH233432   4.004   1.260   2.437 -0.0718 -0.1083 -0.7380
 4006TIP3    H133433   3.918   1.267   2.395  0.5411 -1.9829 -2.4190
 4006TIP3    H233434   3.987   1.273   2.530 -1.7598  2.2975 -1.3268
 4007TIP3   OH233435   0.380   0.226   6.045 -0.2074 -0.2205  0.6366
 4007TIP3    H133436   0.425   0.159   5.994 -0.9127 -0.3035  0.1169
 4007TIP3    H233437   0.431   0.306   6.030  0.0294 -0.4111  0.4207
 4008TIP3   OH233438   3.589   6.144  12.049  0.4931  0.0755 -0.1115
 4008TIP3    H133439   3.512   6.201  12.045  0.4399 -0.0834 -1.5199
 4008TIP3    H233440   3.633   6.170  12.130 -0.8970  0.3381  0.5851
 4009TIP3   OH233441   2.102   4.716  13.380 -0.0762  0.0588  0.0375
 4009TIP3    H133442   2.118   4.667  13.461  1.3216 -1.2344 -0.9949
 4009TIP3    H233443   2.172   4.782  13.378  1.0262 -1.0900 -0.9834
 4010TIP3   OH233444   2.979   3.582   4.428 -0.5181 -0.2372  0.0082
 4010TIP3    H133445   3.040   3.526   4.381 -0.5772  0.3005 -0.7176
 4010TIP3    H233446   2.894   3.565   4.387 -0.1531  2.1612 -1.9053
 4011TIP3   OH233447   2.067   5.690  14.706  0.1185  0.2024  0.1600
 4011TIP3    H133448   2.069   5.695  14.802  0.6955 -2.2631  0.3257
 4011TIP3    H233449   2.119   5.612  14.686 -2.6794 -1.1787 -1.9782
 4012TIP3   OH233450   3.732   2.515   1.212  0.7504  0.0841  0.2974
 4012TIP3    H133451   3.810   2.555   1.174  0.5258  0.1474 -0.0991
 4012TIP3    H233452   3.719   2.435   1.160  1.0706 -0.3906  0.9444
 4013TIP3   OH233453   3.745   0.978   3.262  0.2074 -0.5281  0.0447
 4013TIP3    H133454   3.710   0.960   3.350  0.1749  1.5478  0.5010
 4013TIP3    H233455   3.733   1.072   3.251  1.1569 -0.5970 -1.7940
 4014TIP3   OH233456   6.505   6.231  12.999 -0.2714  0.3835 -0.4798
 4014TIP3    H133457   6.491   6.142  12.965 -1.3421 -0.3185  1.7331
 4014TIP3    H233458   6.505   6.286  12.921  2.3883 -1.7737 -2.0829
 4015TIP3   OH233459   6.127   2.586   3.253  0.1481  0.3759  0.0536
 4015TIP3    H133460   6.207   2.638   3.263  0.6529 -0.5179  0.7796
 4015TIP3    H233461   6.146   2.505   3.300 -1.0660  0.0193 -0.0688
 4016TIP3   OH233462   1.624   5.690  12.326  0.1113 -0.1788  0.2888
 4016TIP3    H133463   1.717   5.673  12.310  0.2061 -0.6094  1.2626
 4016TIP3    H233464   1.595   5.615  12.378 -0.2123  1.1444  2.0585
 4017TIP3   OH233465   6.382   5.402  16.832  0.3292  0.3753  0.4446
 4017TIP3    H133466   6.377   5.458  16.754  0.6600 -1.3789 -0.8655
 4017TIP3    H233467   6.405   5.316  16.798 -3.1041 -1.3025  2.0877
 4018TIP3   OH233468   0.114   1.428   3.142  0.0420 -0.2313 -0.5124
 4018TIP3    H133469   0.176   1.493   3.174  0.6434 -0.8404 -0.4264
 4018TIP3    H233470   0.131   1.422   3.048  1.5447 -1.8792 -0.1744
 4019TIP3   OH233471   5.593   0.132  14.514 -0.3447 -0.2355 -0.1685
 4019TIP3    H133472   5.589   0.192  14.440 -0.7794 -0.3915 -0.2781
 4019TIP3    H233473   5.544   0.176  14.583 -0.7445 -0.5025 -0.2802
 4020TIP3   OH233474   5.356   4.441  11.834 -0.1687  0.1889 -0.3387
 4020TIP3    H133475   5.340   4.371  11.771 -1.4260  0.9534 -0.8731
 4020TIP3    H233476   5.403   4.398  11.906  0.7240 -0.8054 -1.5096
 4021TIP3   OH233477   5.976   0.947   5.654 -0.2801  0.6728  0.1385
 4021TIP3    H133478   6.005   1.031   5.620 -0.4731  1.1981  1.2535
 4021TIP3    H233479   5.989   0.953   5.749  0.8314 -0.9934  0.1154
 4022TIP3   OH233480   4.108   2.265   1.382 -0.5534  0.6223 -0.0497
 4022TIP3    H133481   4.173   2.253   1.312 -0.7375 -1.7440  0.1382
 4022TIP3    H233482   4.149   2.326   1.443  1.1739 -0.1959 -0.3526
 4023TIP3   OH233483   2.487   3.543  16.944  0.4293  0.5820  0.2304
 4023TIP3    H133484   2.553   3.485  16.906  0.9975  1.7031 -0.5613
 4023TIP3    H233485   2.407   3.522  16.896  0.8988  1.2397 -0.8787
 4024TIP3   OH233486   3.282   3.642   6.272  0.4623 -0.0498  0.7268
 4024TIP3    H133487   3.206   3.651   6.329  0.9342 -0.6360  1.4520
 4024TIP3    H233488   3.347   3.702   6.309  1.3884 -1.7212  1.8547
 4025TIP3   OH233489   2.597   3.549   4.431 -0.1864 -0.8624 -0.1439
 4025TIP3    H133490   2.614   3.468   4.480 -0.2609 -1.6639 -1.4103
 4025TIP3    H233491   2.502   3.551   4.419 -0.1144 -0.9777 -0.7567
 4026TIP3   OH233492   2.849   2.899   0.421 -0.2434 -0.1157 -0.0787
 4026TIP3    H133493   2.833   2.973   0.362  0.8863  0.4991  0.3593
 4026TIP3    H233494   2.762   2.870   0.447 -0.7028  1.2953  0.0204
 4027TIP3   OH233495   4.307   5.091   3.310 -0.0423  0.1878  0.3657
 4027TIP3    H133496   4.383   5.092   3.252  0.0579  2.1610  0.4944
 4027TIP3    H233497   4.232   5.081   3.252  0.2619 -1.5685  0.2241
 4028TIP3   OH233498   2.060   2.181   5.003 -0.1251 -0.4321 -0.8933
 4028TIP3    H133499   2.007   2.243   5.054  0.8402 -0.6853  0.4394
 4028TIP3    H233500   2.005   2.103   4.996 -0.1053 -0.5431  0.1240
 4029TIP3   OH233501   1.741   4.310  15.413 -0.1633  0.1494 -0.4595
 4029TIP3    H133502   1.790   4.339  15.490  0.0284 -0.9228 -0.1729
 4029TIP3    H233503   1.805   4.311  15.341 -0.4705  1.6565 -0.7258
 4030TIP3   OH233504   5.285   0.716  14.172 -0.1499 -0.1824 -0.2247
 4030TIP3    H133505   5.235   0.646  14.129  0.9800 -0.5680 -0.9381
 4030TIP3    H233506   5.258   0.796  14.126  1.5337 -0.6728 -2.1175
 4031TIP3   OH233507   5.194   3.183   1.026  0.2312 -0.9314  0.5230
 4031TIP3    H133508   5.109   3.183   0.981  0.2644 -1.3079  0.4570
 4031TIP3    H233509   5.185   3.249   1.095  0.1001 -0.5236  0.1145
 4032TIP3   OH233510   1.682   3.246   4.650 -0.1978 -0.0471  0.2120
 4032TIP3    H133511   1.624   3.178   4.616 -0.8172 -0.1604  1.4605
 4032TIP3    H233512   1.763   3.200   4.671 -0.6198 -0.4169  1.0675
 4033TIP3   OH233513   1.639   4.479   0.444  0.0974  0.5767  0.0167
 4033TIP3    H133514   1.679   4.479   0.357  0.0608 -1.8598 -0.0166
 4033TIP3    H233515   1.667   4.563   0.482  0.3823  1.5324 -2.1889
 4034TIP3   OH233516   0.723   4.025  12.525  0.6208  0.6422 -0.4825
 4034TIP3    H133517   0.810   3.986  12.513  0.7183  0.9284 -0.7413
 4034TIP3    H233518   0.664   3.967  12.478  0.5713  0.0445  0.3257
 4035TIP3   OH233519   3.470   0.468   4.960  0.5211 -0.6115  0.5286
 4035TIP3    H133520   3.542   0.531   4.967 -0.3390  0.2354  2.1885
 4035TIP3    H233521   3.469   0.423   5.045  0.4891 -2.1708 -0.2826
 4036TIP3   OH233522   1.174   5.746   5.032  0.1074 -0.1186 -0.4968
 4036TIP3    H133523   1.102   5.776   4.976 -0.0669 -1.4060 -0.9882
 4036TIP3    H233524   1.167   5.650   5.031  1.3294 -0.2308  0.1115
 4037TIP3   OH233525   0.622   2.216   4.262 -0.1140 -0.0376  0.2913
 4037TIP3    H133526   0.588   2.295   4.221 -1.0031 -0.9612 -0.7703
 4037TIP3    H233527   0.715   2.215   4.239  0.0216  0.9735  0.7657
 4038TIP3   OH233528   0.992   0.345   6.334 -0.3277  0.3211 -0.1963
 4038TIP3    H133529   0.911   0.386   6.366  0.2710  1.0237  0.4611
 4038TIP3    H233530   0.999   0.373   6.243 -0.0076  1.5954  0.2022
 4039TIP3   OH233531   1.764   4.491  13.285 -1.5588  0.3128  0.0025
 4039TIP3    H133532   1.779   4.397  13.277  0.9229  0.8324 -1.6339
 4039TIP3    H233533   1.740   4.520  13.197 -0.5563  1.5102  0.1092
 4040TIP3   OH233534   3.792   0.996   3.555 -0.4215  0.5232  0.2461
 4040TIP3    H133535   3.839   0.952   3.626  2.0502  1.0089 -1.0388
 4040TIP3    H233536   3.845   1.073   3.536 -2.3269  1.6697 -0.5610
 4041TIP3   OH233537   2.109   0.639  15.603 -0.2191  0.4094  0.1020
 4041TIP3    H133538   2.126   0.640  15.509  2.4513 -0.2846  0.5167
 4041TIP3    H233539   2.189   0.675  15.642 -1.4105  0.9732  2.0949
 4042TIP3   OH233540   1.720   5.312   0.311  0.4017 -0.0134  0.0703
 4042TIP3    H133541   1.723   5.394   0.261 -2.0815  0.0666 -0.0076
 4042TIP3    H233542   1.731   5.338   0.402 -0.1798  0.4072  0.0253
 4043TIP3   OH233543   5.771   4.186   1.002  0.5309  0.0294  0.2456
 4043TIP3    H133544   5.740   4.184   0.911  0.0108 -1.6110  0.4347
 4043TIP3    H233545   5.697   4.221   1.052  0.6562  0.5025  0.1027
 4044TIP3   OH233546   6.122   5.075  11.448 -0.4640  0.3857  1.0172
 4044TIP3    H133547   6.056   5.129  11.490  1.0535  1.6753  1.7828
 4044TIP3    H233548   6.096   4.985  11.467 -3.8043  0.7467 -1.4760
 4045TIP3   OH233549   6.573   3.015   0.671  0.0690  0.3824 -0.0108
 4045TIP3    H133550   6.657   3.029   0.625 -0.3365  0.0057 -0.8771
 4045TIP3    H233551   6.514   2.982   0.603 -0.4185 -0.6154  0.8925
 4046TIP3   OH233552   3.755   3.783   3.489  0.0902  0.2972 -0.2795
 4046TIP3    H133553   3.699   3.706   3.496 -0.0261  0.3612 -0.5054
 4046TIP3    H233554   3.719   3.833   3.416  0.9192 -0.0534 -0.9488
 4047TIP3   OH233555   1.775   2.135  11.292  0.8542 -0.1812  0.7292
 4047TIP3    H133556   1.733   2.165  11.373 -1.9063  1.8298 -1.3800
 4047TIP3    H233557   1.844   2.199  11.275 -1.3875  1.9230 -0.7593
 4048TIP3   OH233558   1.803   4.082   4.375 -0.4143 -0.0755 -0.3671
 4048TIP3    H133559   1.784   3.990   4.354  0.3723 -0.1855 -0.6234
 4048TIP3    H233560   1.717   4.124   4.377 -0.6659 -0.4458 -2.0709
 4049TIP3   OH233561   5.558   3.826  16.882  0.7916 -0.0535 -0.7196
 4049TIP3    H133562   5.619   3.771  16.930  0.9618 -0.5264 -1.4693
 4049TIP3    H233563   5.606   3.852  16.803  0.7869  1.3429 -0.2676
 4050TIP3   OH233564   5.402   5.061   0.052 -0.7311 -0.2813  0.2273
 4050TIP3    H133565   5.421   5.052   0.145  1.5823  0.2439 -0.1712
 4050TIP3    H233566   5.390   5.155   0.038 -1.1272 -0.3623  0.0074
 4051TIP3   OH233567   5.770   6.146   6.040  0.4460  0.1030  0.4769
 4051TIP3    H133568   5.865   6.143   6.054  0.5923  1.6284 -0.0726
 4051TIP3    H233569   5.742   6.223   6.089 -0.2205  0.7722 -0.9460
 4052TIP3   OH233570   5.447   0.142   3.753 -0.2404 -0.5115 -0.1125
 4052TIP3    H133571   5.454   0.146   3.658  0.6361 -0.8782 -0.0584
 4052TIP3    H233572   5.477   0.055   3.777  0.6167 -0.0315  0.5959
 4053TIP3   OH233573   4.696   4.000   2.371 -0.4483 -0.5177  0.5545
 4053TIP3    H133574   4.682   4.036   2.458 -0.9736  0.9230 -0.0885
 4053TIP3    H233575   4.609   3.972   2.342 -0.4281 -0.2039  0.1753
 4054TIP3   OH233576   1.489   1.530   4.157  0.0499 -0.0842  0.4363
 4054TIP3    H133577   1.464   1.452   4.107 -0.6752 -0.4976  1.4336
 4054TIP3    H233578   1.410   1.585   4.156 -0.2065 -0.4230  1.7454
 4055TIP3   OH233579   0.733   0.962   4.229  0.8133  0.2307  0.0033
 4055TIP3    H133580   0.751   0.964   4.323 -0.3282  2.8651  0.2159
 4055TIP3    H233581   0.814   0.993   4.189  1.4371 -1.2693  0.0686
 4056TIP3   OH233582   1.692   5.318  14.158  0.1865 -0.1221 -0.3349
 4056TIP3    H133583   1.637   5.386  14.118 -2.5751 -0.3825  2.7883
 4056TIP3    H233584   1.778   5.359  14.166 -0.4577  1.6346 -2.0415
 4057TIP3   OH233585   1.985   5.673   5.261 -0.2686 -0.2227 -0.9232
 4057TIP3    H133586   1.962   5.766   5.265  1.9914  0.3736 -0.9134
 4057TIP3    H233587   2.037   5.658   5.340  0.6691 -1.1158 -1.6974
 4058TIP3   OH233588   2.431   4.854  15.537 -0.1213 -0.5208  0.3457
 4058TIP3    H133589   2.490   4.920  15.572  1.4487 -0.7206 -1.8266
 4058TIP3    H233590   2.479   4.814  15.464 -2.2347 -1.9306 -0.3458
 4059TIP3   OH233591   5.786   2.034  13.218  0.3560 -0.0378 -0.0741
 4059TIP3    H133592   5.728   1.982  13.274  0.8046 -2.3591 -1.7013
 4059TIP3    H233593   5.852   1.972  13.188  1.9688  1.9065 -0.6345
 4060TIP3   OH233594   4.314   1.761  12.784  0.4459 -0.2025 -0.6362
 4060TIP3    H133595   4.282   1.767  12.694 -0.1015  0.3789 -0.4103
 4060TIP3    H233596   4.290   1.673  12.813 -0.4274  0.0282 -0.6627
 4061TIP3   OH233597   2.380   4.237   3.889  0.0216 -0.1542 -0.1221
 4061TIP3    H133598   2.462   4.248   3.937 -0.2887 -1.3331  0.7090
 4061TIP3    H233599   2.400   4.170   3.823  0.3053  1.0960 -1.3204
 4062TIP3   OH233600   1.331   1.366   3.688  0.4323 -0.2811  0.3504
 4062TIP3    H133601   1.405   1.356   3.629 -0.2933  0.6514 -0.7532
 4062TIP3    H233602   1.285   1.282   3.683  1.4186 -0.8733  1.0702
 4063TIP3   OH233603   1.947   3.023   4.445 -0.0393 -1.0316  0.1100
 4063TIP3    H133604   1.944   2.989   4.356  0.7361 -1.8212  0.3818
 4063TIP3    H233605   2.039   3.045   4.460 -0.2087 -0.6490  0.6217
 4064TIP3   OH233606   4.359   3.595   2.703  0.4469  0.0025 -0.4715
 4064TIP3    H133607   4.427   3.537   2.668 -0.3319 -0.3148 -1.4690
 4064TIP3    H233608   4.280   3.571   2.656 -0.1910  0.9256  0.1104
 4065TIP3   OH233609   4.651   4.128   2.634  0.3615  0.4103 -0.2668
 4065TIP3    H133610   4.721   4.158   2.692 -1.4106  0.7955  1.7331
 4065TIP3    H233611   4.627   4.042   2.669  0.3864 -0.0669 -1.4277
 4066TIP3   OH233612   3.165   1.574   0.655 -0.4133  0.3314  0.0718
 4066TIP3    H133613   3.232   1.636   0.684  0.8203 -1.2039  0.5431
 4066TIP3    H233614   3.099   1.629   0.612  0.8983  1.9118  0.0327
 4067TIP3   OH233615   5.365   2.396  12.654 -0.2207 -0.2846 -0.5340
 4067TIP3    H133616   5.276   2.426  12.638 -0.8362 -1.9367 -0.3459
 4067TIP3    H233617   5.377   2.403  12.749 -0.3992 -0.7091 -0.4777
 4068TIP3   OH233618   0.460   5.653  17.121 -0.5007  0.6002 -0.2857
 4068TIP3    H133619   0.368   5.628  17.116 -0.4073  0.3178 -0.5901
 4068TIP3    H233620   0.465   5.708  17.200 -0.6777 -0.4267  0.4582
 4069TIP3   OH233621   3.329   4.584   2.225 -0.1085 -0.1818 -0.1348
 4069TIP3    H133622   3.274   4.656   2.192 -0.6034 -0.5528 -0.1285
 4069TIP3    H233623   3.268   4.511   2.235 -0.0941  0.1223  2.2759
 4070TIP3   OH233624   4.388   4.815   3.361 -0.0069  0.0757 -0.3754
 4070TIP3    H133625   4.356   4.905   3.361  1.3343  0.5590  0.4587
 4070TIP3    H233626   4.331   4.770   3.299 -2.5247  0.8445  1.2594
 4071TIP3   OH233627   6.167   4.050   4.027 -0.1173 -0.4033 -0.8424
 4071TIP3    H133628   6.141   4.052   3.934 -1.1088  0.6537 -0.5564
 4071TIP3    H233629   6.248   3.999   4.028  0.3634  0.2715 -2.4223
 4072TIP3   OH233630   4.253   5.438   2.314 -0.1682 -0.5679  0.0353
 4072TIP3    H133631   4.315   5.385   2.364  1.0793  0.3661 -0.5023
 4072TIP3    H233632   4.308   5.493   2.258 -1.4974 -1.1944 -1.9721
 4073TIP3   OH233633   5.867   1.147   1.496  0.2513 -0.1742  0.0157
 4073TIP3    H133634   5.859   1.077   1.561 -0.6029 -2.8504 -2.8238
 4073TIP3    H233635   5.954   1.134   1.458  0.2506  0.5362 -0.2241
 4074TIP3   OH233636   2.581   3.040  14.973 -0.5507 -0.4982  0.4610
 4074TIP3    H133637   2.606   3.132  14.963  0.3449 -0.8967 -1.2199
 4074TIP3    H233638   2.632   3.009  15.048  0.1359  0.0494  0.2304
 4075TIP3   OH233639   1.611   4.016  11.278 -0.0912  0.2513  0.7622
 4075TIP3    H133640   1.559   3.952  11.230 -1.0126  1.2337  0.4198
 4075TIP3    H233641   1.601   3.991  11.370 -1.1168  0.3851  0.6911
 4076TIP3   OH233642   5.321   3.677  14.150 -0.0809  0.1207 -0.2319
 4076TIP3    H133643   5.358   3.704  14.234 -1.1116 -1.7286  0.8434
 4076TIP3    H233644   5.256   3.745  14.130 -0.6218 -0.0321  1.0124
 4077TIP3   OH233645   3.971   5.405   1.699 -0.3703 -0.3046 -0.0360
 4077TIP3    H133646   3.973   5.314   1.730  0.7466 -0.2346  0.1211
 4077TIP3    H233647   3.995   5.400   1.607 -2.0845 -0.3416 -0.5040
 4078TIP3   OH233648   6.014   0.115  11.634 -0.4071 -0.3614 -0.0555
 4078TIP3    H133649   5.920   0.103  11.619 -0.4481  1.3704 -1.4312
 4078TIP3    H233650   6.027   0.091  11.725 -1.9957 -1.6673 -0.1512
 4079TIP3   OH233651   5.804   2.621  16.285  0.6015 -0.2432 -0.2005
 4079TIP3    H133652   5.889   2.607  16.242  0.3433 -0.6083 -0.5972
 4079TIP3    H233653   5.764   2.692  16.234  0.2702 -0.7160 -0.5974
 4080TIP3   OH233654   6.190   6.315   1.307 -0.6288 -0.0506 -0.0221
 4080TIP3    H133655   6.226   6.229   1.330  0.4626 -0.2217 -2.1933
 4080TIP3    H233656   6.158   6.351   1.389  1.6423 -1.2872  1.4470
 4081TIP3   OH233657   4.942   2.577   1.417  0.0987  0.4190 -0.6957
 4081TIP3    H133658   4.863   2.542   1.376 -0.1591 -0.0531  0.1879
 4081TIP3    H233659   4.938   2.547   1.508  1.6449 -0.1802 -0.8037
 4082TIP3   OH233660   1.355   3.295   1.741 -0.1844  0.6729 -0.4051
 4082TIP3    H133661   1.339   3.370   1.797  0.6563 -0.1557  0.9770
 4082TIP3    H233662   1.433   3.320   1.690  0.8450  0.2825  0.9352
 4083TIP3   OH233663   4.296   5.157  12.907  0.2838 -0.2080  0.1100
 4083TIP3    H133664   4.274   5.065  12.895  2.2304 -0.7213  0.2781
 4083TIP3    H233665   4.232   5.204  12.854 -0.5124 -1.6706 -0.2635
 4084TIP3   OH233666   0.229   2.000   3.704  0.1831  0.2148  0.6787
 4084TIP3    H133667   0.233   2.010   3.609 -0.6190  0.6672  0.6837
 4084TIP3    H233668   0.300   1.940   3.725  1.0713  0.9762 -0.0818
 4085TIP3   OH233669   2.452   1.615  12.283 -0.0886 -0.0399  0.2851
 4085TIP3    H133670   2.403   1.669  12.220  0.7365 -0.6354 -0.8831
 4085TIP3    H233671   2.464   1.672  12.359  0.7211  1.4296 -0.9111
 4086TIP3   OH233672   5.974   5.037  13.651  0.4541 -0.1833 -0.4261
 4086TIP3    H133673   5.947   5.104  13.714 -0.1142  0.9171 -1.8138
 4086TIP3    H233674   6.061   5.010  13.682  0.7094  1.2085  0.1493
 4087TIP3   OH233675   6.341   3.634  16.470 -0.0233 -0.3528 -0.1296
 4087TIP3    H133676   6.294   3.550  16.468  0.0418 -0.4064  0.3753
 4087TIP3    H233677   6.316   3.678  16.389  0.2964 -1.0520 -0.6123
 4088TIP3   OH233678   5.758   3.971   0.638 -0.1788 -0.2911  0.2852
 4088TIP3    H133679   5.698   3.965   0.563  0.8693 -0.1242 -0.5789
 4088TIP3    H233680   5.782   4.063   0.641 -0.0996 -0.3268  0.7465
 4089TIP3   OH233681   2.135   4.653   4.437  0.0511  0.0901 -0.2085
 4089TIP3    H133682   2.213   4.676   4.386 -1.3860 -0.2835 -2.6143
 4089TIP3    H233683   2.157   4.570   4.478  2.0518  1.4588  1.6173
 4090TIP3   OH233684   3.945   4.378  13.416 -0.2582 -0.3105 -0.0829
 4090TIP3    H133685   3.927   4.334  13.499  0.7399  0.4197  0.5230
 4090TIP3    H233686   4.023   4.430  13.432  0.2111 -0.5015 -1.6150
 4091TIP3   OH233687   3.285   3.255  16.954  0.7855  0.6569 -0.1022
 4091TIP3    H133688   3.360   3.223  16.905 -0.9071 -1.4184 -1.4382
 4091TIP3    H233689   3.238   3.176  16.980 -1.4523  1.9182 -0.1726
 4092TIP3   OH233690   3.657   4.745   0.803 -0.2334  0.0713 -0.7284
 4092TIP3    H133691   3.607   4.796   0.740 -1.9087 -1.8572 -1.0218
 4092TIP3    H233692   3.608   4.664   0.813  1.3495 -0.7165  1.1521
 4093TIP3   OH233693   0.271   1.650  12.335 -0.7056  0.2229  0.2803
 4093TIP3    H133694   0.241   1.682  12.250 -1.1463 -0.3501  0.2176
 4093TIP3    H233695   0.302   1.728  12.380 -0.4014  0.5256 -0.4342
 4094TIP3   OH233696   1.289   5.198  13.718  0.6403 -0.1199 -0.4896
 4094TIP3    H133697   1.370   5.250  13.720  1.4664 -1.3583 -0.9319
 4094TIP3    H233698   1.249   5.219  13.633  0.9258 -0.1242 -0.6252
 4095TIP3   OH233699   6.220   6.765  16.943 -0.1414  0.3550 -0.6399
 4095TIP3    H133700   6.233   6.859  16.929  0.8132  0.4020  0.4857
 4095TIP3    H233701   6.192   6.731  16.858  1.2329  1.3672 -1.5002
 4096TIP3   OH233702   2.903   5.362   6.072  0.0598  0.2361  0.4570
 4096TIP3    H133703   2.965   5.308   6.120 -1.9176 -0.7388  1.9358
 4096TIP3    H233704   2.936   5.451   6.082  1.6689 -0.3531  0.5228
 4097TIP3   OH233705   0.095   3.779  11.086  0.3173 -0.0148  1.1669
 4097TIP3    H133706   0.160   3.847  11.103  0.2698  0.6702 -1.2173
 4097TIP3    H233707   0.141   3.697  11.099  2.3176  0.4274 -2.5369
 4098TIP3   OH233708   3.559   2.104  12.313 -0.8052 -0.6795  0.0980
 4098TIP3    H133709   3.649   2.104  12.282  0.2713 -0.0136  3.0550
 4098TIP3    H233710   3.522   2.021  12.283  1.0632 -1.3512 -0.3710
 4099TIP3   OH233711   4.081   5.307   5.823  0.3937 -0.5022  0.3807
 4099TIP3    H133712   4.013   5.368   5.853 -0.5261 -1.5531  0.5057
 4099TIP3    H233713   4.073   5.308   5.727  1.2048  0.4819  0.3169
 4100TIP3   OH233714   4.175   0.346  15.951  0.6152  0.3556 -0.6578
 4100TIP3    H133715   4.143   0.299  16.027  0.9766  0.3692 -0.4940
 4100TIP3    H233716   4.146   0.436  15.964 -0.4009  0.1054 -1.1595
 4101TIP3   OH233717   6.710   5.556   6.113 -0.2818 -0.3021  0.2682
 4101TIP3    H133718   6.618   5.535   6.124 -0.1307 -0.7857  0.6001
 4101TIP3    H233719   6.753   5.472   6.100  0.0739 -0.0545 -0.1801
 4102TIP3   OH233720   6.553   1.989   2.593 -0.3726 -0.1536  0.0999
 4102TIP3    H133721   6.639   2.020   2.567 -0.3526  0.1920  0.5550
 4102TIP3    H233722   6.564   1.895   2.607  0.8444  0.4541  3.7271
 4103TIP3   OH233723   1.272   5.930  11.387  0.3551 -0.2808  0.6961
 4103TIP3    H133724   1.244   5.973  11.306  0.1584  0.8923  1.3812
 4103TIP3    H233725   1.194   5.928  11.442  0.3718 -1.5051  0.6796
 4104TIP3   OH233726   6.248   0.321   5.885 -0.6709  0.1577 -0.0647
 4104TIP3    H133727   6.159   0.322   5.920  0.1427  0.7467  2.0949
 4104TIP3    H233728   6.298   0.272   5.950  0.9150  1.2870 -0.4080
 4105TIP3   OH233729   0.737   1.604  11.864  0.0862  0.0835 -0.3760
 4105TIP3    H133730   0.745   1.698  11.882 -1.0627  0.0421  0.4016
 4105TIP3    H233731   0.729   1.599  11.769 -1.9852  0.9607 -0.2764
 4106TIP3   OH233732   5.627   0.169  11.721 -0.5329 -0.1970 -0.4450
 4106TIP3    H133733   5.651   0.101  11.659 -0.0469  0.5297 -1.0572
 4106TIP3    H233734   5.544   0.204  11.688  0.4134  1.1252 -1.4601
 4107TIP3   OH233735   1.620   1.185   4.360 -0.2878  0.1606 -0.0039
 4107TIP3    H133736   1.696   1.242   4.362  0.3492 -0.7134  0.8737
 4107TIP3    H233737   1.601   1.174   4.267  0.0656  1.1585 -0.1982
 4108TIP3   OH233738   1.479   1.156   0.123 -0.3840  0.7368  0.3803
 4108TIP3    H133739   1.465   1.247   0.148  1.3109  1.4867 -1.2741
 4108TIP3    H233740   1.407   1.137   0.062 -2.2829  0.0909  2.7226
 4109TIP3   OH233741   2.473   2.721   0.238 -0.2974  0.2310  0.3018
 4109TIP3    H133742   2.526   2.644   0.218 -1.0246 -0.4367  0.9427
 4109TIP3    H233743   2.397   2.713   0.181 -0.7103  0.1102  0.8660
 4110TIP3   OH233744   1.560   3.584  16.404  0.2412 -0.1222  0.0416
 4110TIP3    H133745   1.512   3.653  16.359 -0.0570 -0.0168  0.5197
 4110TIP3    H233746   1.539   3.504  16.356  0.2582  0.0568 -0.2628
 4111TIP3   OH233747   4.673   5.620   2.127  0.2668  0.4669  0.4278
 4111TIP3    H133748   4.736   5.692   2.132 -0.9714  1.4760  1.7950
 4111TIP3    H233749   4.686   5.571   2.208  1.5351 -1.2382 -0.7830
 4112TIP3   OH233750   2.480   0.912  10.504 -0.1292  0.5825  0.5589
 4112TIP3    H133751   2.540   0.985  10.520 -0.3309  0.1671  3.3392
 4112TIP3    H233752   2.393   0.951  10.512 -0.2706  0.5623 -0.6463
 4113TIP3   OH233753   3.340   4.918   1.736  0.3039  0.5312 -0.0356
 4113TIP3    H133754   3.245   4.905   1.736  0.1777  1.3574 -1.0212
 4113TIP3    H233755   3.376   4.831   1.724 -0.3174  0.1135  1.1118
 4114TIP3   OH233756   1.490   2.673  13.340  0.0050  0.2279 -0.3263
 4114TIP3    H133757   1.515   2.603  13.400  0.5507  0.4192 -0.3303
 4114TIP3    H233758   1.491   2.752  13.393 -0.6044  0.2411 -0.3240
 4115TIP3   OH233759   3.059   5.110   5.552 -0.0616  0.4887  0.5319
 4115TIP3    H133760   3.129   5.128   5.614  1.1944 -4.4646  0.7159
 4115TIP3    H233761   2.990   5.069   5.604 -0.6453 -0.0616 -0.6579
 4116TIP3   OH233762   3.472   1.950   2.260  0.1490 -0.2114  0.1552
 4116TIP3    H133763   3.495   2.011   2.190 -1.6768  0.1129 -0.2044
 4116TIP3    H233764   3.401   1.897   2.223 -0.7125 -0.1544  1.6896
 4117TIP3   OH233765   4.820   0.966  15.522 -0.3603  0.3820 -0.0851
 4117TIP3    H133766   4.744   0.947  15.577 -1.2844 -1.7272 -1.9793
 4117TIP3    H233767   4.878   0.891  15.535 -0.9858 -0.6012 -2.5563
 4118TIP3   OH233768   2.959   5.930   5.446  0.8530  0.2189  0.6039
 4118TIP3    H133769   3.024   5.993   5.413 -2.0872  2.1026 -1.8078
 4118TIP3    H233770   2.941   5.959   5.536  0.7635  1.8434  0.0795
 4119TIP3   OH233771   2.995   0.563  12.779 -0.0020 -1.0576 -0.6105
 4119TIP3    H133772   2.911   0.581  12.821  0.5502  2.0183 -0.7474
 4119TIP3    H233773   3.047   0.520  12.847  0.0346  1.6337  1.1484
 4120TIP3   OH233774   3.284   3.457   1.857  0.2596  0.3067  0.1462
 4120TIP3    H133775   3.272   3.404   1.778  1.4119 -0.5130  0.5149
 4120TIP3    H233776   3.352   3.412   1.907  0.7134  1.7033  0.8302
 4121TIP3   OH233777   0.675   6.302   2.409 -0.0103  0.0225 -0.4798
 4121TIP3    H133778   0.756   6.311   2.459 -0.7987  1.2546  0.5932
 4121TIP3    H233779   0.695   6.341   2.324  0.3121  0.9251  0.0085
 4122TIP3   OH233780   1.406   4.119  13.884  0.1602  0.2374  0.5514
 4122TIP3    H133781   1.331   4.137  13.828  0.3557  0.3352  0.3181
 4122TIP3    H233782   1.454   4.050  13.839  1.3911  1.6845 -0.4295
 4123TIP3   OH233783   0.485   2.323   5.137 -0.0426  0.3774  0.5570
 4123TIP3    H133784   0.540   2.274   5.198  0.7309 -0.6119 -0.8937
 4123TIP3    H233785   0.403   2.273   5.133 -0.8319  1.4877  2.2090
 4124TIP3   OH233786   1.118   4.869   4.888  0.4650 -0.3832  0.8587
 4124TIP3    H133787   1.084   4.818   4.815 -1.5947 -0.4858  1.8427
 4124TIP3    H233788   1.117   4.960   4.857  1.9557 -0.6772 -0.0868
 4125TIP3   OH233789   5.211   4.603   6.164  0.1714 -0.5035 -0.1165
 4125TIP3    H133790   5.294   4.618   6.209 -0.1947 -2.1064  1.1269
 4125TIP3    H233791   5.194   4.686   6.118  2.0446  0.1120  0.2447
 4126TIP3   OH233792   5.426   4.233  15.628  0.0269 -0.1503  0.1721
 4126TIP3    H133793   5.427   4.281  15.710 -2.0140 -1.9297  1.2952
 4126TIP3    H233794   5.349   4.267  15.581  0.4198 -0.0779 -0.4292
 4127TIP3   OH233795   1.148   3.723   1.069 -0.0761 -0.2285  0.1685
 4127TIP3    H133796   1.056   3.697   1.081 -0.6720  2.1559  1.0654
 4127TIP3    H233797   1.167   3.702   0.978 -1.9035  0.3800 -0.3804
 4128TIP3   OH233798   5.747   0.679   5.463  0.6151  0.1861 -0.1036
 4128TIP3    H133799   5.749   0.646   5.373 -0.6028  0.6187 -0.2834
 4128TIP3    H233800   5.708   0.607   5.513 -0.2824  0.6039 -0.1957
 4129TIP3   OH233801   1.545   0.591   0.891  0.7845  0.1035 -0.0040
 4129TIP3    H133802   1.485   0.539   0.944  0.6505  1.0842  0.8321
 4129TIP3    H233803   1.500   0.601   0.806 -0.4273  1.1584  0.7412
 4130TIP3   OH233804   5.363   5.337   4.247  0.0778 -0.2455  0.5725
 4130TIP3    H133805   5.269   5.347   4.265 -0.4316 -1.6601 -1.0805
 4130TIP3    H233806   5.392   5.270   4.309  0.0372  0.3311  1.2154
 4131TIP3   OH233807   3.542   6.565   5.937  0.5453 -0.2687 -0.1425
 4131TIP3    H133808   3.500   6.569   6.023  0.9876 -0.8666  0.1075
 4131TIP3    H233809   3.635   6.556   5.957  0.9666  2.4851 -0.6834
 4132TIP3   OH233810   6.053   1.122  12.207 -1.0545  0.3066 -0.1991
 4132TIP3    H133811   6.046   1.029  12.229 -0.3638  0.2923 -0.0228
 4132TIP3    H233812   6.116   1.156  12.270 -0.8257  0.7593 -0.6718
 4133TIP3   OH233813   0.879   5.301   0.772 -0.4782 -0.3197 -0.1342
 4133TIP3    H133814   0.959   5.277   0.818 -0.7152 -0.5557  0.1617
 4133TIP3    H233815   0.849   5.220   0.732  0.0557  0.0114 -1.2256
 4134TIP3   OH233816   0.623   3.734   0.439  0.6033  0.1601 -0.2139
 4134TIP3    H133817   0.696   3.742   0.378  1.2636 -0.4478  0.4891
 4134TIP3    H233818   0.595   3.643   0.430 -0.2640  0.4701 -0.6991
 4135TIP3   OH233819   3.136   1.778   0.279 -0.0350  0.8524  0.6794
 4135TIP3    H133820   3.164   1.870   0.280 -0.6173  1.0274  3.5581
 4135TIP3    H233821   3.215   1.729   0.257  0.4369  1.9794 -0.2207
 4136TIP3   OH233822   1.625   1.591  12.207  0.4578 -0.2487  0.3013
 4136TIP3    H133823   1.614   1.613  12.114  1.8654  1.2783  0.4636
 4136TIP3    H233824   1.544   1.621  12.249  0.0545 -0.4249 -0.3526
 4137TIP3   OH233825   6.422   1.056   1.945 -0.1218  0.4311  0.1142
 4137TIP3    H133826   6.338   1.011   1.953  0.6680 -0.8939  0.9777
 4137TIP3    H233827   6.475   0.999   1.890  0.9625  0.1794  1.4061
 4138TIP3   OH233828   1.331   2.611  13.663  0.0739 -0.3927  0.7359
 4138TIP3    H133829   1.426   2.607  13.655 -0.0055  0.0161 -0.4929
 4138TIP3    H233830   1.314   2.594  13.756  1.3829  0.3107  1.1095
 4139TIP3   OH233831   1.393   3.862  14.083 -0.2133 -0.1654 -0.4131
 4139TIP3    H133832   1.316   3.910  14.053 -1.7533 -2.3891 -0.1244
 4139TIP3    H233833   1.424   3.814  14.007  0.7792  0.5630 -0.4785
 4140TIP3   OH233834   2.514   0.453  12.872  0.5502  0.0316  0.1658
 4140TIP3    H133835   2.435   0.404  12.896 -0.3456  0.1315 -2.3543
 4140TIP3    H233836   2.578   0.385  12.849  0.3778 -0.0318 -0.1406
 4141TIP3   OH233837   6.088   4.118   3.341  0.1564 -0.1121 -0.0078
 4141TIP3    H133838   6.028   4.183   3.378 -1.2859 -1.6960  0.4889
 4141TIP3    H233839   6.094   4.141   3.248 -0.6187  0.5210  0.0985
 4142TIP3   OH233840   5.712   4.189  13.802  0.3125  0.0503  0.4210
 4142TIP3    H133841   5.705   4.224  13.713  1.5209  0.6373  0.5534
 4142TIP3    H233842   5.776   4.119  13.796  0.9461  0.5786  0.9832
 4143TIP3   OH233843   1.092   3.527   5.899 -0.4373 -0.0268 -0.1979
 4143TIP3    H133844   1.106   3.492   5.986 -0.4636 -1.1717 -0.6442
 4143TIP3    H233845   0.999   3.551   5.897 -0.6836 -0.9614 -0.2425
 4144TIP3   OH233846   0.683   6.537  10.951  0.1738  0.4991  0.0577
 4144TIP3    H133847   0.748   6.477  10.916 -0.1062  0.2985 -0.1159
 4144TIP3    H233848   0.601   6.512  10.909 -0.3058 -0.2134  1.3865
 4145TIP3   OH233849   0.352   1.783   4.232  0.4557  0.3519  0.4751
 4145TIP3    H133850   0.417   1.716   4.214 -0.2541  0.1719 -1.5495
 4145TIP3    H233851   0.326   1.768   4.323  0.8980 -1.5955  0.2882
 4146TIP3   OH233852   4.774   5.817   1.909 -0.0673  0.7099 -0.1365
 4146TIP3    H133853   4.788   5.731   1.870 -0.5636  0.6778 -0.2433
 4146TIP3    H233854   4.770   5.877   1.835 -0.5102  0.7181 -0.1049
 4147TIP3   OH233855   3.071   1.331  15.729  0.5809 -0.2825 -0.1352
 4147TIP3    H133856   3.012   1.256  15.720  1.6123 -1.2872  1.1464
 4147TIP3    H233857   3.047   1.390  15.658 -1.3457 -1.0920 -0.1823
 4148TIP3   OH233858   1.639   6.036   0.493 -0.5003 -0.2168 -0.1201
 4148TIP3    H133859   1.552   6.019   0.456 -0.4529 -0.7942  0.0326
 4148TIP3    H233860   1.698   5.978   0.445 -0.3675 -0.6308  0.5385
 4149TIP3   OH233861   1.630   1.430  14.163 -0.1995 -0.2137 -0.2047
 4149TIP3    H133862   1.547   1.386  14.145  0.4370 -0.4367 -2.7498
 4149TIP3    H233863   1.620   1.517  14.126  1.3243 -0.8475 -2.2293
 4150TIP3   OH233864   2.599   0.966  14.822  0.9149  0.2996  0.3539
 4150TIP3    H133865   2.650   0.937  14.897  1.2387  1.6154  0.6591
 4150TIP3    H233866   2.519   0.914  14.825  0.9796  0.2633  1.5336
 4151TIP3   OH233867   1.850   1.170  15.763  0.1691 -0.2419 -0.5020
 4151TIP3    H133868   1.931   1.149  15.810 -0.5683 -0.3885  0.7168
 4151TIP3    H233869   1.824   1.255  15.797 -0.7785 -0.6957 -0.0724
 4152TIP3   OH233870   3.182   1.925  11.889 -0.1849 -0.0852 -0.4467
 4152TIP3    H133871   3.133   1.844  11.900 -0.6618  0.3372  0.6211
 4152TIP3    H233872   3.140   1.987  11.950 -0.7191  1.3702 -2.2596
 4153TIP3   OH233873   2.070   0.564  12.324  0.8009 -0.2714 -0.4156
 4153TIP3    H133874   2.093   0.622  12.396  1.3781 -1.1352  0.1016
 4153TIP3    H233875   2.058   0.622  12.249  0.9705  0.5495  0.1889
 4154TIP3   OH233876   6.398   0.458  12.394  0.4775  0.3287  0.4923
 4154TIP3    H133877   6.354   0.485  12.475 -2.5034 -0.8009 -0.6780
 4154TIP3    H233878   6.398   0.362  12.397  0.9156  0.2869 -0.5526
 4155TIP3   OH233879   3.990   0.043   4.082 -0.2118 -0.1016 -0.1020
 4155TIP3    H133880   4.072  -0.005   4.070 -1.0019 -1.4065 -0.3862
 4155TIP3    H233881   3.924  -0.025   4.098 -1.6149  0.7578 -2.0165
 4156TIP3   OH233882   0.635   2.340  15.658  0.7758 -0.4997  0.3054
 4156TIP3    H133883   0.677   2.292  15.729  1.1973  1.6916  1.5907
 4156TIP3    H233884   0.572   2.397  15.702  0.1194 -0.0418 -1.1906
 4157TIP3   OH233885   6.302   2.201  15.211  0.0628  0.3214  0.4363
 4157TIP3    H133886   6.323   2.286  15.249 -1.7120  0.2630  1.6032
 4157TIP3    H233887   6.209   2.207  15.189  0.3013 -0.7743 -0.9497
 4158TIP3   OH233888   3.131   2.966  15.436 -0.2291  0.1753 -0.1256
 4158TIP3    H133889   3.036   2.958  15.442 -0.4663  2.6132 -0.2822
 4158TIP3    H233890   3.145   3.043  15.382  1.8731 -2.4587 -3.5352
 4159TIP3   OH233891   4.451   2.827   6.305  0.6759  0.5507 -0.3711
 4159TIP3    H133892   4.530   2.828   6.251 -0.1458 -0.4438 -1.6156
 4159TIP3    H233893   4.432   2.735   6.318 -0.4402  0.7805 -0.3070
 4160TIP3   OH233894   1.472   1.982   5.410  0.1891  0.5361  0.4340
 4160TIP3    H133895   1.422   1.902   5.397  1.5070 -0.1588 -0.4244
 4160TIP3    H233896   1.408   2.052   5.397 -1.2532 -0.3768  2.4192
 4161TIP3   OH233897   0.704   1.458   6.196 -0.0618  0.5759 -0.0068
 4161TIP3    H133898   0.668   1.450   6.285 -1.1984  1.2022 -0.3921
 4161TIP3    H233899   0.706   1.368   6.163  0.4655  0.3279  0.6881
 4162TIP3   OH233900   1.674   2.796   6.472 -0.2414 -0.4230  0.9692
 4162TIP3    H133901   1.592   2.773   6.428 -0.9185 -0.0243  2.0012
 4162TIP3    H233902   1.720   2.713   6.483 -0.6059 -0.6762  0.5932
 4163TIP3   OH233903   5.060   1.789   0.676 -0.6707  0.0758 -0.3148
 4163TIP3    H133904   5.072   1.775   0.582  0.5016 -1.3171  0.0205
 4163TIP3    H233905   5.045   1.701   0.712  0.7370  0.3593  1.0403
 4164TIP3   OH233906   3.562   5.653   0.603  0.1149  0.0617  0.0909
 4164TIP3    H133907   3.622   5.579   0.616  0.5197 -0.0261 -2.0665
 4164TIP3    H233908   3.588   5.717   0.669  0.1140 -1.4966  1.6370
 4165TIP3   OH233909   1.099   1.417  14.404  0.3223 -0.2357  0.1322
 4165TIP3    H133910   1.019   1.469  14.398  0.6582  0.2224 -0.3974
 4165TIP3    H233911   1.163   1.464  14.349  1.3721  0.1868  1.6794
 4166TIP3   OH233912   4.617   2.430   4.898 -0.0003  0.4597 -0.1944
 4166TIP3    H133913   4.630   2.459   4.808 -1.3750 -0.8557 -0.8339
 4166TIP3    H233914   4.538   2.377   4.895  0.6175 -0.6047  1.5526
 4167TIP3   OH233915   3.186   6.728   3.267 -0.5756 -0.1715 -0.0241
 4167TIP3    H133916   3.155   6.638   3.275 -0.1140 -0.3959 -0.7389
 4167TIP3    H233917   3.133   6.765   3.196 -0.9329  0.1983  0.4288
 4168TIP3   OH233918   3.382   2.638   0.026  0.2516  0.6038 -0.7013
 4168TIP3    H133919   3.422   2.571   0.081  1.4508  1.9926  0.1630
 4168TIP3    H233920   3.417   2.622  -0.062  0.4557  0.0589 -0.5211
 4169TIP3   OH233921   3.230   4.259   2.859 -0.6293  0.2004 -0.2081
 4169TIP3    H133922   3.305   4.212   2.896 -1.0502  1.5983  2.5370
 4169TIP3    H233923   3.159   4.195   2.860 -0.4397 -0.0044  0.7347
 4170TIP3   OH233924   5.475   1.625   3.941 -0.0814 -0.3699  0.0788
 4170TIP3    H133925   5.385   1.655   3.950 -0.6495 -1.6420 -1.0848
 4170TIP3    H233926   5.519   1.695   3.893 -0.7156 -0.1909 -0.2434
 4171TIP3   OH233927   2.776   1.904  11.429 -0.0888  0.2742  0.1072
 4171TIP3    H133928   2.728   1.977  11.389 -0.4700 -0.7666 -1.3976
 4171TIP3    H233929   2.860   1.903  11.384 -0.3251 -0.5967 -0.3204
 4172TIP3   OH233930   1.874   3.855  13.679  0.2567 -0.2676 -0.2609
 4172TIP3    H133931   1.945   3.869  13.616 -2.0913  0.6054 -2.7849
 4172TIP3    H233932   1.817   3.930  13.668 -0.1008 -0.0040  3.1278
 4173TIP3   OH233933   4.071   3.232  16.781 -0.3441  0.0820 -0.1131
 4173TIP3    H133934   4.132   3.224  16.708 -3.0390  1.5612 -2.6199
 4173TIP3    H233935   4.006   3.163  16.765 -1.9713  1.6138 -0.1728
 4174TIP3   OH233936   3.629   6.247   3.943  0.6515  0.3223  0.2406
 4174TIP3    H133937   3.633   6.232   4.038  1.3464  1.7491  0.4442
 4174TIP3    H233938   3.717   6.227   3.912  0.0347 -1.6092 -0.3488
 4175TIP3   OH233939   3.031   0.994   5.055 -0.2770 -0.2091  0.3227
 4175TIP3    H133940   2.963   0.990   4.987  0.0156 -0.9995  0.0704
 4175TIP3    H233941   3.009   0.922   5.115  1.0262 -1.2429 -0.4140
 4176TIP3   OH233942   4.240   5.688   5.430 -0.0298  0.3014 -0.4431
 4176TIP3    H133943   4.148   5.668   5.451  0.4813  1.1258  2.9104
 4176TIP3    H233944   4.280   5.602   5.415 -1.5000 -0.0140 -2.7313
 4177TIP3   OH233945   1.143   4.063   2.860  0.3424  0.2518  0.3564
 4177TIP3    H133946   1.050   4.078   2.877  0.4365  0.2841  0.8467
 4177TIP3    H233947   1.165   3.984   2.909  0.1767 -0.7457 -1.1247
 4178TIP3   OH233948   5.897   0.403  16.068 -0.1885  0.0424 -0.1721
 4178TIP3    H133949   5.985   0.436  16.088  0.4014 -2.0291  0.8306
 4178TIP3    H233950   5.885   0.423  15.975  0.8768  1.3398 -0.0589
 4179TIP3   OH233951   0.437   3.123   0.223 -0.1871  0.5011 -0.4649
 4179TIP3    H133952   0.436   3.135   0.128 -1.4040  2.1826 -0.2735
 4179TIP3    H233953   0.498   3.190   0.254  0.9882 -0.7059 -0.1173
 4180TIP3   OH233954   3.378   2.536   0.337  1.0965  0.3139  0.0125
 4180TIP3    H133955   3.454   2.481   0.358 -0.5241 -2.3674 -0.9992
 4180TIP3    H233956   3.320   2.527   0.412  0.7213  0.4942 -0.2539
 4181TIP3   OH233957   5.995   6.027   5.489  0.1261 -0.1670 -0.0450
 4181TIP3    H133958   6.077   6.068   5.518  1.3775 -2.3124 -0.4768
 4181TIP3    H233959   5.942   6.100   5.456  1.7317  1.2847  0.5264
 4182TIP3   OH233960   5.576   1.864   1.746 -0.6260 -0.0666 -0.2509
 4182TIP3    H133961   5.654   1.850   1.693 -1.3294 -0.5182 -1.2025
 4182TIP3    H233962   5.605   1.854   1.836  0.8120  1.7305 -0.4941
 4183TIP3   OH233963   3.020   1.820   3.341 -0.4640 -0.1254  0.2339
 4183TIP3    H133964   2.999   1.731   3.369 -1.7406  0.2605  0.5403
 4183TIP3    H233965   2.935   1.863   3.331  0.0963  0.6656 -1.2317
 4184TIP3   OH233966   0.972   2.148  10.996 -0.1597  0.0401  0.7729
 4184TIP3    H133967   1.013   2.160  10.911  1.1818 -0.1594  1.3623
 4184TIP3    H233968   0.929   2.062  10.990  0.5260 -0.2923  0.5204
 4185TIP3   OH233969   3.884   3.562  17.064  0.1583  0.7032 -0.5045
 4185TIP3    H133970   3.974   3.568  17.097  0.4504  0.8404 -1.2951
 4185TIP3    H233971   3.859   3.652  17.046  0.0051  0.6312 -0.6511
 4186TIP3   OH233972   5.008   3.516   0.207  0.4179  0.3500 -0.3644
 4186TIP3    H133973   5.025   3.472   0.124 -1.0273  1.2307 -1.1501
 4186TIP3    H233974   4.920   3.552   0.198  0.6825  1.4347  1.1196
 4187TIP3   OH233975   6.501   0.142   2.709  1.1325  0.0512 -0.4813
 4187TIP3    H133976   6.578   0.181   2.667  0.7492  0.9829 -0.3215
 4187TIP3    H233977   6.498   0.182   2.795  0.7147 -0.3215 -0.3198
 4188TIP3   OH233978   5.562   5.907  12.121 -0.3045 -0.0258  0.0882
 4188TIP3    H133979   5.601   5.827  12.156  1.9899  0.9178 -0.2788
 4188TIP3    H233980   5.520   5.879  12.040 -0.6432 -1.0967  0.6176
 4189TIP3   OH233981   4.910   0.308   5.903  0.3615 -0.2924  0.1362
 4189TIP3    H133982   5.000   0.313   5.936  0.3437  1.1404 -0.0228
 4189TIP3    H233983   4.883   0.399   5.893 -0.4544 -0.7224 -1.6070
 4190TIP3   OH233984   4.425   6.087  10.429  0.2130 -0.4012  0.1198
 4190TIP3    H133985   4.497   6.024  10.425 -0.6477 -1.3565 -0.5965
 4190TIP3    H233986   4.372   6.069  10.351 -0.0351  1.2279 -0.1027
 4191TIP3   OH233987   0.794   3.327   0.056  0.0320  0.2771  0.1629
 4191TIP3    H133988   0.745   3.333  -0.026 -0.1248 -0.5341  0.1924
 4191TIP3    H233989   0.808   3.418   0.082 -2.2773  0.5314  0.6441
 4192TIP3   OH233990   5.860   2.620  14.385  0.1876  0.0215  0.1190
 4192TIP3    H133991   5.871   2.708  14.349  0.1980 -0.0589 -0.0748
 4192TIP3    H233992   5.910   2.564  14.326 -1.3664 -0.3740 -0.8226
 4193TIP3   OH233993   5.600   3.626  13.080  0.3581 -0.4719  0.2949
 4193TIP3    H133994   5.516   3.642  13.124  0.5631 -1.4269  1.0575
 4193TIP3    H233995   5.575   3.587  12.996 -0.0148  0.7813 -0.1811
 4194TIP3   OH233996   3.007   5.341   2.832 -0.0238 -0.4267 -0.5121
 4194TIP3    H133997   2.933   5.282   2.819  0.0884 -0.3442 -1.5796
 4194TIP3    H233998   3.070   5.290   2.882 -0.2717 -0.9269 -0.7078
 4195TIP3   OH233999   5.109   1.024  10.497 -0.0353 -0.4321  0.6929
 4195TIP3    H134000   5.055   1.061  10.568 -0.5845  0.9745 -0.4361
 4195TIP3    H234001   5.197   1.017  10.536 -0.3207  0.3629  1.5177
 4196TIP3   OH234002   0.213   0.883   1.582  0.4499  0.4475 -0.3509
 4196TIP3    H134003   0.299   0.856   1.615 -0.5617  0.7927  2.7044
 4196TIP3    H234004   0.151   0.835   1.636 -1.3035  1.2383 -1.6367
 4197TIP3   OH234005   0.915   4.521  13.911  0.4303 -0.1694  0.3124
 4197TIP3    H134006   0.866   4.448  13.875 -0.7957 -0.1582  1.9199
 4197TIP3    H234007   0.929   4.498  14.002  1.6536  0.7637  0.3675
 4198TIP3   OH234008   1.647   1.950   6.705  0.2763 -0.0085 -0.6750
 4198TIP3    H134009   1.729   1.988   6.738  0.6269 -0.9338 -0.4656
 4198TIP3    H234010   1.643   1.864   6.745 -1.6501  0.6631  0.6137
 4199TIP3   OH234011   6.131   2.352  13.737 -0.2640  0.2495 -0.3612
 4199TIP3    H134012   6.101   2.439  13.710 -2.0954  0.2236  1.4697
 4199TIP3    H234013   6.136   2.302  13.656  0.3218  1.9066 -1.3713
 4200TIP3   OH234014   2.637   2.227  16.055  0.4248  0.2478  0.7845
 4200TIP3    H134015   2.586   2.257  16.130 -0.0859 -1.0184  0.9494
 4200TIP3    H234016   2.572   2.200  15.990  0.8524  1.7465 -0.3065
 4201TIP3   OH234017   5.645   6.664  15.316  0.5147 -0.4045 -0.0330
 4201TIP3    H134018   5.554   6.639  15.299  0.2219  1.0323 -0.6290
 4201TIP3    H234019   5.684   6.670  15.229  1.6440 -2.6381  0.2835
 4202TIP3   OH234020   0.608   0.637   5.642 -0.2013 -0.4552 -0.0484
 4202TIP3    H134021   0.614   0.543   5.655  2.0968 -0.0470  2.3901
 4202TIP3    H234022   0.573   0.671   5.725 -0.8355  0.8589 -0.8270
 4203TIP3   OH234023   3.856   6.627   2.540  0.0780  0.4659  0.5584
 4203TIP3    H134024   3.916   6.608   2.467 -1.2399  0.2033 -0.4800
 4203TIP3    H234025   3.840   6.542   2.581 -0.5502  0.3410  0.0637
 4204TIP3   OH234026   4.005   4.451  15.060  0.0816  0.2260 -0.4954
 4204TIP3    H134027   3.930   4.392  15.061  0.3589 -0.1188 -0.2901
 4204TIP3    H234028   4.076   4.399  15.022  0.5503  0.1617  0.4656
 4205TIP3   OH234029   3.202   4.436  11.768  0.0524 -0.5851  0.1017
 4205TIP3    H134030   3.168   4.526  11.762 -0.1089 -0.7116 -1.1400
 4205TIP3    H234031   3.290   4.441  11.731 -0.5141 -1.2077 -1.3789
 4206TIP3   OH234032   6.146   6.415   1.059 -0.8892  0.0772 -0.4647
 4206TIP3    H134033   6.231   6.435   1.019 -1.1753 -0.4334 -1.3327
 4206TIP3    H234034   6.168   6.377   1.145 -0.1752 -1.7309 -1.4151
 4207TIP3   OH234035   4.469   4.617   3.758 -0.1579  0.0251  0.0528
 4207TIP3    H134036   4.488   4.591   3.848  0.0286  0.9282  0.2810
 4207TIP3    H234037   4.520   4.558   3.704 -1.5622 -1.6313  0.4842
 4208TIP3   OH234038   5.322   2.492  15.344 -0.1452 -0.2157  0.1381
 4208TIP3    H134039   5.302   2.469  15.253  1.8122 -3.0835  0.3872
 4208TIP3    H234040   5.293   2.417  15.395  0.1546  0.7536  1.7583
 4209TIP3   OH234041   6.341   4.365   3.685  0.0775  0.0310 -0.2745
 4209TIP3    H134042   6.320   4.283   3.641  1.4922  0.4135 -1.7175
 4209TIP3    H234043   6.356   4.427   3.614  0.2124  1.2311  0.7847
 4210TIP3   OH234044   1.201   2.630  16.155 -0.4438 -0.1573  0.0035
 4210TIP3    H134045   1.296   2.642  16.158 -0.4902  0.6749 -1.3823
 4210TIP3    H234046   1.187   2.570  16.081 -1.0241  0.0621 -0.0644
 4211TIP3   OH234047   6.400   3.892  15.606  0.4935 -0.4418 -0.3843
 4211TIP3    H134048   6.436   3.906  15.694 -1.0163  1.0731  0.0117
 4211TIP3    H234049   6.372   3.801  15.606 -1.0219 -0.0025  1.2774
 4212TIP3   OH234050   4.494   5.859   1.912  0.3359 -0.3046 -0.0531
 4212TIP3    H134051   4.507   5.775   1.868  0.7931  0.2832 -1.0475
 4212TIP3    H234052   4.569   5.911   1.886 -0.2625  0.6213  0.0721
 4213TIP3   OH234053   5.249   6.601   1.581 -0.0373  0.2634 -0.0622
 4213TIP3    H134054   5.206   6.589   1.666 -0.3860  0.7512 -0.1717
 4213TIP3    H234055   5.342   6.608   1.603  0.0752 -1.5447  0.1111
 4214TIP3   OH234056   3.850   4.095  15.910  0.4921  0.4754 -0.0735
 4214TIP3    H134057   3.903   4.175  15.914  0.6336  0.3265  1.6359
 4214TIP3    H234058   3.831   4.075  16.002  0.3458 -1.3892 -0.4956
 4215TIP3   OH234059   4.632   6.504  16.795 -0.3339 -0.3032 -0.3178
 4215TIP3    H134060   4.702   6.507  16.860 -0.9871 -0.1495  0.3996
 4215TIP3    H234061   4.648   6.580  16.739 -0.7837  0.6144  0.7668
 4216TIP3   OH234062   3.464   0.340   5.205 -0.5525 -0.0693  0.2434
 4216TIP3    H134063   3.403   0.294   5.147 -0.2117 -3.1126  2.2454
 4216TIP3    H234064   3.410   0.408   5.247 -2.2725 -1.8235  0.9505
 4217TIP3   OH234065   1.350   4.234   3.152  0.1881  0.5573  0.2221
 4217TIP3    H134066   1.270   4.185   3.172  0.0527  1.3859  1.7758
 4217TIP3    H234067   1.331   4.278   3.069 -1.2169  1.2775  0.9178
 4218TIP3   OH234068   3.424   5.144   1.596 -0.0154  0.0024  0.4700
 4218TIP3    H134069   3.416   5.112   1.506 -2.0849  0.2662  0.5354
 4218TIP3    H234070   3.418   5.066   1.650  0.3458 -0.0629  0.4171
 4219TIP3   OH234071   6.079   3.090  16.003  0.3037 -0.0513 -0.4625
 4219TIP3    H134072   6.085   3.127  15.915  0.1311  0.1664 -0.3833
 4219TIP3    H234073   6.093   3.165  16.061  3.9329 -0.7747 -0.2962
 4220TIP3   OH234074   1.974   4.646   5.819 -0.0989  0.0068 -0.0258
 4220TIP3    H134075   1.948   4.702   5.745 -1.8223  0.4569  0.8963
 4220TIP3    H234076   1.907   4.578   5.823  0.0235 -0.0615  1.0753
 4221TIP3   OH234077   1.317   5.439  11.066 -0.2413 -0.3630 -0.1645
 4221TIP3    H134078   1.369   5.361  11.048 -0.5062 -0.6028  0.1080
 4221TIP3    H234079   1.369   5.490  11.128  0.3857  0.1552 -1.0978
 4222TIP3   OH234080   1.081   4.906  11.591 -0.0388  0.5155 -0.1422
 4222TIP3    H134081   1.128   4.824  11.572  1.2837  1.2535 -0.0803
 4222TIP3    H234082   1.072   4.908  11.686 -2.0351 -0.6156 -0.2678
 4223TIP3   OH234083   4.843   2.128   6.333 -0.2430  0.5837  0.0754
 4223TIP3    H134084   4.754   2.163   6.341 -0.2903  1.3591 -3.2973
 4223TIP3    H234085   4.834   2.053   6.274  1.0996 -0.3622  1.0448
 4224TIP3   OH234086   1.518   3.543   3.702 -0.2203 -0.2621  0.1299
 4224TIP3    H134087   1.475   3.495   3.630  0.3454  0.3038 -0.5915
 4224TIP3    H234088   1.602   3.571   3.665 -0.6307  1.4536  0.4797
 4225TIP3   OH234089   6.093   6.424   3.881  0.3975 -0.3610 -0.2632
 4225TIP3    H134090   6.155   6.372   3.932 -0.5302 -1.2736 -0.0509
 4225TIP3    H234091   6.011   6.419   3.930  0.2375  1.1571 -0.3341
 4226TIP3   OH234092   6.479   0.555   5.949  0.1607  0.2756  0.3294
 4226TIP3    H134093   6.520   0.480   5.906  0.1892  0.0428  0.7637
 4226TIP3    H234094   6.491   0.627   5.887  0.8124  0.0998  0.2493
 4227TIP3   OH234095   0.485   4.128  16.840  0.3430 -0.2704  0.1470
 4227TIP3    H134096   0.507   4.178  16.919  0.1870  1.3326 -0.7848
 4227TIP3    H234097   0.484   4.194  16.770  0.7075 -1.6945 -1.2352
 4228TIP3   OH234098   3.017   5.861   5.052 -0.7415  0.2216  0.6289
 4228TIP3    H134099   3.039   5.855   5.145  0.8139 -0.2576  0.2384
 4228TIP3    H234100   2.994   5.771   5.028  0.2760  0.0700  0.2086
 4229TIP3   OH234101   3.323   2.523  14.677 -0.1263 -0.7765  0.0828
 4229TIP3    H134102   3.250   2.480  14.633 -0.3732 -0.4151  0.1359
 4229TIP3    H234103   3.334   2.605  14.629  1.7748 -1.8781 -1.4325
 4230TIP3   OH234104   0.778   0.384   5.500  0.3910 -0.0208  0.4373
 4230TIP3    H134105   0.827   0.406   5.579  0.4794 -1.6424  0.8456
 4230TIP3    H234106   0.839   0.402   5.428  1.4496 -1.5667  0.9124
 4231TIP3   OH234107   5.930   5.426   0.707  0.2272 -0.1085 -0.2186
 4231TIP3    H134108   5.900   5.335   0.715  1.8078 -0.7031 -0.7795
 4231TIP3    H234109   6.014   5.419   0.662 -0.1536  1.7355 -1.2273
 4232TIP3   OH234110   2.944   0.686  13.229 -0.2824  0.5179 -0.2693
 4232TIP3    H134111   2.852   0.668  13.209 -0.8419  2.0617  0.8575
 4232TIP3    H234112   2.964   0.629  13.303 -0.2654  0.0111 -0.6632
 4233TIP3   OH234113   1.240   4.356  13.297 -1.0161 -0.1503  0.0429
 4233TIP3    H134114   1.332   4.362  13.325 -0.6858  1.3901 -1.3112
 4233TIP3    H234115   1.201   4.438  13.328 -1.4527  0.0852 -1.1399
 4234TIP3   OH234116   3.635   3.218   0.585  0.0136 -0.1354  0.1566
 4234TIP3    H134117   3.610   3.126   0.574 -1.3352  0.3680 -1.2605
 4234TIP3    H234118   3.723   3.215   0.621 -0.9294 -1.9891  2.3950
 4235TIP3   OH234119   1.913   5.888  15.311  0.7703  0.1315  0.4829
 4235TIP3    H134120   1.933   5.807  15.265  1.8994  0.3304  0.5878
 4235TIP3    H234121   1.869   5.860  15.391  2.6098 -0.5179  1.3114
 4236TIP3   OH234122   2.424   6.471   1.110 -0.0682  0.5099 -0.0686
 4236TIP3    H134123   2.485   6.400   1.129 -0.5053 -0.1340 -1.0125
 4236TIP3    H234124   2.469   6.550   1.140  0.9930 -0.0166 -0.2439
 4237TIP3   OH234125   0.812   0.152   3.470  0.3192  0.1663 -0.7425
 4237TIP3    H134126   0.768   0.120   3.549  1.2226 -2.4472 -1.2428
 4237TIP3    H234127   0.819   0.247   3.483 -1.1342  0.0063  1.4907
 4238TIP3   OH234128   4.233   4.787  16.715  0.3240  0.0689  0.2881
 4238TIP3    H134129   4.193   4.775  16.801 -0.3697 -0.6572 -0.1224
 4238TIP3    H234130   4.203   4.711  16.664  2.4334 -0.6285  0.0418
 4239TIP3   OH234131   2.180   2.284  14.912  0.2001  0.1516  0.6037
 4239TIP3    H134132   2.129   2.203  14.917 -0.3519  0.5768  2.8753
 4239TIP3    H234133   2.168   2.315  14.823 -1.4677 -1.1011  0.3595
 4240TIP3   OH234134   3.592   0.441  10.822 -0.2886 -0.1472 -0.1917
 4240TIP3    H134135   3.596   0.346  10.806 -1.9778 -0.4171  0.9233
 4240TIP3    H234136   3.499   0.459  10.838  0.3163  1.3592  1.7452
 4241TIP3   OH234137   3.102   5.710  14.512 -0.1729 -0.1169 -0.6699
 4241TIP3    H134138   3.088   5.802  14.488  2.8725  0.4070 -0.6710
 4241TIP3    H234139   3.063   5.702  14.599 -1.2596  0.9272 -1.0399
 4242TIP3   OH234140   1.025   0.895   3.253 -0.5526  0.3294 -0.4022
 4242TIP3    H134141   0.975   0.814   3.249  1.5856 -1.0514 -0.3435
 4242TIP3    H234142   1.101   0.873   3.307  0.9432  1.8695 -1.8238
 4243TIP3   OH234143   4.951   0.577   1.799 -0.1683 -0.8019 -0.2058
 4243TIP3    H134144   4.925   0.487   1.818  0.2153 -0.7064  0.7949
 4243TIP3    H234145   5.045   0.572   1.784 -0.3814 -0.7985 -1.6745
 4244TIP3   OH234146   5.132   4.165  10.880 -0.1176  0.3355  0.0960
 4244TIP3    H134147   5.194   4.237  10.867  1.6501 -1.1824 -0.1293
 4244TIP3    H234148   5.060   4.184  10.819 -0.9003  3.1781  1.7837
 4245TIP3   OH234149   5.224   1.341   4.499 -0.0634 -0.0276  0.3058
 4245TIP3    H134150   5.253   1.365   4.587  2.4048  0.1727 -0.5270
 4245TIP3    H234151   5.147   1.396   4.482  0.6188  1.3279  1.5774
 4246TIP3   OH234152   5.438   2.609  16.703  0.0336 -0.2892  0.5739
 4246TIP3    H134153   5.504   2.644  16.644 -1.6253  1.0928 -0.5005
 4246TIP3    H234154   5.455   2.653  16.787  0.1597  0.4377  0.1672
 4247TIP3   OH234155   4.542   4.874  16.896  0.4282  0.0925  0.6658
 4247TIP3    H134156   4.475   4.938  16.871 -0.0812 -0.2494  1.1440
 4247TIP3    H234157   4.623   4.925  16.902  0.5076  0.2410 -1.3236
 4248TIP3   OH234158   2.043   4.355  12.453  0.6157  0.0373 -0.4381
 4248TIP3    H134159   1.973   4.341  12.389  1.9414 -0.8964 -1.7283
 4248TIP3    H234160   1.998   4.376  12.534 -1.1496 -0.2662 -1.3219
 4249TIP3   OH234161   6.058   4.945   1.544  0.3653 -0.8911 -0.5140
 4249TIP3    H134162   6.131   4.999   1.513 -0.7016 -0.0605 -1.6512
 4249TIP3    H234163   6.099   4.870   1.587  1.8828 -0.6089 -1.4496
 4250TIP3   OH234164   1.708   1.209   3.262 -0.5441  0.0011  0.4465
 4250TIP3    H134165   1.656   1.136   3.297 -0.5458 -0.3727 -0.3206
 4250TIP3    H234166   1.755   1.244   3.338 -0.9558 -0.4614  0.9158
 4251TIP3   OH234167   1.764   0.014  12.225 -0.0687 -0.2830 -0.4933
 4251TIP3    H134168   1.698   0.076  12.193  1.1746  0.9535 -0.7185
 4251TIP3    H234169   1.767   0.027  12.319  0.3911  0.2133 -0.5741
 4252TIP3   OH234170   2.200   2.690   2.306  0.0910  0.2552 -0.2307
 4252TIP3    H134171   2.224   2.731   2.223  0.9401  1.4072  0.5627
 4252TIP3    H234172   2.256   2.733   2.371 -0.7063 -0.4851  0.9691
 4253TIP3   OH234173   1.685   1.214   2.986  0.4520  0.4015  0.1058
 4253TIP3    H134174   1.676   1.220   3.081 -1.5757 -1.8034  0.0876
 4253TIP3    H234175   1.770   1.172   2.972 -0.0841 -0.9988  1.0095
 4254TIP3   OH234176   2.967   5.661  15.235 -0.4392 -0.4649  0.5182
 4254TIP3    H134177   2.913   5.616  15.301 -1.6129 -2.1038 -1.5057
 4254TIP3    H234178   3.057   5.636  15.256 -0.8579 -1.5380  1.0519
 4255TIP3   OH234179   3.975   2.134  13.372  0.0328 -0.6573 -0.5358
 4255TIP3    H134180   3.996   2.227  13.364 -2.6278 -0.0558 -0.9225
 4255TIP3    H234181   3.922   2.114  13.295 -1.4581 -1.8888  0.7751
 4256TIP3   OH234182   2.508   3.711   1.023 -0.0064 -0.5302  0.4996
 4256TIP3    H134183   2.448   3.780   0.994  1.1789  0.4371  0.3158
 4256TIP3    H234184   2.529   3.663   0.944  2.2324  1.3310 -0.0985
 4257TIP3   OH234185   2.382   3.644  11.722  0.0955 -0.0936  0.1604
 4257TIP3    H134186   2.334   3.691  11.653 -1.0932 -0.4811  0.7024
 4257TIP3    H234187   2.409   3.712  11.784 -0.6871  0.0144  0.3920
 4258TIP3   OH234188   1.219   0.931   3.544  0.2149  0.3823 -0.1533
 4258TIP3    H134189   1.197   0.897   3.631 -0.2118  1.2855  0.0996
 4258TIP3    H234190   1.210   0.856   3.486  1.8395 -0.5624  0.7921
 4259TIP3   OH234191   0.255   3.074  15.461 -0.2518  0.3726  0.0029
 4259TIP3    H134192   0.216   3.000  15.507  0.1221 -0.8449 -1.5901
 4259TIP3    H234193   0.239   3.056  15.368  0.8789  1.6947 -0.4720
 4260TIP3   OH234194   2.160   2.263  12.531  0.2013  0.7621 -0.3377
 4260TIP3    H134195   2.247   2.272  12.569  0.7825 -0.3531 -1.3869
 4260TIP3    H234196   2.129   2.353  12.522  0.6532  1.0992  1.3702
 4261TIP3   OH234197   4.230   4.125  15.705  0.4356 -0.3476  0.4529
 4261TIP3    H134198   4.283   4.192  15.747 -0.5688 -0.0796  1.3151
 4261TIP3    H234199   4.234   4.146  15.611 -0.2769  1.2271  0.7583
 4262TIP3   OH234200   0.662   0.752   2.727 -0.7591 -0.4580  0.6872
 4262TIP3    H134201   0.737   0.727   2.781  0.4224 -0.3858 -0.8837
 4262TIP3    H234202   0.605   0.675   2.730 -0.5850 -0.5557  1.8133
 4263TIP3   OH234203   0.181   1.526  11.616  0.1535 -0.5879 -0.6489
 4263TIP3    H134204   0.155   1.592  11.552 -2.7325 -2.6655 -1.7035
 4263TIP3    H234205   0.262   1.490  11.582 -1.0020 -1.2023 -2.8423
 4264TIP3   OH234206   5.856   6.275  11.138 -0.3668 -0.3822 -0.6815
 4264TIP3    H134207   5.890   6.364  11.144  0.5583 -0.6385 -1.9930
 4264TIP3    H234208   5.761   6.287  11.126 -0.2441  0.4241 -0.9007
 4265TIP3   OH234209   5.226   4.923   4.299  0.2808 -0.3378  0.0483
 4265TIP3    H134210   5.191   4.869   4.370  2.1562  0.1456  1.3672
 4265TIP3    H234211   5.317   4.894   4.290  0.1922 -0.0817 -1.8709
 4266TIP3   OH234212   1.112   3.470   0.878  0.2934 -0.0050 -0.2642
 4266TIP3    H134213   1.105   3.551   0.827  0.6347 -0.3065 -0.7846
 4266TIP3    H234214   1.052   3.409   0.836  0.3103 -0.1394 -0.0945
 4267TIP3   OH234215   0.903   4.831   2.261  0.9326  0.2440  0.3110
 4267TIP3    H134216   0.968   4.901   2.272 -0.1450  1.2882  0.1693
 4267TIP3    H234217   0.905   4.783   2.344  0.3731  1.5883  1.1231
 4268TIP3   OH234218   1.041   2.056  16.815  0.1880  0.2363 -0.1013
 4268TIP3    H134219   1.042   2.040  16.909  0.8326  0.4414 -0.0683
 4268TIP3    H234220   0.992   2.137  16.805  0.3161  0.3374  0.0833
 4269TIP3   OH234221   4.449   3.266  16.080 -0.0542  0.1924 -0.6097
 4269TIP3    H134222   4.541   3.243  16.095  0.0817 -0.9177 -2.8595
 4269TIP3    H234223   4.419   3.302  16.163  1.8798 -1.2683  0.7693
 4270TIP3   OH234224   0.228   2.600  11.879 -0.4583  0.0885  0.0469
 4270TIP3    H134225   0.236   2.657  11.802 -0.1579  1.7247  1.2785
 4270TIP3    H234226   0.239   2.511  11.843  1.4153  0.9214 -1.5717
 4271TIP3   OH234227   2.686   2.756   5.322 -0.3476  0.1926  0.3161
 4271TIP3    H134228   2.761   2.815   5.331 -0.4042  0.1058  1.4385
 4271TIP3    H234229   2.697   2.692   5.393 -1.7639  0.5126  0.8530
 4272TIP3   OH234230   0.424   1.349  11.099  0.1554  0.0590  0.6264
 4272TIP3    H134231   0.396   1.382  11.014 -0.6323 -1.6898  0.1822
 4272TIP3    H234232   0.384   1.262  11.106  0.7525 -0.0988  2.4947
 4273TIP3   OH234233   4.189   1.571  15.831  0.8840  0.2711  0.5558
 4273TIP3    H134234   4.146   1.532  15.908 -0.3857 -0.6764 -0.6151
 4273TIP3    H234235   4.265   1.616  15.867  0.8168 -0.9279  2.2773
 4274TIP3   OH234236   0.296   1.233   1.120  0.4539  0.6798 -0.3917
 4274TIP3    H134237   0.269   1.144   1.142 -0.4839  1.3317  1.1883
 4274TIP3    H234238   0.390   1.234   1.135  0.1812  0.4593  1.4595
 4275TIP3   OH234239   3.834   5.689  12.389  0.0480 -0.2519 -0.0910
 4275TIP3    H134240   3.774   5.650  12.453 -0.2732  1.2265  0.5245
 4275TIP3    H234241   3.848   5.620  12.324 -0.1158 -1.5554  1.2408
 4276TIP3   OH234242   2.702   2.640  11.189 -0.2661 -0.4680  0.0703
 4276TIP3    H134243   2.688   2.550  11.217 -0.4814 -0.7080 -0.7939
 4276TIP3    H234244   2.736   2.685  11.266  1.0021 -1.5768  0.1647
 4277TIP3   OH234245   2.004   0.819   3.748 -0.4015 -0.0112 -0.6086
 4277TIP3    H134246   1.958   0.765   3.684  1.6800 -1.8261 -0.6465
 4277TIP3    H234247   2.096   0.795   3.737  0.2857  1.6832  1.1761
 4278TIP3   OH234248   6.492   4.777   5.287  0.1771 -0.2766 -0.3417
 4278TIP3    H134249   6.559   4.757   5.221  0.6239 -1.2158  0.3889
 4278TIP3    H234250   6.523   4.735   5.367  0.0312  1.4935  0.6927
 4279TIP3   OH234251   1.487   2.998  12.474 -0.0225 -0.0713  0.2832
 4279TIP3    H134252   1.488   3.094  12.470 -0.5725 -0.0589  0.4369
 4279TIP3    H234253   1.531   2.977  12.556 -3.8877  0.1936  2.5250
 4280TIP3   OH234254   5.558   1.543  13.792  0.1492 -0.3738  0.0941
 4280TIP3    H134255   5.547   1.502  13.706  0.1132  0.5557 -0.3450
 4280TIP3    H234256   5.637   1.596  13.784 -0.0811  0.0380  0.5094
 4281TIP3   OH234257   1.615   4.587  13.820 -0.3273  0.4555 -0.0316
 4281TIP3    H134258   1.650   4.505  13.854  1.7962  1.2778 -0.1426
 4281TIP3    H234259   1.620   4.577  13.725  0.5100  0.9525 -0.0385
 4282TIP3   OH234260   3.332   4.183  17.035  0.3959  0.1107  0.3382
 4282TIP3    H134261   3.374   4.159  17.118 -0.0558 -1.0943  0.2182
 4282TIP3    H234262   3.286   4.104  17.007 -1.4475  1.2154  0.1535
 4283TIP3   OH234263   3.878   0.109   5.770  0.0826  0.2151 -0.2300
 4283TIP3    H134264   3.918   0.050   5.834  1.0136  1.4255  0.3419
 4283TIP3    H234265   3.854   0.053   5.697 -0.6151 -1.1270  1.0062
 4284TIP3   OH234266   6.486   0.769  15.301  0.3300 -0.3090  0.4776
 4284TIP3    H134267   6.572   0.802  15.325 -0.8220  1.9422  1.6139
 4284TIP3    H234268   6.427   0.844  15.308 -1.5670 -1.5513 -1.2838
 4285TIP3   OH234269   3.257   1.950   1.801  0.4976 -0.0147 -0.4438
 4285TIP3    H134270   3.178   2.002   1.785 -1.1220 -2.2788 -0.0694
 4285TIP3    H234271   3.280   1.969   1.892  0.1622  0.3616 -0.4364
 4286TIP3   OH234272   4.182   2.561  16.813  0.3513 -0.0876  0.6391
 4286TIP3    H134273   4.104   2.537  16.763  1.6815 -1.1413 -1.0081
 4286TIP3    H234274   4.152   2.566  16.904 -2.0908  1.6750 -0.2248
 4287TIP3   OH234275   4.132   3.912   1.478  0.1939 -0.1384  0.0531
 4287TIP3    H134276   4.048   3.868   1.476 -0.2628  0.6544  1.4535
 4287TIP3    H234277   4.195   3.843   1.499 -0.5588 -0.0950  2.6121
 4288TIP3   OH234278   4.186   1.582  10.606  0.0420  0.1024 -0.0956
 4288TIP3    H134279   4.171   1.511  10.543  0.4418 -2.2177  2.3217
 4288TIP3    H234280   4.281   1.593  10.607 -0.1301  1.8946 -1.7261
 4289TIP3   OH234281   5.832   5.908  16.102  0.4838 -0.7458  0.2062
 4289TIP3    H134282   5.737   5.900  16.089  0.1776  0.6314  1.4433
 4289TIP3    H234283   5.868   5.830  16.061 -1.0574 -0.5610 -1.5609
 4290TIP3   OH234284   4.173   5.514  16.212 -0.7495 -0.1656  0.5095
 4290TIP3    H134285   4.108   5.443  16.204 -0.1922 -0.6971  0.6615
 4290TIP3    H234286   4.253   5.470  16.240  0.3570  0.1301 -2.0931
 4291TIP3   OH234287   1.723   2.812  12.601 -0.0762 -0.1212 -0.2494
 4291TIP3    H134288   1.804   2.835  12.555 -0.4877  1.2350 -0.3202
 4291TIP3    H234289   1.745   2.821  12.694  0.0478 -0.4014 -0.2535
 4292TIP3   OH234290   2.950   4.962   2.703  0.1232  0.3515  0.7744
 4292TIP3    H134291   2.976   4.906   2.630 -1.1622 -1.9927  2.0679
 4292TIP3    H234292   2.897   5.031   2.662  1.4347  0.4516 -0.7934
 4293TIP3   OH234293   6.658   2.578   0.623  0.3265  0.2111  0.3773
 4293TIP3    H134294   6.655   2.483   0.629 -1.5089  0.2536  0.5597
 4293TIP3    H234295   6.601   2.600   0.549  2.4348  1.0728 -1.0375
 4294TIP3   OH234296   3.526   4.177   3.332 -0.4923  0.3525  0.2588
 4294TIP3    H134297   3.563   4.149   3.248 -1.0583 -0.4349  0.2606
 4294TIP3    H234298   3.431   4.175   3.318 -0.7003 -2.6166  1.7744
 4295TIP3   OH234299   4.589   2.868  12.849  0.0188  0.3345  0.1539
 4295TIP3    H134300   4.664   2.909  12.806 -1.3167 -0.0086 -2.6344
 4295TIP3    H234301   4.564   2.929  12.918  2.5709  0.6403  0.8784
 4296TIP3   OH234302   1.371   6.680  13.622 -0.4133  0.7416  0.3527
 4296TIP3    H134303   1.422   6.736  13.681 -1.0956  1.2838  0.4348
 4296TIP3    H234304   1.346   6.606  13.677  1.2209 -0.1020  0.0138
 4297TIP3   OH234305   0.238   0.255  11.277  0.9708 -0.1859 -0.1355
 4297TIP3    H134306   0.199   0.208  11.351  3.1019  0.3444  1.4059
 4297TIP3    H234307   0.331   0.234  11.283  1.5123  1.7853 -1.2316
 4298TIP3   OH234308   0.936   4.193  14.091 -0.1910  0.0022 -0.6734
 4298TIP3    H134309   0.909   4.186  14.000 -0.0074  0.5196 -0.7719
 4298TIP3    H234310   0.866   4.150  14.141 -0.7961  0.6352 -0.9773
 4299TIP3   OH234311   5.950   4.347   4.141  0.2075 -0.1404 -0.5141
 4299TIP3    H134312   6.025   4.295   4.113 -0.3715 -1.4498  0.2979
 4299TIP3    H234313   5.930   4.315   4.229 -1.8181 -0.4218 -1.0375
 4300TIP3   OH234314   0.085   4.690   2.702 -0.4767 -0.6119  0.0264
 4300TIP3    H134315   0.069   4.725   2.790 -0.7074  1.1056 -0.6848
 4300TIP3    H234316  -0.002   4.666   2.670 -0.6310  0.7107 -0.5387
 4301TIP3   OH234317   3.950   2.614  12.576 -0.1025 -0.4457  0.5706
 4301TIP3    H134318   3.870   2.641  12.530 -0.3175 -0.9919  0.6272
 4301TIP3    H234319   3.940   2.650  12.664 -0.0957 -0.1623  0.4584
 4302TIP3   OH234320   4.450   4.560   4.910  0.2261 -0.2402 -0.1352
 4302TIP3    H134321   4.503   4.566   4.990  0.1391 -2.3541  0.0971
 4302TIP3    H234322   4.461   4.470   4.880 -1.3302 -0.0321 -1.4063
 4303TIP3   OH234323   5.848   3.160   0.070 -0.2871 -0.1310 -0.3623
 4303TIP3    H134324   5.828   3.252   0.086  0.5874  0.4670 -2.4546
 4303TIP3    H234325   5.855   3.121   0.157 -1.2139  1.6526  0.5371
 4304TIP3   OH234326   5.753   6.041   0.243  0.0781  0.2896  0.2668
 4304TIP3    H134327   5.749   5.979   0.171  0.9193  0.7380 -0.1693
 4304TIP3    H234328   5.669   6.031   0.288 -0.5288  0.1567 -0.8880
 4305TIP3   OH234329   4.194   2.434   5.477 -0.2335 -0.2425 -0.0366
 4305TIP3    H134330   4.208   2.359   5.419 -0.2679 -0.2221 -0.0715
 4305TIP3    H234331   4.118   2.409   5.530 -0.7262  0.0887 -0.5833
 4306TIP3   OH234332   0.011   1.950  13.606  0.0121 -0.3280 -0.3419
 4306TIP3    H134333   0.087   2.000  13.577 -1.0293  0.7351 -1.3373
 4306TIP3    H234334   0.019   1.866  13.562  0.9369 -0.4579  0.0606
 4307TIP3   OH234335   1.710   2.406  12.957 -0.0566  0.4255  1.1027
 4307TIP3    H134336   1.688   2.327  13.006  0.2431  0.3386  1.0963
 4307TIP3    H234337   1.779   2.378  12.897 -0.5967  0.4663  0.4513
 4308TIP3   OH234338   6.163   1.963   5.937 -0.2322  0.3990  0.2760
 4308TIP3    H134339   6.087   1.928   5.984  0.9235 -0.0558  1.8728
 4308TIP3    H234340   6.203   2.025   5.999  1.0038  0.2009 -0.3061
 4309TIP3   OH234341   3.692   3.604  13.574 -0.2940 -0.5212 -0.5847
 4309TIP3    H134342   3.690   3.700  13.572 -1.8673 -0.5350 -0.1637
 4309TIP3    H234343   3.662   3.578  13.487 -0.7461 -0.6346 -0.3955
 4310TIP3   OH234344   0.097   6.035  11.852 -0.3370 -0.2763 -0.5235
 4310TIP3    H134345   0.113   5.957  11.799 -0.5065 -0.8327  0.2327
 4310TIP3    H234346   0.131   6.108  11.800  1.1781 -1.0196 -0.5960
 4311TIP3   OH234347   3.922   5.282   5.589  0.0277 -0.2136  0.2977
 4311TIP3    H134348   3.838   5.320   5.562  0.2562  1.2225  1.5396
 4311TIP3    H234349   3.930   5.202   5.536 -2.3587 -0.6663  0.5541
 4312TIP3   OH234350   5.663   0.211  16.094 -0.1230  0.0308  0.3741
 4312TIP3    H134351   5.746   0.249  16.121  0.8213 -0.5002 -1.7044
 4312TIP3    H234352   5.628   0.274  16.030 -0.4200 -0.6612 -0.1469
 4313TIP3   OH234353   6.229   5.821  14.407 -0.0490  0.2742 -0.0730
 4313TIP3    H134354   6.250   5.826  14.500 -0.4541  0.4263  0.0107
 4313TIP3    H234355   6.134   5.834  14.403 -0.2685 -1.3549 -0.3784
 4314TIP3   OH234356   6.662   4.181  15.780 -0.2309  0.2129  0.3745
 4314TIP3    H134357   6.648   4.176  15.685 -1.5860  0.7566  0.5334
 4314TIP3    H234358   6.688   4.093  15.805 -0.4390 -0.0851 -0.4189
 4315TIP3   OH234359   3.401   4.927   4.830  0.2162 -0.2874  0.3051
 4315TIP3    H134360   3.320   4.970   4.857  0.6879  0.5646  0.3809
 4315TIP3    H234361   3.378   4.878   4.751 -0.8350 -1.6341  1.4110
 4316TIP3   OH234362   5.806   3.355  16.968  0.2078 -0.8720 -0.4914
 4316TIP3    H134363   5.870   3.292  16.935  0.2335 -0.8191 -0.5452
 4316TIP3    H234364   5.743   3.303  17.018  0.5813 -0.8600 -0.0021
 4317TIP3   OH234365   4.735   1.313  16.613 -0.2953  0.5492  0.5631
 4317TIP3    H134366   4.728   1.301  16.708 -2.4731  2.9368  0.7449
 4317TIP3    H234367   4.697   1.233  16.576  2.4816 -1.3628  1.6334
 4318TIP3   OH234368   2.855   0.818  12.796  0.5100 -0.1807  0.3009
 4318TIP3    H134369   2.787   0.880  12.823  0.0427 -0.0565 -1.0995
 4318TIP3    H234370   2.861   0.756  12.868 -0.3178  0.4394  0.9196
 4319TIP3   OH234371   3.027   0.344  15.902 -0.4351  0.2075 -0.2338
 4319TIP3    H134372   3.012   0.439  15.895 -0.6807  0.2656  1.0170
 4319TIP3    H234373   3.119   0.337  15.927 -0.5691  0.1236  0.2217
 4320TIP3   OH234374   2.239   3.406   5.341 -0.1622 -0.2314 -0.1775
 4320TIP3    H134375   2.300   3.334   5.326 -0.5103 -0.8209  1.1624
 4320TIP3    H234376   2.207   3.429   5.254  1.5774 -0.2530 -0.8385
 4321TIP3   OH234377   1.701   4.813  17.130  0.2284  0.8158  0.6245
 4321TIP3    H134378   1.642   4.814  17.055  0.6507 -1.9288  0.2034
 4321TIP3    H234379   1.643   4.808  17.206 -0.1538 -1.0868  0.2458
 4322TIP3   OH234380   4.444   0.901   1.043 -0.1250 -0.2785  0.6052
 4322TIP3    H134381   4.456   0.928   1.134 -0.3131  2.3205 -0.1130
 4322TIP3    H234382   4.353   0.869   1.040  0.4309 -2.0934  1.6887
 4323TIP3   OH234383   0.204   6.224  13.430 -0.2408 -0.2138 -0.5839
 4323TIP3    H134384   0.268   6.288  13.399  1.3315 -0.7701  1.3843
 4323TIP3    H234385   0.152   6.272  13.495 -0.9921 -0.1455 -1.2190
 4324TIP3   OH234386   3.731   6.534  15.467 -0.2443  0.3841 -0.3318
 4324TIP3    H134387   3.669   6.514  15.537 -0.6975  3.1406  0.0724
 4324TIP3    H234388   3.675   6.552  15.390  0.0909  1.4815 -0.3228
 4325TIP3   OH234389   2.746   0.209   5.458 -0.3760 -0.1821  0.9602
 4325TIP3    H134390   2.838   0.182   5.464 -0.7458 -1.8413 -0.4982
 4325TIP3    H234391   2.719   0.222   5.549  1.4947  1.0250  1.3711
 4326TIP3   OH234392   3.135   6.040   5.803  0.4413 -0.2579 -0.2544
 4326TIP3    H134393   3.096   6.113   5.850  1.0380 -0.9140  1.3074
 4326TIP3    H234394   3.061   5.988   5.772  0.0196  0.9850 -1.3249
 4327TIP3   OH234395   3.535   0.606  12.471  0.0266  0.5776  0.3348
 4327TIP3    H134396   3.576   0.533  12.424 -0.6874  0.1005  0.4577
 4327TIP3    H234397   3.449   0.616  12.431  0.3062  1.6834 -0.0189
 4328TIP3   OH234398   0.452   6.358   3.542 -0.5920  0.0825  0.1185
 4328TIP3    H134399   0.543   6.374   3.565 -0.9423  1.3537  0.6710
 4328TIP3    H234400   0.423   6.291   3.604 -0.6289  1.2038  1.3168
 4329TIP3   OH234401   2.496   0.656   2.502  0.2084 -0.3920 -0.4988
 4329TIP3    H134402   2.456   0.697   2.425  1.6891 -0.9272 -1.5736
 4329TIP3    H234403   2.475   0.563   2.493  0.9159 -0.5458 -0.5987
 4330TIP3   OH234404   1.086   3.981   1.858 -0.4310  0.0573  0.1358
 4330TIP3    H134405   1.025   3.936   1.801  1.2638 -2.8209  0.4872
 4330TIP3    H234406   1.171   3.941   1.839  0.6337  0.9889  2.6719
 4331TIP3   OH234407   2.400   3.316  14.363  0.6998 -0.0686 -0.1179
 4331TIP3    H134408   2.419   3.403  14.329 -0.2366  0.5380  0.8645
 4331TIP3    H234409   2.332   3.282  14.306  0.7378  0.0268 -0.2206
 4332TIP3   OH234410   4.609   5.503  15.005  0.6359  0.2329 -0.2797
 4332TIP3    H134411   4.573   5.415  15.010  0.3416  0.2384 -2.0669
 4332TIP3    H234412   4.702   5.493  15.026  0.1383 -0.1436  1.8455
 4333TIP3   OH234413   2.833   0.827   5.767 -0.3419  0.3365 -0.5788
 4333TIP3    H134414   2.834   0.779   5.684 -1.7621 -0.7589  0.0053
 4333TIP3    H234415   2.785   0.907   5.749 -1.6266 -0.4217 -0.5503
 4334TIP3   OH234416   4.715   0.554  11.514 -0.5349  0.1242 -0.0130
 4334TIP3    H134417   4.796   0.566  11.464  0.6061 -2.0895  1.2420
 4334TIP3    H234418   4.729   0.605  11.594  0.0067 -0.9678  0.6008
 4335TIP3   OH234419   4.639   4.891  12.630 -0.6613  0.3205  0.4215
 4335TIP3    H134420   4.714   4.862  12.578 -1.1735  1.2553 -0.8558
 4335TIP3    H234421   4.564   4.851  12.587 -1.1236  1.4070  0.2077
 4336TIP3   OH234422   5.999   2.164   2.331  0.2122 -0.3020  0.1389
 4336TIP3    H134423   6.043   2.084   2.304 -0.2156 -0.8637  1.0751
 4336TIP3    H234424   5.922   2.171   2.274  0.4880 -0.3146 -0.2359
 4337TIP3   OH234425   3.858   4.597   2.437 -0.8378 -0.1961  0.5320
 4337TIP3    H134426   3.830   4.668   2.495  0.3304  0.5869  0.1650
 4337TIP3    H234427   3.843   4.518   2.488 -1.4262  0.3711  1.2548
 4338TIP3   OH234428   3.672   5.242   0.897  0.7495 -0.8450 -0.6340
 4338TIP3    H134429   3.692   5.191   0.819 -1.3121 -2.0824 -0.4011
 4338TIP3    H234430   3.621   5.317   0.864  0.5902 -0.9265 -0.5753
 4339TIP3   OH234431   6.602   6.737  15.209 -0.2027 -0.2152  0.2189
 4339TIP3    H134432   6.675   6.712  15.266  0.9725  0.8639 -0.7637
 4339TIP3    H234433   6.596   6.832  15.219  0.8410  0.1670 -2.3773
 4340TIP3   OH234434   6.126   6.699  13.157  1.1053 -0.7586  0.4778
 4340TIP3    H134435   6.033   6.680  13.145  1.4289 -1.5855 -0.7494
 4340TIP3    H234436   6.169   6.652  13.086  2.2853  1.2660 -0.1787
 4341TIP3   OH234437   4.344   6.457  12.031 -0.0156  0.3747 -0.1075
 4341TIP3    H134438   4.361   6.370  11.995 -1.4859  0.5467 -1.2952
 4341TIP3    H234439   4.359   6.517  11.958 -1.7574  0.8567 -0.1010
 4342TIP3   OH234440   4.706   4.395  13.757 -0.1090  0.0241  0.2387
 4342TIP3    H134441   4.765   4.333  13.800  0.1952  1.0804  1.3775
 4342TIP3    H234442   4.620   4.377  13.795 -0.0430  0.2014  0.4754
 4343TIP3   OH234443   3.094   0.179   2.794  0.2298  0.2677 -0.6180
 4343TIP3    H134444   3.018   0.127   2.819  0.5286 -0.3273 -0.9469
 4343TIP3    H234445   3.166   0.116   2.789  1.6848  1.4191  3.8051
 4344TIP3   OH234446   4.251   0.802   5.656 -0.1515  0.2774 -0.0713
 4344TIP3    H134447   4.255   0.860   5.732  1.9786 -0.5292  0.4720
 4344TIP3    H234448   4.280   0.717   5.689 -0.3541 -0.3745 -1.5249
 4345TIP3   OH234449   5.768   2.273  15.230  0.2099  0.3621 -0.1491
 4345TIP3    H134450   5.763   2.354  15.179  0.4888  0.4129 -0.0960
 4345TIP3    H234451   5.709   2.288  15.304 -0.6167  0.0793 -0.7436
 4346TIP3   OH234452   5.541   4.166  14.929 -0.5554  0.4904 -0.5764
 4346TIP3    H134453   5.471   4.116  14.970  1.0751  0.1100  1.8398
 4346TIP3    H234454   5.622   4.132  14.968  0.8410  2.4303 -1.6448
 4347TIP3   OH234455   5.607   2.196   2.149 -0.0689 -0.1721 -0.0446
 4347TIP3    H134456   5.692   2.230   2.119 -0.6947  0.0312 -1.6026
 4347TIP3    H234457   5.630   2.132   2.217  1.2784  0.7910  0.4245
 4348TIP3   OH234458   3.721   0.683  10.859  0.1300  0.5586 -0.0096
 4348TIP3    H134459   3.691   0.594  10.840 -0.5096  0.5849  0.8180
 4348TIP3    H234460   3.668   0.739  10.803 -1.3809  0.6029  1.4211
 4349TIP3   OH234461   6.459   6.207  12.224 -0.0450  0.4583  0.1932
 4349TIP3    H134462   6.491   6.127  12.181 -3.3899 -1.3366  0.8473
 4349TIP3    H234463   6.501   6.278  12.176  2.7972 -1.6544 -0.6124
 4350TIP3   OH234464   4.478   0.197   0.986 -0.0994  0.7933  0.2512
 4350TIP3    H134465   4.557   0.246   1.007  1.1570 -1.0360 -0.0477
 4350TIP3    H234466   4.476   0.126   1.050 -0.2430 -0.5113 -1.1760
 4351TIP3   OH234467   5.055   3.461   1.366  0.1333 -0.3361  0.4140
 4351TIP3    H134468   5.040   3.394   1.432  1.0822 -0.4650  0.5042
 4351TIP3    H234469   5.005   3.537   1.397 -0.9874 -0.9999  0.2838
 4352TIP3   OH234470   0.281   4.486   2.784 -0.1233  0.2324  0.9231
 4352TIP3    H134471   0.236   4.568   2.762 -4.7096 -2.1472  0.7757
 4352TIP3    H234472   0.267   4.430   2.707  1.6577 -1.1750  1.5960
 4353TIP3   OH234473   6.532   2.420  11.698 -0.7673  0.3853  0.3235
 4353TIP3    H134474   6.533   2.324  11.691 -1.2438  0.4404 -0.5329
 4353TIP3    H234475   6.624   2.446  11.686 -0.7938  0.1081 -0.4846
 4354TIP3   OH234476   5.167   1.398  15.187  0.1264 -0.1992 -0.1968
 4354TIP3    H134477   5.115   1.352  15.121  0.9558  0.2234 -1.1424
 4354TIP3    H234478   5.205   1.472  15.141  0.8116  0.0373  0.7323
 4355TIP3   OH234479   2.975   5.112   0.364  0.2391  0.2840 -0.1952
 4355TIP3    H134480   3.023   5.193   0.348  0.5491  0.1135 -0.1509
 4355TIP3    H234481   2.937   5.089   0.279  2.0617 -0.7354 -0.7649
 4356TIP3   OH234482   6.316   3.180  14.371  0.0663  0.4318 -0.2799
 4356TIP3    H134483   6.293   3.153  14.460 -0.0461  1.2240 -0.0653
 4356TIP3    H234484   6.369   3.259  14.383  0.9295 -0.0522 -0.8762
 4357TIP3   OH234485   6.648   1.826  15.896  0.3595  0.0104  0.0993
 4357TIP3    H134486   6.670   1.907  15.850 -0.1752  0.1866  0.1496
 4357TIP3    H234487   6.678   1.840  15.985  0.5100  0.0509  0.0408
 4358TIP3   OH234488   0.145   6.210  11.588  0.2007  0.9465  0.0773
 4358TIP3    H134489   0.106   6.248  11.510 -0.2752  0.2940 -0.0142
 4358TIP3    H234490   0.226   6.169  11.557 -1.1511 -1.3694 -0.5448
 4359TIP3   OH234491   3.547   5.021  16.531 -0.1031 -0.1525 -0.4577
 4359TIP3    H134492   3.636   5.027  16.565 -0.3813 -0.3053  0.2882
 4359TIP3    H234493   3.559   5.010  16.436  0.6468  0.6548 -0.4583
 4360TIP3   OH234494   4.582   4.074  13.534 -0.1973  0.4937  0.1795
 4360TIP3    H134495   4.638   4.124  13.474  0.6525 -0.6648 -0.0099
 4360TIP3    H234496   4.622   3.987  13.538 -1.5298 -0.1192  0.6720
 4361TIP3   OH234497   4.440   3.213  16.860 -0.1202 -0.2163 -0.7003
 4361TIP3    H134498   4.497   3.174  16.795 -1.2402 -2.2148 -0.4999
 4361TIP3    H234499   4.452   3.160  16.939 -0.2783  0.9508  0.1366
 4362TIP3   OH234500   5.852   0.668   0.647  0.3053 -0.1681 -1.4554
 4362TIP3    H134501   5.930   0.723   0.644  1.4475 -1.7098 -0.9217
 4362TIP3    H234502   5.795   0.709   0.712  2.7385 -1.6384  1.7412
 4363TIP3   OH234503   2.580   1.906   3.970 -0.0938 -0.4181 -0.1140
 4363TIP3    H134504   2.646   1.929   4.035  0.6810 -2.1022 -0.2833
 4363TIP3    H234505   2.534   1.988   3.952 -0.4735  0.0275  2.7064
 4364TIP3   OH234506   3.083   0.244   4.629 -0.0835  0.2201 -0.0637
 4364TIP3    H134507   3.145   0.264   4.699 -0.6071  1.2316  0.1195
 4364TIP3    H234508   3.068   0.329   4.586 -1.0271 -0.0916 -0.3588
 4365TIP3   OH234509   3.484   6.355  14.388  0.2937 -0.2999 -0.4404
 4365TIP3    H134510   3.532   6.273  14.404 -1.4739 -1.6692 -1.9564
 4365TIP3    H234511   3.407   6.349  14.445  1.0438  1.1610  0.7797
 4366TIP3   OH234512   4.210   5.916  11.886  0.1971 -0.3486 -0.1589
 4366TIP3    H134513   4.294   5.950  11.856  1.7475 -2.7249  1.3211
 4366TIP3    H234514   4.193   5.841  11.829  0.5164 -1.5860  1.3171
 4367TIP3   OH234515   5.292   0.059   4.115 -0.0769 -0.6132  0.1437
 4367TIP3    H134516   5.333   0.083   4.198  1.7112 -2.4237 -0.1711
 4367TIP3    H234517   5.364   0.059   4.052 -1.5104  1.2751 -1.5436
 4368TIP3   OH234518   3.507   0.716  11.183  0.9131  0.0371 -0.2820
 4368TIP3    H134519   3.439   0.768  11.141 -0.7647 -2.3405 -0.6643
 4368TIP3    H234520   3.515   0.638  11.128  1.3653 -1.3765  1.7177
 4369TIP3   OH234521   6.405   3.965   6.477 -0.1531 -0.4058  0.0689
 4369TIP3    H134522   6.481   3.918   6.443  0.0703  0.3624 -0.5104
 4369TIP3    H234523   6.433   3.998   6.562  0.2540  0.1150 -0.2679
 4370TIP3   OH234524   6.495   5.837   3.144  0.7556 -0.0905 -0.9117
 4370TIP3    H134525   6.434   5.859   3.213 -0.2669 -0.5978 -1.6464
 4370TIP3    H234526   6.580   5.828   3.189  0.4482  1.3498 -0.0191
 4371TIP3   OH234527   4.378   0.545  16.894 -0.0195 -0.0244 -0.2691
 4371TIP3    H134528   4.315   0.563  16.964 -0.1678 -0.9667 -0.1471
 4371TIP3    H234529   4.451   0.604  16.911 -1.3273  1.8412 -1.0306
 4372TIP3   OH234530   0.815   4.627   4.910 -0.0112 -0.1196  0.5628
 4372TIP3    H134531   0.791   4.717   4.931 -1.6472 -0.5377  0.5945
 4372TIP3    H234532   0.820   4.624   4.815  0.0567  0.0058  0.5626
 4373TIP3   OH234533   3.761   2.010  14.040 -0.1030  0.0451 -0.2822
 4373TIP3    H134534   3.779   2.033  14.131  1.5087  0.8212 -0.7929
 4373TIP3    H234535   3.760   1.914  14.040  1.8623  0.0055  0.1910
 4374TIP3   OH234536   1.747   5.478  13.397  0.4058 -0.6392 -0.3091
 4374TIP3    H134537   1.801   5.424  13.338 -1.3441 -2.5942 -0.1536
 4374TIP3    H234538   1.748   5.431  13.480 -0.1173  0.2260  0.1869
 4375TIP3   OH234539   2.251   4.681  12.173 -0.3543  0.3580 -0.1246
 4375TIP3    H134540   2.224   4.755  12.228  1.6544  1.8780 -1.1095
 4375TIP3    H234541   2.277   4.614  12.236  1.0682  1.7543  0.8395
 4376TIP3   OH234542   5.678   2.387  15.730 -0.1239  0.9320 -0.3497
 4376TIP3    H134543   5.583   2.397  15.723 -0.3030 -0.3612  0.0699
 4376TIP3    H234544   5.693   2.355  15.819  0.5476 -0.3912 -0.9109
 4377TIP3   OH234545   6.673   2.716   6.138 -0.0565  0.1461 -0.3356
 4377TIP3    H134546   6.620   2.653   6.187 -0.8787 -0.5155 -2.0601
 4377TIP3    H234547   6.665   2.797   6.188 -1.0524 -0.4618  0.5251
 4378TIP3   OH234548   3.317   5.599   1.538 -0.1251  0.3020  0.5548
 4378TIP3    H134549   3.320   5.615   1.632  0.7565  0.4287  0.5077
 4378TIP3    H234550   3.408   5.603   1.510 -0.5024  1.5825 -0.5288
 4379TIP3   OH234551   0.872   4.193   6.517 -0.2974  0.0320 -0.3407
 4379TIP3    H134552   0.783   4.196   6.553  0.0891 -0.3340  0.6524
 4379TIP3    H234553   0.927   4.169   6.591  0.9531  2.7342 -0.3360
 4380TIP3   OH234554   6.285   2.229   6.046 -0.0876 -0.2774  0.5847
 4380TIP3    H134555   6.359   2.199   5.992  0.4066 -0.2530  1.2444
 4380TIP3    H234556   6.249   2.303   5.997  0.2123 -0.4050  0.1669
 4381TIP3   OH234557   2.505   4.564  11.264 -0.3942 -0.7051 -0.2430
 4381TIP3    H134558   2.525   4.498  11.330  1.0859  0.7136  0.7805
 4381TIP3    H234559   2.568   4.634  11.280 -0.5109  0.0206 -2.6845
 4382TIP3   OH234560   0.639   0.873   5.217 -0.0733 -0.0622 -0.0795
 4382TIP3    H134561   0.579   0.882   5.291  1.0355  0.1076  0.8200
 4382TIP3    H234562   0.640   0.959   5.175  2.1663  0.9896  1.9839
 4383TIP3   OH234563   6.167   3.414   0.616  0.0014  0.0388 -0.0042
 4383TIP3    H134564   6.182   3.495   0.567 -2.0897 -0.7933 -2.0845
 4383TIP3    H234565   6.106   3.439   0.685  0.8083  0.6209  0.5056
 4384TIP3   OH234566   3.435   0.156  16.644  0.1104 -0.0966  0.3765
 4384TIP3    H134567   3.520   0.199  16.651 -0.0649  0.4749 -0.8631
 4384TIP3    H234568   3.372   0.228  16.641 -0.2165 -0.4299 -1.2906
 4385TIP3   OH234569   0.598   3.601  14.837 -0.1705 -0.6692 -0.1970
 4385TIP3    H134570   0.550   3.671  14.793  1.4105 -0.3723 -1.5061
 4385TIP3    H234571   0.647   3.558  14.767  0.0285 -2.1430  0.8265
 4386TIP3   OH234572   0.936   4.387   1.558  0.2023 -0.1240 -0.6690
 4386TIP3    H134573   0.959   4.295   1.568  1.8928  0.1818 -1.6620
 4386TIP3    H234574   1.015   4.428   1.525 -1.2476  1.2791 -2.4603
 4387TIP3   OH234575   3.353   4.595  11.354  0.4275  0.1236  0.3448
 4387TIP3    H134576   3.351   4.499  11.356  1.7538  0.0949  1.4217
 4387TIP3    H234577   3.342   4.617  11.262  0.7489 -1.0890  0.0019
 4388TIP3   OH234578   3.247   6.500  12.305  0.2770  0.2298 -0.4834
 4388TIP3    H134579   3.249   6.590  12.270 -1.9067  0.5822  0.2236
 4388TIP3    H234580   3.302   6.504  12.383  0.1727  0.9667 -0.4378
 4389TIP3   OH234581   4.538   5.765   0.742  0.3663 -0.4115  0.1603
 4389TIP3    H134582   4.610   5.828   0.736  0.3524 -0.4469 -0.4620
 4389TIP3    H234583   4.515   5.763   0.834  0.5562  0.2877  0.2261
 4390TIP3   OH234584   2.761   1.359   6.289  0.1799 -0.5063 -0.1237
 4390TIP3    H134585   2.787   1.268   6.304  1.6249  0.0562  0.9444
 4390TIP3    H234586   2.766   1.371   6.194  0.5797 -1.3670 -0.2133
 4391TIP3   OH234587   4.759   3.018   3.941  0.0161 -0.4406  0.1321
 4391TIP3    H134588   4.665   3.000   3.948 -0.2539  1.2544  1.1841
 4391TIP3    H234589   4.766   3.087   3.875  0.4627 -0.1662  0.4589
 4392TIP3   OH234590   1.324   4.334   1.294  0.6128 -0.2431 -0.2108
 4392TIP3    H134591   1.323   4.277   1.217 -0.2176 -0.5339  0.0117
 4392TIP3    H234592   1.327   4.275   1.368  2.3100  0.0533 -0.0231
 4393TIP3   OH234593   4.737   3.617   2.029  0.2340  0.0448 -0.4803
 4393TIP3    H134594   4.762   3.695   2.079 -1.0005  1.2010 -1.6359
 4393TIP3    H234595   4.740   3.645   1.938  0.2959 -1.4178 -0.9279
 4394TIP3   OH234596   5.425   0.891  15.579 -0.7656 -0.6510  0.5505
 4394TIP3    H134597   5.342   0.873  15.534 -0.0979  2.6268 -2.1850
 4394TIP3    H234598   5.426   0.986  15.589  4.0803 -0.2398 -2.4070
 4395TIP3   OH234599   3.825   2.794  11.213 -0.4317  0.3554  0.0561
 4395TIP3    H134600   3.753   2.837  11.167 -0.9619 -0.3117  0.2641
 4395TIP3    H234601   3.788   2.712  11.246  0.8010 -0.6722 -1.0448
 4396TIP3   OH234602   2.747   5.638   1.286  0.1924  0.2616 -0.1954
 4396TIP3    H134603   2.688   5.566   1.264  1.0344 -0.5038  0.0381
 4396TIP3    H234604   2.765   5.627   1.379 -0.2888  1.2399  0.0251
 4397TIP3   OH234605   2.757   2.059   1.853 -0.2807  0.3264 -0.4052
 4397TIP3    H134606   2.700   2.114   1.906  2.1596  1.4863  1.1190
 4397TIP3    H234607   2.698   1.998   1.810 -2.3803 -0.5756  3.5311
 4398TIP3   OH234608   3.458   4.080  15.547 -0.1554  0.0393  0.1320
 4398TIP3    H134609   3.464   4.070  15.642 -1.0768 -1.9492  0.0002
 4398TIP3    H234610   3.549   4.087  15.518  0.1112  1.1369  1.2034
 4399TIP3   OH234611   1.526   4.320  15.204 -0.0383 -0.6475  0.4725
 4399TIP3    H134612   1.546   4.237  15.159 -1.3115 -0.9150  0.3648
 4399TIP3    H234613   1.550   4.305  15.295 -0.8370 -1.3603  0.5726
 4400TIP3   OH234614   1.319   6.467  15.159 -0.5776  0.2699  0.0913
 4400TIP3    H134615   1.414   6.478  15.155 -0.5186 -0.1347  0.2926
 4400TIP3    H234616   1.288   6.487  15.071 -0.0217 -2.1913 -0.7024
 4401TIP3   OH234617   6.298   1.723  15.495 -0.3633 -0.3395 -0.0927
 4401TIP3    H134618   6.264   1.799  15.448 -0.8014  0.5594  1.6397
 4401TIP3    H234619   6.392   1.723  15.476 -0.0185  1.7808  1.4291
 4402TIP3   OH234620   2.883   0.702  11.432  0.6394  0.1296 -0.3997
 4402TIP3    H134621   2.910   0.701  11.340 -1.6249  2.0444 -1.1453
 4402TIP3    H234622   2.934   0.773  11.472 -0.0913  0.8691 -0.7654
 4403TIP3   OH234623   2.695   0.943   3.217 -0.7972  0.1811 -0.1123
 4403TIP3    H134624   2.728   1.021   3.261 -2.3013  0.8667 -0.1528
 4403TIP3    H234625   2.773   0.892   3.195  0.2277  1.8809 -0.4555
 4404TIP3   OH234626   0.956   0.472   0.997  0.4102 -0.4324  0.3275
 4404TIP3    H134627   0.979   0.550   0.946  3.6930 -1.8126 -0.4020
 4404TIP3    H234628   0.996   0.488   1.083  0.5041 -1.0122  0.3900
 4405TIP3   OH234629   2.245   3.263  15.949  0.5101 -1.1844 -0.2423
 4405TIP3    H134630   2.326   3.313  15.944  0.8797 -1.4343  2.3725
 4405TIP3    H234631   2.178   3.327  15.972  0.6849 -1.5695  1.4325
 4406TIP3   OH234632   3.090   1.641   5.703  0.8583  0.6757 -0.2535
 4406TIP3    H134633   3.087   1.704   5.776  0.6365 -0.1987  0.5034
 4406TIP3    H234634   3.141   1.685   5.635  0.2250  1.9037  0.0509
 4407TIP3   OH234635   5.635   5.067   5.223  0.3922 -0.1897  0.1126
 4407TIP3    H134636   5.630   5.107   5.136  0.9538 -0.2803  0.0407
 4407TIP3    H234637   5.715   5.016   5.222  1.1041  0.8708  1.1359
 4408TIP3   OH234638   0.118   3.933  13.647 -0.6879 -0.7637  0.1697
 4408TIP3    H134639   0.210   3.952  13.634 -0.5623 -2.5174 -1.6994
 4408TIP3    H234640   0.083   4.011  13.692  1.2016  0.8161 -1.0421
 4409TIP3   OH234641   0.346   5.765   0.361  0.4165 -0.1798  0.1668
 4409TIP3    H134642   0.342   5.733   0.451 -0.4509  0.2019  0.2663
 4409TIP3    H234643   0.392   5.849   0.368 -0.6565  0.3909  0.4062
 4410TIP3   OH234644   1.320   5.104   1.394  0.0794  0.0490 -0.3606
 4410TIP3    H134645   1.381   5.056   1.450  0.4438 -0.1134 -0.8942
 4410TIP3    H234646   1.267   5.036   1.353  0.5875  0.0912 -1.1056
 4411TIP3   OH234647   2.852   1.837  14.072 -0.2849 -0.0975  0.3710
 4411TIP3    H134648   2.795   1.893  14.019 -1.2468  0.4813  2.0036
 4411TIP3    H234649   2.815   1.841  14.160  1.9379 -0.1960  1.3389
 4412TIP3   OH234650   5.566   2.543   3.512 -0.2647  0.1843  0.3105
 4412TIP3    H134651   5.656   2.568   3.533  0.1221 -1.4486  0.6906
 4412TIP3    H234652   5.517   2.561   3.592 -0.0773  0.0914  0.4458
 4413TIP3   OH234653   2.896   4.302   1.958 -0.4368  0.1069  0.6835
 4413TIP3    H134654   2.802   4.291   1.942 -0.1055 -2.4773  0.2244
 4413TIP3    H234655   2.935   4.300   1.870  0.1815 -0.3732  0.9683
 4414TIP3   OH234656   4.406   2.207  12.703 -0.2784  0.0822 -0.7114
 4414TIP3    H134657   4.423   2.116  12.730 -0.0731  0.4099  0.2769
 4414TIP3    H234658   4.462   2.260  12.759 -0.6199  0.8486 -1.0826
 4415TIP3   OH234659   3.377   3.054   4.684  0.1541 -0.5151  0.3845
 4415TIP3    H134660   3.332   3.026   4.604  0.7098 -0.9174  0.2146
 4415TIP3    H234661   3.377   3.150   4.679 -1.7591 -0.4624  0.9716
 4416TIP3   OH234662   0.609   2.821  16.958 -0.2701 -0.1443 -0.2113
 4416TIP3    H134663   0.515   2.808  16.972  0.3537 -0.8630  3.7440
 4416TIP3    H234664   0.646   2.732  16.958  0.4179  0.1303 -1.8251
 4417TIP3   OH234665   2.042   5.305  15.790 -0.0851 -0.8548 -0.4310
 4417TIP3    H134666   1.969   5.299  15.728  0.0941  1.2137 -0.8836
 4417TIP3    H234667   2.120   5.306  15.734  0.2839 -2.5815  0.0274
 4418TIP3   OH234668   5.863   1.528   0.353 -0.0496  0.4149 -0.4941
 4418TIP3    H134669   5.843   1.562   0.441  0.4081  0.5092 -0.4265
 4418TIP3    H234670   5.947   1.568   0.330  0.0084  0.1053 -0.8274
 4419TIP3   OH234671   0.590   3.893  16.104 -0.0985  0.7572 -0.2353
 4419TIP3    H134672   0.658   3.829  16.082 -0.2957  0.3016  0.4767
 4419TIP3    H234673   0.636   3.962  16.152 -0.2407  0.1525  0.7795
 4420TIP3   OH234674   0.731   4.556  14.693  0.4268  0.3012  0.2528
 4420TIP3    H134675   0.718   4.642  14.653  0.1686 -0.5906 -1.6684
 4420TIP3    H234676   0.824   4.553  14.716  0.5547  0.8877 -0.1971
 4421TIP3   OH234677   4.999   6.177   0.540  0.2392 -0.5017  0.2198
 4421TIP3    H134678   4.992   6.120   0.616 -0.7702 -1.0977 -0.3038
 4421TIP3    H234679   4.954   6.130   0.470  0.3564  0.4420 -0.5137
 4422TIP3   OH234680   0.298   4.555  13.219  0.5174 -0.1865 -0.7961
 4422TIP3    H134681   0.343   4.510  13.148  0.5585  0.1424 -0.9744
 4422TIP3    H234682   0.250   4.626  13.177 -1.1011 -1.2164 -0.7752
 4423TIP3   OH234683   2.839   1.278   5.122  0.0724 -0.0792  0.3491
 4423TIP3    H134684   2.903   1.214   5.091 -0.4025 -0.7691  0.7982
 4423TIP3    H234685   2.883   1.325   5.193 -0.0812 -0.8652  0.9655
 4424TIP3   OH234686   2.813   1.219  15.594 -0.0208  0.5334 -0.1374
 4424TIP3    H134687   2.821   1.251  15.504 -0.4791  0.2608 -0.2799
 4424TIP3    H234688   2.853   1.132  15.592  0.4251  0.7325  0.0421
 4425TIP3   OH234689   4.213   1.470   4.099 -0.2012 -0.0071 -0.3184
 4425TIP3    H134690   4.218   1.481   4.004  1.7621 -0.2582 -0.2537
 4425TIP3    H234691   4.188   1.379   4.112  0.3156 -0.1877 -0.5853
 4426TIP3   OH234692   1.664   0.502  11.835  0.3111  0.0877  0.0029
 4426TIP3    H134693   1.695   0.534  11.750 -0.7319  0.2737 -0.3127
 4426TIP3    H234694   1.690   0.410  11.836  2.5758  0.7030  0.5624
 4427TIP3   OH234695   0.747   1.760  14.055  0.3565  0.4252 -0.8262
 4427TIP3    H134696   0.691   1.714  14.118  0.8839  0.4235 -0.3561
 4427TIP3    H234697   0.690   1.829  14.020 -0.4266 -0.5705 -1.5286
 4428TIP3   OH234698   3.894   0.600  15.833  0.1933 -0.1002  0.1507
 4428TIP3    H134699   3.977   0.592  15.879  0.1738  0.6832  0.3154
 4428TIP3    H234700   3.908   0.670  15.769 -0.8011  1.0409  1.1744
 4429TIP3   OH234701   1.672   0.719  12.005  0.5792 -0.5776  0.1418
 4429TIP3    H134702   1.701   0.644  11.955  0.8551  0.2399 -0.9442
 4429TIP3    H234703   1.749   0.775  12.012 -0.2722  0.8195 -1.3097
 4430TIP3   OH234704   0.565   4.317   3.813  0.2753 -0.2052  0.1345
 4430TIP3    H134705   0.605   4.307   3.899  1.0372  0.5783 -0.1204
 4430TIP3    H234706   0.580   4.234   3.768  1.6605  0.0935  0.0262
 4431TIP3   OH234707   0.203   3.412   2.209  0.5557 -0.0896  0.1537
 4431TIP3    H134708   0.227   3.325   2.177  1.7805  0.6175 -0.8770
 4431TIP3    H234709   0.259   3.472   2.160 -0.0947  1.2670  1.0497
 4432TIP3   OH234710   2.508   1.050   4.755 -0.2147 -0.1483  0.3449
 4432TIP3    H134711   2.584   1.018   4.804 -0.7075  1.0714  1.9367
 4432TIP3    H234712   2.461   1.105   4.817 -3.0087 -1.7552 -0.2571
 4433TIP3   OH234713   2.365   0.978   3.983 -0.0466  0.4613 -0.2649
 4433TIP3    H134714   2.346   0.885   3.986  0.8358  0.2120 -1.6817
 4433TIP3    H234715   2.454   0.984   3.948  0.8728  1.7493  2.1636
 4434TIP3   OH234716   0.553   5.767  12.853  0.5576  0.2829 -0.2202
 4434TIP3    H134717   0.468   5.737  12.886  0.5220  0.0627 -0.5087
 4434TIP3    H234718   0.598   5.801  12.930  0.4832 -0.2426  0.0597
 4435TIP3   OH234719   4.951   3.654   3.071 -0.4483 -0.0624 -0.3210
 4435TIP3    H134720   4.992   3.704   3.001 -1.7735 -0.4024 -1.3625
 4435TIP3    H234721   4.917   3.720   3.132  1.4749  0.2212  0.4832
 4436TIP3   OH234722   2.159   5.476  14.930  0.2957  0.4132 -0.0502
 4436TIP3    H134723   2.168   5.444  14.840  0.5005  1.1561 -0.3041
 4436TIP3    H234724   2.105   5.555  14.921 -0.1162  0.1979  0.5418
 4437TIP3   OH234725   4.099   5.705  17.063  0.0983  0.1789  1.2016
 4437TIP3    H134726   4.048   5.710  17.144 -0.5440 -0.0031  0.8100
 4437TIP3    H234727   4.073   5.782  17.014 -0.3420 -0.2920  0.6897
 4438TIP3   OH234728   6.043   2.507   2.177 -0.2250 -0.4722  0.8895
 4438TIP3    H134729   6.106   2.574   2.150 -0.3339 -0.9585 -0.5771
 4438TIP3    H234730   6.094   2.446   2.230  0.4165 -0.5841  0.1441
 4439TIP3   OH234731   3.137   6.566   2.754 -0.1706 -0.5511 -0.1622
 4439TIP3    H134732   3.224   6.607   2.751 -0.6145  0.3347 -2.1497
 4439TIP3    H234733   3.134   6.513   2.674 -0.4743 -2.6781  1.2366
 4440TIP3   OH234734   4.726   6.496  13.793 -0.3579  0.5988  0.1397
 4440TIP3    H134735   4.734   6.408  13.829  0.5516  1.4018  1.9910
 4440TIP3    H234736   4.664   6.540  13.851  1.5912  2.0955  1.1857
 4441TIP3   OH234737   2.879   6.030   5.689  0.0769  0.4186 -0.4853
 4441TIP3    H134738   2.847   6.116   5.661 -0.7374  0.2244 -0.1632
 4441TIP3    H234739   2.802   5.986   5.723  0.6318 -0.1865 -0.0037
 4442TIP3   OH234740   6.571   2.340   3.042 -0.1153  0.4876  0.0171
 4442TIP3    H134741   6.476   2.329   3.049 -0.1683  0.1530 -1.1267
 4442TIP3    H234742   6.582   2.420   2.991  0.2308  1.1628  1.1419
 4443TIP3   OH234743   0.542   2.770  13.395  0.1926  0.1853  0.1093
 4443TIP3    H134744   0.582   2.831  13.457  0.2111  0.7340 -0.4309
 4443TIP3    H234745   0.594   2.780  13.315 -0.2054 -0.0642 -0.1837
 4444TIP3   OH234746   2.978   3.591   4.034 -0.0032  0.4855  0.4744
 4444TIP3    H134747   2.913   3.572   4.102 -0.1316  2.7767  1.0566
 4444TIP3    H234748   3.052   3.533   4.054 -1.0532 -0.6606  1.0497
 4445TIP3   OH234749   0.571   0.490  11.613  0.0475 -0.0886 -0.4616
 4445TIP3    H134750   0.602   0.446  11.533  0.2583 -0.4793 -0.1694
 4445TIP3    H234751   0.635   0.559  11.629 -0.5052  0.5883 -1.1506
 4446TIP3   OH234752   0.855   2.025  13.514 -0.3976  0.1902 -0.3431
 4446TIP3    H134753   0.893   2.102  13.472 -0.0467 -0.3230 -0.9693
 4446TIP3    H234754   0.878   1.952  13.457 -2.6207 -0.0923 -0.9346
 4447TIP3   OH234755   2.922   4.132  14.353  0.5797 -0.0061  0.1942
 4447TIP3    H134756   2.840   4.167  14.386  0.1960 -0.0284 -0.7103
 4447TIP3    H234757   2.895   4.059  14.297  1.2687 -0.5969  0.6175
 4448TIP3   OH234758   1.767   6.003   1.568  0.5055  0.4927  0.0648
 4448TIP3    H134759   1.809   5.984   1.484  0.7239  1.4026 -0.0343
 4448TIP3    H234760   1.717   6.083   1.553 -0.5232 -0.0722  0.4466
 4449TIP3   OH234761   3.227   4.082   3.616 -0.0484 -0.2062  0.4042
 4449TIP3    H134762   3.143   4.067   3.575 -0.4384  0.1537  1.0616
 4449TIP3    H234763   3.207   4.094   3.709  0.6275  0.7416  0.4420
 4450TIP3   OH234764   2.952   6.750  13.784 -0.2152  0.2264 -0.0440
 4450TIP3    H134765   2.925   6.695  13.858 -0.3408  0.3183 -0.0226
 4450TIP3    H234766   2.895   6.724  13.712  0.1340 -0.1062 -0.2076
 4451TIP3   OH234767   3.326   0.820  13.204  0.8876 -0.5721 -0.2887
 4451TIP3    H134768   3.408   0.800  13.158  0.3013 -0.3976 -1.4188
 4451TIP3    H234769   3.260   0.825  13.135 -0.3168 -1.9069  0.7537
 4452TIP3   OH234770   3.941   6.167   5.021  0.4178 -0.0793  0.4353
 4452TIP3    H134771   3.915   6.140   5.109 -1.9153  2.0075  0.4298
 4452TIP3    H234772   3.902   6.101   4.964  1.5156 -1.1613  0.9161
 4453TIP3   OH234773   4.090   1.988   4.996  0.3203  0.0802  0.0438
 4453TIP3    H134774   4.103   2.006   4.903 -0.4612 -2.6690 -0.6616
 4453TIP3    H234775   3.998   2.009   5.011  0.2635 -0.1534  0.0212
 4454TIP3   OH234776   5.254   5.889   5.157  0.0115 -0.0163 -0.4212
 4454TIP3    H134777   5.347   5.881   5.138 -0.1032  0.2194 -1.0781
 4454TIP3    H234778   5.237   5.821   5.223  0.8300  0.5368  0.3674
 4455TIP3   OH234779   6.209   0.371  11.906  0.0922 -0.8471 -0.6768
 4455TIP3    H134780   6.249   0.294  11.947  1.0671 -0.6516 -1.2618
 4455TIP3    H234781   6.116   0.347  11.899 -0.0370 -1.0303  1.2830
 4456TIP3   OH234782   0.774   3.781   5.139  0.4998 -0.1989 -0.0670
 4456TIP3    H134783   0.734   3.707   5.186  1.3562 -1.6343 -1.5206
 4456TIP3    H234784   0.787   3.848   5.206 -5.2149  0.7887  0.3356
 4457TIP3   OH234785   6.566   1.654   1.243 -0.1047 -0.1828  0.2105
 4457TIP3    H134786   6.563   1.675   1.150 -0.0934 -2.3692 -0.3298
 4457TIP3    H234787   6.475   1.636   1.266 -0.3410  1.9677  1.0517
 4458TIP3   OH234788   3.499   2.802  12.453  0.5898  0.0596 -0.2665
 4458TIP3    H134789   3.488   2.768  12.364 -2.5003  2.1214 -0.7474
 4458TIP3    H234790   3.482   2.727  12.510 -1.6236 -0.2927 -1.3678
 4459TIP3   OH234791   6.120   3.049  13.252  0.2275 -0.0708  0.0220
 4459TIP3    H134792   6.063   3.076  13.180 -0.9968  2.0368  1.7490
 4459TIP3    H234793   6.085   2.964  13.279  0.5346 -0.7639 -1.6440
 4460TIP3   OH234794   2.042   1.568   1.980 -0.0629  0.1284 -0.0122
 4460TIP3    H134795   1.958   1.599   2.015 -0.1014  0.4617 -0.4007
 4460TIP3    H234796   2.107   1.609   2.036 -0.2345 -2.9733  2.5996
 4461TIP3   OH234797   2.049   2.715   1.478  0.2891 -0.2497  0.4248
 4461TIP3    H134798   1.964   2.676   1.496  1.3274 -2.4713  0.7190
 4461TIP3    H234799   2.051   2.795   1.532 -1.3082 -0.5639  0.9720
 4462TIP3   OH234800   0.544   5.565   3.266 -0.9400  0.0190  0.4613
 4462TIP3    H134801   0.625   5.616   3.273 -0.3001 -0.9327  0.1086
 4462TIP3    H234802   0.559   5.508   3.191 -2.5555  0.9246 -0.5828
 4463TIP3   OH234803   0.047   3.271  16.923 -0.4396  0.2487 -0.0890
 4463TIP3    H134804   0.053   3.365  16.937 -0.3449  0.2771 -0.3181
 4463TIP3    H234805   0.033   3.262  16.829  1.1376 -0.0389 -0.3050
 4464TIP3   OH234806   3.976   1.000  14.916  0.0357 -0.1842 -0.0402
 4464TIP3    H134807   4.017   0.918  14.888 -1.8671 -1.4256  0.6558
 4464TIP3    H234808   4.041   1.042  14.972  0.1921 -2.3580  1.4681
 4465TIP3   OH234809   1.695   5.478   4.763 -0.2427 -0.6930 -0.2814
 4465TIP3    H134810   1.764   5.519   4.815 -0.4945 -0.9625  0.2654
 4465TIP3    H234811   1.733   5.469   4.675  0.4700 -0.9814  0.0564
 4466TIP3   OH234812   1.195   5.054   4.007 -0.3012  0.2876 -0.4140
 4466TIP3    H134813   1.163   5.132   3.962  0.3377  1.3812  1.0133
 4466TIP3    H234814   1.171   5.067   4.098  2.3553  0.1966  0.3477
 4467TIP3   OH234815   4.810   1.521   3.768 -0.1403 -0.1873  0.0110
 4467TIP3    H134816   4.834   1.435   3.802  2.3971  0.8650  0.9460
 4467TIP3    H234817   4.893   1.568   3.760 -1.0116  0.8581 -4.2352
 4468TIP3   OH234818   0.696   1.581   2.991 -0.1945  0.5466 -0.6045
 4468TIP3    H134819   0.628   1.551   3.052 -1.1602 -1.8282 -2.7605
 4468TIP3    H234820   0.648   1.608   2.913  1.1731  1.4464 -1.1476
 4469TIP3   OH234821   3.907   0.789   0.544 -0.1072  0.1302 -0.4322
 4469TIP3    H134822   3.867   0.736   0.613  1.0187 -1.7095 -1.1421
 4469TIP3    H234823   4.001   0.781   0.560  0.1341  0.1953 -1.8077
 4470TIP3   OH234824   5.922   5.567   3.300 -0.1368  0.8284  0.0662
 4470TIP3    H134825   5.914   5.506   3.373 -3.1186 -0.0336 -0.9181
 4470TIP3    H234826   5.847   5.626   3.308 -0.0693  1.2309 -1.8241
 4471TIP3   OH234827   2.404   0.786   1.748 -0.0672  0.9976 -0.8957
 4471TIP3    H134828   2.343   0.801   1.675 -2.8725 -0.8000  0.9667
 4471TIP3    H234829   2.434   0.696   1.736  1.2625  1.4455 -1.0555
 4472TIP3   OH234830   5.691   0.335   5.511  0.0211  0.0476  0.4540
 4472TIP3    H134831   5.776   0.369   5.539  0.6384  0.2105 -1.5328
 4472TIP3    H234832   5.691   0.346   5.416 -2.1409 -0.1529  0.4053
 4473TIP3   OH234833   1.669   2.002   3.193 -0.0208  0.2993 -0.5976
 4473TIP3    H134834   1.616   2.082   3.189  1.2715  1.3320  1.7566
 4473TIP3    H234835   1.724   2.005   3.115  0.3865  1.9917 -0.2683
 4474TIP3   OH234836   2.242   3.650  13.638  0.1130  0.3637 -0.2273
 4474TIP3    H134837   2.280   3.568  13.671 -0.6387 -0.3865 -1.2050
 4474TIP3    H234838   2.204   3.691  13.716  0.9706  0.0605  0.3665
 4475TIP3   OH234839   2.264   5.312  14.135  0.2727  0.3995 -0.1734
 4475TIP3    H134840   2.233   5.242  14.191 -0.2035  2.0318  1.6492
 4475TIP3    H234841   2.320   5.268  14.070  1.1597 -1.4646  1.7962
 4476TIP3   OH234842   2.686   4.468   3.870 -0.5378 -0.1678  0.4314
 4476TIP3    H134843   2.684   4.373   3.880  0.8248 -0.3325 -0.6500
 4476TIP3    H234844   2.779   4.489   3.865 -0.8710  0.9905 -1.3052
 4477TIP3   OH234845   5.336   5.726  15.898  0.6369  0.1073  0.1253
 4477TIP3    H134846   5.357   5.635  15.921 -0.1216 -0.1652 -0.2076
 4477TIP3    H234847   5.243   5.735  15.921  0.2134  0.2234 -1.5469
 4478TIP3   OH234848   1.609   5.343   4.285 -0.8583  0.3078  0.2875
 4478TIP3    H134849   1.674   5.279   4.255 -0.2556  0.9389  0.2143
 4478TIP3    H234850   1.642   5.427   4.251 -0.7642  0.8836  1.7576
 4479TIP3   OH234851   0.384   2.062  14.462 -0.0448 -0.2376 -0.0753
 4479TIP3    H134852   0.380   1.981  14.512  0.8420 -0.1135  0.1918
 4479TIP3    H234853   0.396   2.131  14.528 -2.1605  0.2684 -0.1667
 4480TIP3   OH234854   0.170   1.220   4.199  0.1455 -0.1337  0.2141
 4480TIP3    H134855   0.171   1.315   4.185  0.4265 -0.4957 -2.3854
 4480TIP3    H234856   0.124   1.185   4.123  1.8759 -2.2615  0.1054
 4481TIP3   OH234857   5.146   2.703  15.447  0.1984  0.1609  0.2646
 4481TIP3    H134858   5.173   2.616  15.418 -0.1917  0.4731 -1.0493
 4481TIP3    H234859   5.187   2.763  15.385 -0.3556  0.8688  0.5752
 4482TIP3   OH234860   1.421   1.682   3.122 -0.8526 -0.5531 -0.5314
 4482TIP3    H134861   1.390   1.738   3.193 -2.8033 -0.7815 -1.1688
 4482TIP3    H234862   1.419   1.594   3.158  0.8703 -0.3944  0.0142
 4483TIP3   OH234863   2.592   4.130  12.236  0.0414  0.0391 -0.2741
 4483TIP3    H134864   2.499   4.113  12.226  0.1513 -0.4190 -0.5121
 4483TIP3    H234865   2.601   4.170  12.322 -0.1820 -1.2596  0.3504
 4484TIP3   OH234866   0.763   5.272  12.620  0.5089 -0.2819  0.2694
 4484TIP3    H134867   0.719   5.343  12.666 -2.2302 -2.1418  0.6140
 4484TIP3    H234868   0.710   5.257  12.541  2.5517 -0.1908 -1.1614
 4485TIP3   OH234869   4.751   5.392  12.550  0.2129  0.5371 -0.6194
 4485TIP3    H134870   4.775   5.484  12.566 -0.8587  0.8840 -0.9441
 4485TIP3    H234871   4.698   5.395  12.470  0.5597 -0.4228 -0.8880
 4486TIP3   OH234872   2.794   2.488  16.047  0.1638 -0.3998 -0.7541
 4486TIP3    H134873   2.858   2.508  15.979  0.0054 -1.3408 -1.1890
 4486TIP3    H234874   2.754   2.406  16.018 -0.4282 -0.4108  0.0969
 4487TIP3   OH234875   0.483   0.071  12.993 -0.4330  0.9778 -0.1012
 4487TIP3    H134876   0.393   0.050  13.018 -0.0432 -0.0709  0.4814
 4487TIP3    H234877   0.526   0.094  13.075 -0.0731  1.1049 -0.3233
 4488TIP3   OH234878   5.921   4.404  13.035  0.1684  0.1784 -0.0216
 4488TIP3    H134879   5.981   4.333  13.015  0.3812  0.6722 -1.1926
 4488TIP3    H234880   5.933   4.420  13.129  0.2285 -1.2093  0.2240
 4489TIP3   OH234881   6.011   2.441   0.353 -0.0284  0.0497  0.8168
 4489TIP3    H134882   6.040   2.421   0.264 -1.1073 -1.9805  0.8894
 4489TIP3    H234883   5.954   2.518   0.343 -1.4739 -1.1634 -0.4995
 4490TIP3   OH234884   4.866   0.656  11.714 -0.4808  0.0331 -0.1413
 4490TIP3    H134885   4.947   0.704  11.696 -0.9730  0.0009 -2.6579
 4490TIP3    H234886   4.835   0.690  11.798  1.9321  0.3035  0.6760
 4491TIP3   OH234887   4.767   3.514  16.011  0.3841 -0.2208 -0.4439
 4491TIP3    H134888   4.849   3.563  16.020  0.5139 -0.7642  1.7179
 4491TIP3    H234889   4.763   3.460  16.090 -1.1863 -1.5395 -1.3925
 4492TIP3   OH234890   0.591   4.615   3.986 -0.4184 -0.1446 -0.0145
 4492TIP3    H134891   0.505   4.574   3.996  0.2293 -1.4902  0.0390
 4492TIP3    H234892   0.624   4.624   4.076  0.6333 -2.0710 -0.1915
 4493TIP3   OH234893   1.193   3.016   3.766 -0.1909 -0.1318 -0.1107
 4493TIP3    H134894   1.187   3.074   3.842 -2.2096 -0.2872 -0.1124
 4493TIP3    H234895   1.104   2.981   3.755  0.8713 -2.9411 -0.3388
 4494TIP3   OH234896   1.575   3.654  11.958 -0.0421  0.1146  0.0592
 4494TIP3    H134897   1.606   3.582  12.014  1.0335  0.1864 -0.4266
 4494TIP3    H234898   1.610   3.633  11.871 -0.9732  0.4604 -0.4044
 4495TIP3   OH234899   0.496   3.622  11.897 -0.2673 -0.3787 -0.3618
 4495TIP3    H134900   0.475   3.617  11.990 -0.9828 -2.0520 -0.6094
 4495TIP3    H234901   0.496   3.716  11.878 -2.7461 -0.1214  0.7219
 4496TIP3   OH234902   2.465   4.523   6.288 -0.6238  0.4180 -0.1510
 4496TIP3    H134903   2.403   4.453   6.310 -0.3450 -0.0178 -0.7233
 4496TIP3    H234904   2.547   4.477   6.269  0.2499  1.0879  1.9045
 4497TIP3   OH234905   2.445   4.529   3.982  0.1477 -0.0049  0.6893
 4497TIP3    H134906   2.528   4.515   3.935 -0.0137  2.5448 -0.4447
 4497TIP3    H234907   2.463   4.605   4.038 -2.1070  2.1713 -1.4082
 4498TIP3   OH234908   4.484   2.302  14.002 -0.7065  0.4056  0.3896
 4498TIP3    H134909   4.551   2.342  13.947  0.6801 -0.0202  1.7497
 4498TIP3    H234910   4.459   2.372  14.063 -0.4636  0.1080  0.8243
 4499TIP3   OH234911   5.593   3.125   2.340 -0.1159 -0.8782  0.2477
 4499TIP3    H134912   5.527   3.176   2.386 -0.5791 -0.9698 -0.3092
 4499TIP3    H234913   5.624   3.183   2.270  2.9003  0.4809  2.6006
 4500TIP3   OH234914   1.649   2.822   2.571 -0.8678 -0.0339  0.8331
 4500TIP3    H134915   1.589   2.765   2.618 -2.6156  0.8472 -0.2524
 4500TIP3    H234916   1.614   2.910   2.585 -0.8217  0.3409 -1.1691
 4501TIP3   OH234917   4.393   0.438  12.022  0.6766 -0.6238 -0.3176
 4501TIP3    H134918   4.314   0.397  12.059 -0.2819  2.1770  0.8818
 4501TIP3    H234919   4.459   0.431  12.091  0.5261 -0.2299 -0.1304
 4502TIP3   OH234920   4.775   4.336   3.082  0.1933 -0.4131 -0.1767
 4502TIP3    H134921   4.731   4.251   3.078 -0.6156 -0.0345  0.4838
 4502TIP3    H234922   4.868   4.316   3.071  0.0086 -1.3861  0.0229
 4503TIP3   OH234923   4.659   2.589  11.273 -0.3010 -0.1314  0.6343
 4503TIP3    H134924   4.698   2.609  11.188  0.4708  0.5698  1.1487
 4503TIP3    H234925   4.599   2.663  11.289  0.2730  0.2241  1.1410
 4504TIP3   OH234926   3.215   1.546   6.311  0.2400 -0.3718 -0.5978
 4504TIP3    H134927   3.234   1.480   6.245 -0.4127 -0.9124 -0.2529
 4504TIP3    H234928   3.254   1.626   6.277  1.2904 -1.0009 -0.8742
 4505TIP3   OH234929   2.241   4.106  13.429  0.2143  0.0538  0.0557
 4505TIP3    H134930   2.300   4.040  13.392 -1.3876 -0.9439 -0.7925
 4505TIP3    H234931   2.191   4.139  13.355 -0.4590  0.7163  0.7862
 4506TIP3   OH234932   6.760   3.872  14.118 -0.0749 -0.8663  0.0896
 4506TIP3    H134933   6.809   3.824  14.185 -0.5454 -3.1801 -1.1865
 4506TIP3    H234934   6.827   3.910  14.061  0.2992 -3.2987 -1.1478
 4507TIP3   OH234935   0.808   2.004   4.493 -0.1590 -0.2439 -0.2193
 4507TIP3    H134936   0.812   2.099   4.500  1.2781 -0.3191  0.1094
 4507TIP3    H234937   0.750   1.977   4.564 -1.3669  0.4577 -0.9305
 4508TIP3   OH234938   2.167   0.652  16.133  0.0548 -0.4244  0.1242
 4508TIP3    H134939   2.202   0.723  16.188  2.4313 -0.1975 -1.6133
 4508TIP3    H234940   2.207   0.572  16.169 -0.5594 -0.5879  0.4445
 4509TIP3   OH234941   3.985   1.767   5.185 -1.2666  0.0744  0.6965
 4509TIP3    H134942   3.978   1.828   5.111  0.3831 -0.2785  0.2387
 4509TIP3    H234943   4.039   1.813   5.249  1.0049 -1.3597 -0.1441
 4510TIP3   OH234944   6.630   6.443  12.171  0.0505  0.3581  0.2184
 4510TIP3    H134945   6.636   6.489  12.087  0.4459  0.0790  0.0931
 4510TIP3    H234946   6.589   6.506  12.230 -1.6320  0.0310 -0.5730
 4511TIP3   OH234947   1.039   1.128   5.551 -0.0464 -0.4218 -0.4041
 4511TIP3    H134948   1.061   1.042   5.587  0.4075 -0.0282  0.2705
 4511TIP3    H234949   0.945   1.124   5.535  0.1648 -1.4528 -1.5036
 4512TIP3   OH234950   3.611   3.075  11.351 -0.2092 -0.0172  0.5277
 4512TIP3    H134951   3.621   3.021  11.273 -0.3182  1.0597 -0.2363
 4512TIP3    H234952   3.629   3.015  11.424  4.4984  0.0617 -0.4236
 4513TIP3   OH234953   5.940   0.175   1.260 -0.3167  0.1988 -0.0313
 4513TIP3    H134954   5.982   0.260   1.252 -0.4002  0.1502 -1.0224
 4513TIP3    H234955   5.915   0.152   1.171 -2.5172  0.2636  0.5371
 4514TIP3   OH234956   1.201   0.491   5.003  0.3923 -0.0864  0.0610
 4514TIP3    H134957   1.200   0.548   4.926 -0.4230  0.4211  0.4513
 4514TIP3    H234958   1.203   0.551   5.078 -0.9253 -0.5646  0.4832
 4515TIP3   OH234959   2.232   2.899   2.777 -0.0614 -0.0290 -0.4924
 4515TIP3    H134960   2.229   2.837   2.705 -0.7102  0.4557 -0.8936
 4515TIP3    H234961   2.146   2.892   2.818 -0.4683  1.2555 -1.1031
 4516TIP3   OH234962   2.542   5.605  16.160 -0.8897 -0.4055  0.2249
 4516TIP3    H134963   2.465   5.610  16.103 -2.3779 -2.8903  1.8836
 4516TIP3    H234964   2.508   5.625  16.247  0.3112 -1.6123  0.9888
 4517TIP3   OH234965   5.731   6.428  11.997 -0.0229  0.5263 -0.4579
 4517TIP3    H134966   5.796   6.403  11.931 -0.5359 -0.4519 -0.6069
 4517TIP3    H234967   5.776   6.417  12.080 -0.3681 -1.3094 -0.5062
 4518TIP3   OH234968   2.182   3.212  16.299 -0.6846  0.7819  0.0052
 4518TIP3    H134969   2.203   3.305  16.312  0.4854  0.4766  0.3389
 4518TIP3    H234970   2.255   3.178  16.248 -0.5090 -0.2407  0.9283
 4519TIP3   OH234971   6.081   6.347  13.810  0.3602 -0.1016  0.2195
 4519TIP3    H134972   6.091   6.429  13.761 -0.0295 -0.8799 -1.2214
 4519TIP3    H234973   6.063   6.374  13.900 -3.0458  1.4768 -0.8366
 4520TIP3   OH234974   3.223   2.163  15.622  0.1079 -0.4932  0.1133
 4520TIP3    H134975   3.132   2.158  15.592 -0.3626  3.3148  0.6176
 4520TIP3    H234976   3.217   2.160  15.717  0.2916  1.5731  0.2160
 4521TIP3   OH234977   0.880   3.903  17.046  0.0537  0.3293 -0.3145
 4521TIP3    H134978   0.862   3.946  16.962 -0.7680  0.4160 -0.0966
 4521TIP3    H234979   0.975   3.910  17.056  0.2813 -0.5141 -1.6886
 4522TIP3   OH234980   0.107   2.072   4.837 -0.1141 -0.3317 -0.0987
 4522TIP3    H134981   0.060   2.133   4.780  1.3104  2.0274  1.1370
 4522TIP3    H234982   0.192   2.060   4.795  0.1664 -0.2231  0.4229
 4523TIP3   OH234983   6.654   0.353   4.809  0.3618  0.2345 -0.7248
 4523TIP3    H134984   6.633   0.307   4.729 -0.5435 -0.2975 -0.1883
 4523TIP3    H234985   6.642   0.288   4.878  0.2544  0.9361 -0.0756
 4524TIP3   OH234986   6.387   2.750   6.038  0.4516 -0.1343 -0.0360
 4524TIP3    H134987   6.390   2.766   6.132  1.9260  2.4144 -0.4731
 4524TIP3    H234988   6.472   2.712   6.017 -0.1741 -1.4502 -0.2208
 4525TIP3   OH234989   4.571   1.148  15.660  0.0912  0.4001  0.0666
 4525TIP3    H134990   4.493   1.190  15.622  1.9629  3.2085 -0.8211
 4525TIP3    H234991   4.545   1.057  15.674 -3.3942  1.3161 -0.0706
 4526TIP3   OH234992   5.148   5.300   2.002  0.2441 -0.0428 -0.2050
 4526TIP3    H134993   5.124   5.390   2.024 -0.3844  0.3366 -2.3627
 4526TIP3    H234994   5.177   5.304   1.911 -2.0779 -2.4075 -1.1155
 4527TIP3   OH234995   2.241   3.559  15.229  0.3136 -0.6354  0.0348
 4527TIP3    H134996   2.179   3.606  15.284  0.0286 -3.0882  1.9049
 4527TIP3    H234997   2.323   3.609  15.237  0.4684 -1.3128  3.2784
 4528TIP3   OH234998   0.731   5.247  16.505  0.8329  0.2090  0.3986
 4528TIP3    H134999   0.761   5.175  16.449 -0.7784 -1.2120  1.3211
 4528TIP3    H235000   0.794   5.250  16.576  1.1120 -0.0266  0.1633
 4529TIP3   OH235001   4.006   6.495  15.426  0.0007  0.0264  0.0016
 4529TIP3    H135002   3.913   6.471  15.430 -0.0406  0.4094  1.7250
 4529TIP3    H235003   4.013   6.572  15.482  1.3653 -0.0033 -0.1217
 4530TIP3   OH235004   3.997   4.764   0.105  0.2641 -0.0057  0.6482
 4530TIP3    H135005   4.039   4.846   0.079 -0.8776  0.3775 -0.0146
 4530TIP3    H235006   4.018   4.703   0.035 -0.8019  0.3598  0.0049
 4531TIP3   OH235007   6.266   6.713   0.380 -0.4667  0.2288  0.1468
 4531TIP3    H135008   6.273   6.741   0.289 -1.0755  0.6967  0.2431
 4531TIP3    H235009   6.325   6.638   0.387 -0.7230 -0.0536 -0.7308
 4532TIP3   OH235010   4.358   1.989   3.773  0.0555 -0.0862 -0.1136
 4532TIP3    H135011   4.283   1.981   3.713 -0.8864 -0.7141  1.1273
 4532TIP3    H235012   4.389   1.899   3.785  1.5216  0.2496 -1.2384
 4533TIP3   OH235013   1.603   0.415  12.710 -0.6649  0.1461  0.1326
 4533TIP3    H135014   1.546   0.339  12.719  0.0352 -0.6133 -1.6824
 4533TIP3    H235015   1.620   0.422  12.616  0.2960  1.7906  0.4041
 4534TIP3   OH235016   6.302   0.827   2.189 -0.0137 -0.5661 -0.1063
 4534TIP3    H135017   6.254   0.760   2.140  0.4461 -1.1625  0.2535
 4534TIP3    H235018   6.390   0.824   2.152  0.4291 -1.2593  0.9988
 4535TIP3   OH235019   1.763   1.117   0.472  0.0401 -0.6670  0.1510
 4535TIP3    H135020   1.834   1.066   0.434 -1.5857 -2.6319 -0.2942
 4535TIP3    H235021   1.707   1.140   0.398 -0.0915  0.4188  0.5703
 4536TIP3   OH235022   2.630   5.711  12.738 -0.0317 -0.3359  0.4961
 4536TIP3    H135023   2.561   5.728  12.673 -0.1679  2.0383  1.1951
 4536TIP3    H235024   2.597   5.638  12.790 -1.2817 -0.3046 -0.2382
 4537TIP3   OH235025   1.167   4.888  13.525 -0.6083  0.0770  0.0718
 4537TIP3    H135026   1.240   4.943  13.551 -0.2261 -0.6325  0.5168
 4537TIP3    H235027   1.115   4.878  13.605 -1.5156  1.0697 -0.3886
 4538TIP3   OH235028   6.059   4.060   4.926 -0.3994  0.0082  0.4577
 4538TIP3    H135029   6.018   3.974   4.941  0.0905 -0.3221 -0.0582
 4538TIP3    H235030   5.986   4.119   4.909 -0.8050 -0.1138  1.7091
 4539TIP3   OH235031   6.465   5.748   4.011  0.3885  0.4815 -0.1246
 4539TIP3    H135032   6.538   5.722   4.067 -1.1199 -0.1361  1.6156
 4539TIP3    H235033   6.502   5.754   3.923  2.4091 -0.2944  0.6638
 4540TIP3   OH235034   3.802   0.670  15.202  0.2658  0.2927 -0.1416
 4540TIP3    H135035   3.806   0.574  15.195 -1.2187  0.2377 -0.3126
 4540TIP3    H235036   3.894   0.697  15.209  0.6959 -1.1456 -0.0463
 4541TIP3   OH235037   5.874   1.963  11.851 -0.4708  0.0944 -0.5086
 4541TIP3    H135038   5.912   1.888  11.805 -0.3567  0.5883 -1.2443
 4541TIP3    H235039   5.833   2.015  11.781  1.5720  1.9762 -0.3872
 4542TIP3   OH235040   4.966   5.200  11.687  0.6842  0.2843 -0.3270
 4542TIP3    H135041   5.035   5.136  11.675 -0.4494 -0.6819 -1.8027
 4542TIP3    H235042   4.916   5.167  11.762  0.7924  0.0574 -0.3544
 4543TIP3   OH235043   3.252   5.358  14.252  0.0577 -0.3522 -0.6297
 4543TIP3    H135044   3.247   5.447  14.287  1.3679 -0.3144 -0.4959
 4543TIP3    H235045   3.187   5.356  14.182 -0.4270  0.5129 -0.2187
 4544TIP3   OH235046   2.032   2.955  16.323 -0.1940 -0.2066 -0.8363
 4544TIP3    H135047   2.079   3.032  16.291  1.0106 -1.0664 -1.1692
 4544TIP3    H235048   2.012   2.904  16.244  1.9669 -1.8695 -0.3819
 4545TIP3   OH235049   0.997   4.568   4.208  0.4730  0.2983 -0.1859
 4545TIP3    H135050   1.012   4.532   4.120 -0.6830 -0.3230 -0.1452
 4545TIP3    H235051   0.992   4.663   4.194 -2.0779  0.0533 -1.1759
 4546TIP3   OH235052   5.267   0.406  15.856  0.4355 -0.0884 -0.1155
 4546TIP3    H135053   5.176   0.384  15.838  0.3836 -0.8656  1.0460
 4546TIP3    H235054   5.263   0.478  15.919  0.6207  0.9020 -1.2313
 4547TIP3   OH235055   4.328   0.740  13.967  0.2291 -0.0015  0.0999
 4547TIP3    H135056   4.419   0.769  13.968 -0.0494  0.9020  0.1306
 4547TIP3    H235057   4.281   0.809  13.921 -0.6771  0.2935  1.4143
 4548TIP3   OH235058   3.168   2.777   0.480  0.3926  0.2374  0.0345
 4548TIP3    H135059   3.168   2.713   0.410 -1.2316  1.2384 -0.9156
 4548TIP3    H235060   3.261   2.795   0.496  0.8374 -1.6352 -0.3083
 4549TIP3   OH235061   0.638   0.475  11.887 -0.1930 -0.3208  0.0662
 4549TIP3    H135062   0.682   0.394  11.911  1.3497  0.3276 -0.5312
 4549TIP3    H235063   0.610   0.461  11.796 -0.5605 -0.4368  0.1939
 4550TIP3   OH235064   2.603   3.358   1.353 -0.0803 -0.0201 -0.4184
 4550TIP3    H135065   2.654   3.301   1.410 -0.2267 -1.3758 -1.6273
 4550TIP3    H235066   2.532   3.390   1.409  0.1477 -0.8165  0.3316
 4551TIP3   OH235067   3.516   4.157  11.896  0.4005  0.1990 -0.3693
 4551TIP3    H135068   3.565   4.127  11.819  0.6527 -1.0030  0.2434
 4551TIP3    H235069   3.568   4.128  11.971 -0.5833  0.0689  0.2745
 4552TIP3   OH235070   3.435   3.696   2.049  0.3765 -0.3929  0.3758
 4552TIP3    H135071   3.388   3.769   2.089  0.4549 -0.0624 -0.1322
 4552TIP3    H235072   3.386   3.618   2.076  0.2829 -0.1522  0.9025
 4553TIP3   OH235073   3.886   1.067  11.198  0.2800 -0.0211  0.0842
 4553TIP3    H135074   3.946   1.081  11.271  0.2121  0.4361  0.0555
 4553TIP3    H235075   3.799   1.075  11.236  0.1772 -3.6682  0.7282
 4554TIP3   OH235076   4.576   2.773  13.640  0.1208  0.2987  0.4892
 4554TIP3    H135077   4.510   2.838  13.612  1.0836  0.6298 -1.0867
 4554TIP3    H235078   4.565   2.767  13.735 -2.1507  0.3874  0.2577
 4555TIP3   OH235079   1.907   4.354   4.564  0.1661  0.0718  0.4565
 4555TIP3    H135080   1.840   4.423   4.568  0.9536  0.7571  1.8114
 4555TIP3    H235081   1.873   4.284   4.619  0.2701  0.1565  0.6273
 4556TIP3   OH235082   6.738   6.392  10.844  0.0705 -0.8450  0.0852
 4556TIP3    H135083   6.818   6.370  10.796  0.5434  0.2934  0.3255
 4556TIP3    H235084   6.688   6.446  10.783  0.1320 -0.3831  0.4409
 4557TIP3   OH235085   2.076   4.080  10.880  0.2008 -0.7519  0.2005
 4557TIP3    H135086   2.155   4.060  10.829  0.1302 -1.6829  0.4468
 4557TIP3    H235087   2.004   4.067  10.819  0.1960 -0.4590  0.1390
 4558TIP3   OH235088   5.059   2.372  16.452  0.0027  0.0082 -0.1901
 4558TIP3    H135089   5.002   2.428  16.399 -0.4499 -1.0931 -0.8933
 4558TIP3    H235090   5.141   2.368  16.404 -0.5584 -1.3506 -1.0405
 4559TIP3   OH235091   6.578   6.073  13.236 -0.4520 -0.5243 -0.4057
 4559TIP3    H135092   6.575   6.122  13.154  0.3344 -1.4165 -0.9776
 4559TIP3    H235093   6.671   6.053  13.249 -0.6070 -0.6807  0.5274
 4560TIP3   OH235094   6.502   4.895  10.407 -0.0803 -0.8679  0.1409
 4560TIP3    H135095   6.415   4.927  10.432 -0.2637 -1.1943 -0.0566
 4560TIP3    H235096   6.501   4.896  10.311  0.1456 -0.8369  0.1396
 4561TIP3   OH235097   4.365   2.319  12.204 -0.3993 -0.1731  0.5903
 4561TIP3    H135098   4.452   2.280  12.198 -0.8900 -1.2703  0.5112
 4561TIP3    H235099   4.322   2.294  12.123 -1.0231 -0.1888  0.9246
 4562TIP3   OH235100   4.899   6.392   1.961  0.2679  0.0543 -0.0170
 4562TIP3    H135101   4.867   6.480   1.979 -3.2905 -1.4190  1.3909
 4562TIP3    H235102   4.935   6.362   2.045 -2.2324 -1.2053  0.6847
 4563TIP3   OH235103   1.600   2.050   5.661 -0.3422  0.2173  0.0886
 4563TIP3    H135104   1.517   2.007   5.642 -0.4200  0.6744 -0.6331
 4563TIP3    H235105   1.656   2.029   5.586 -0.5069  1.6728 -0.4598
 4564TIP3   OH235106   2.857   3.045   3.307 -0.3296  0.5572 -0.5665
 4564TIP3    H135107   2.794   3.036   3.235 -0.5239  1.7612 -0.5609
 4564TIP3    H235108   2.808   3.018   3.385 -0.6225  0.8094 -0.6606
 4565TIP3   OH235109   0.454   1.471  13.682  0.3330 -0.1350  0.4303
 4565TIP3    H135110   0.528   1.503  13.632  0.8089 -0.5715  0.8513
 4565TIP3    H235111   0.427   1.391  13.637  0.2634 -0.0998  0.4108
 4566TIP3   OH235112   1.633   5.086  12.750  0.3043  0.4838 -0.1679
 4566TIP3    H135113   1.685   5.125  12.680  1.0787  0.7685  0.5528
 4566TIP3    H235114   1.543   5.084  12.716  0.9205 -0.9083 -1.8218
 4567TIP3   OH235115   0.002   5.414   0.772  0.0214  0.4901 -0.3633
 4567TIP3    H135116  -0.090   5.435   0.790 -0.2575  0.4650 -1.6823
 4567TIP3    H235117   0.047   5.432   0.855 -0.6869  3.4153 -0.5380
 4568TIP3   OH235118   4.472   5.954  13.504 -0.3617  0.2566 -0.1092
 4568TIP3    H135119   4.454   5.993  13.590 -0.9098  1.1296 -0.6105
 4568TIP3    H235120   4.414   6.002  13.444 -0.1471 -0.5052 -0.9271
 4569TIP3   OH235121   1.923   0.232   1.046  0.2061  0.5676  0.0662
 4569TIP3    H135122   1.935   0.153   0.994 -3.1236 -1.7066  2.4639
 4569TIP3    H235123   1.852   0.279   1.002  0.2793  0.7638  0.1600
 4570TIP3   OH235124   4.555   3.551   1.569 -0.2494  0.1816 -0.1995
 4570TIP3    H135125   4.623   3.484   1.578  2.3652  2.7177 -0.3659
 4570TIP3    H235126   4.559   3.576   1.476 -1.0461  0.7484 -0.0876
 4571TIP3   OH235127   6.063   2.570   2.613  0.1962 -0.1289 -0.2498
 4571TIP3    H135128   6.021   2.627   2.549 -0.0125 -0.8866 -0.8078
 4571TIP3    H235129   6.112   2.628   2.670 -1.1488  0.7269  0.0526
 4572TIP3   OH235130   0.903   2.940   4.921 -0.3043  0.2332  0.3142
 4572TIP3    H135131   0.877   3.031   4.903  2.0365  0.7308 -0.7552
 4572TIP3    H235132   0.854   2.888   4.857  0.9093  1.1030 -1.3605
 4573TIP3   OH235133   4.250   4.959  16.055  0.4940  0.0515 -0.0669
 4573TIP3    H135134   4.270   4.979  15.963  0.6564 -1.9812 -0.4923
 4573TIP3    H235135   4.332   4.977  16.102  0.2424  1.6410 -0.2209
 4574TIP3   OH235136   4.594   0.740  12.604  0.1731  0.3614  0.1984
 4574TIP3    H135137   4.501   0.718  12.600 -0.1980  2.1214 -1.2303
 4574TIP3    H235138   4.625   0.697  12.684 -2.3900  1.7103  1.9885
 4575TIP3   OH235139   0.573   0.694   4.240  0.2562 -0.2675  0.2223
 4575TIP3    H135140   0.630   0.770   4.230  1.0843 -1.0092 -0.8226
 4575TIP3    H235141   0.514   0.717   4.311  0.0734  1.6134 -0.5319
 4576TIP3   OH235142   0.436   4.515   1.797  0.4895 -0.3221  0.1612
 4576TIP3    H135143   0.487   4.536   1.876 -0.0994 -1.5296  0.8819
 4576TIP3    H235144   0.358   4.470   1.830 -1.4886  2.2766 -0.8763
 4577TIP3   OH235145   5.761   5.580  14.471 -0.3754 -0.0347 -0.1575
 4577TIP3    H135146   5.767   5.517  14.543  0.0197  0.6537  0.4163
 4577TIP3    H235147   5.813   5.541  14.400  0.7042  0.1044  0.5423
 4578TIP3   OH235148   2.858   4.970   6.281 -0.8765  0.7009  0.1384
 4578TIP3    H135149   2.930   4.993   6.339 -0.9118  2.2365 -0.4067
 4578TIP3    H235150   2.841   4.878   6.299  2.7145 -0.3437 -1.3024
 4579TIP3   OH235151   0.110   4.057  16.933  0.1739 -0.5856  0.4541
 4579TIP3    H135152   0.109   3.962  16.919  2.2684 -0.7919  1.4435
 4579TIP3    H235153   0.148   4.068  17.020 -0.5610  1.1477  0.5727
 4580TIP3   OH235154   6.517   1.182  14.869 -0.1591 -0.0821  0.1195
 4580TIP3    H135155   6.584   1.195  14.802  0.5175 -0.6704  0.6744
 4580TIP3    H235156   6.447   1.243  14.845  1.1313  1.4767  0.2854
 4581TIP3   OH235157   5.764   5.466   1.807  0.3510 -0.0605  0.4185
 4581TIP3    H135158   5.726   5.545   1.844 -1.1106 -0.5419  0.0237
 4581TIP3    H235159   5.839   5.446   1.862 -0.9176  0.0561  2.2355
 4582TIP3   OH235160   2.247   4.894  11.376 -0.2285 -0.2021  0.0523
 4582TIP3    H135161   2.273   4.887  11.468 -1.8416 -0.9678  0.4738
 4582TIP3    H235162   2.327   4.920  11.330  0.5292  0.4535  1.7034
 4583TIP3   OH235163   4.686   2.107   5.110  0.1758  0.1170 -0.0876
 4583TIP3    H135164   4.711   2.032   5.055  0.7605  1.4215 -1.6185
 4583TIP3    H235165   4.749   2.175   5.087 -1.8913  1.9072 -0.5410
 4584TIP3   OH235166   2.626   3.793   3.997  0.2578 -0.1852 -0.5595
 4584TIP3    H135167   2.535   3.796   3.967  0.0628 -1.7744 -0.2124
 4584TIP3    H235168   2.620   3.789   4.093  0.4972 -3.7156 -0.5909
 4585TIP3   OH235169   1.091   0.078   2.801 -0.0511  0.1661  0.2473
 4585TIP3    H135170   1.086   0.157   2.747 -1.1525  0.3812  0.6491
 4585TIP3    H235171   1.145   0.104   2.876  0.6098  0.1724 -0.2275
 4586TIP3   OH235172   6.089   4.524   5.610  0.1472 -0.2829  0.3612
 4586TIP3    H135173   6.116   4.519   5.702 -1.5002 -1.9999  0.7681
 4586TIP3    H235174   6.113   4.438   5.574  1.3573  0.6039 -0.9965
 4587TIP3   OH235175   2.729   5.270   3.256  0.1799 -0.1871  0.1039
 4587TIP3    H135176   2.770   5.278   3.343  1.5596 -0.1853 -0.5334
 4587TIP3    H235177   2.796   5.226   3.203 -0.3493  0.5602 -1.1713
 4588TIP3   OH235178   2.732   3.650  11.894  0.2393  0.1098 -0.3885
 4588TIP3    H135179   2.778   3.667  11.812  1.6481  0.3236  0.4103
 4588TIP3    H235180   2.655   3.707  11.891 -0.4157 -0.8441 -2.1089
 4589TIP3   OH235181   1.520   5.579   6.727  0.3521  0.1480  0.5754
 4589TIP3    H135182   1.579   5.601   6.800  2.2153 -0.6489 -0.6793
 4589TIP3    H235183   1.577   5.575   6.650 -1.4994  0.3023 -0.8295
 4590TIP3   OH235184   0.810   6.317  16.045  0.8161 -0.1431 -0.5500
 4590TIP3    H135185   0.887   6.277  16.086  1.0899  2.0581  1.1906
 4590TIP3    H235186   0.827   6.411  16.050 -1.8842  0.3735 -0.3395
 4591TIP3   OH235187   3.479   3.845  12.308  0.1618  0.3452 -0.1452
 4591TIP3    H135188   3.485   3.885  12.222 -0.1819  2.5323  0.8034
 4591TIP3    H235189   3.389   3.859  12.336 -0.2953 -2.1275 -0.2270
 4592TIP3   OH235190   1.881   3.165  16.481  0.3843 -0.0360  0.1641
 4592TIP3    H135191   1.860   3.223  16.408  0.4179  2.0806  1.8044
 4592TIP3    H235192   1.948   3.106  16.445 -1.3988 -0.6738 -2.2349
 4593TIP3   OH235193   5.753   4.855   5.038 -0.2234  0.5642 -0.0972
 4593TIP3    H135194   5.724   4.856   4.947 -0.9864 -1.1070  0.1066
 4593TIP3    H235195   5.834   4.906   5.038  0.0577  0.1496 -1.8052
 4594TIP3   OH235196   0.014   5.431  12.229  0.2241 -0.1547 -0.1659
 4594TIP3    H135197   0.049   5.518  12.247 -1.3052  0.3697  0.3993
 4594TIP3    H235198  -0.080   5.445  12.220  0.1816 -1.4666 -1.9655
 4595TIP3   OH235199   1.782   5.804   5.505  0.7184 -0.5063 -0.1546
 4595TIP3    H135200   1.768   5.717   5.542  0.4016 -0.6256 -0.5589
 4595TIP3    H235201   1.846   5.845   5.564  1.2367 -1.1859 -0.2486
 4596TIP3   OH235202   1.443   1.340   2.020  0.4340 -0.1940 -0.5545
 4596TIP3    H135203   1.498   1.325   2.097 -0.5433  0.2419  0.2217
 4596TIP3    H235204   1.457   1.262   1.966  1.8535 -0.0689 -0.3868
 4597TIP3   OH235205   4.674   2.500   1.386 -0.3946 -0.0422  0.0665
 4597TIP3    H135206   4.611   2.544   1.443  0.4750 -0.6446  1.5308
 4597TIP3    H235207   4.638   2.412   1.375  0.4766 -0.5757  1.3971
 4598TIP3   OH235208   4.737   5.100   1.041 -0.0724 -0.5557 -0.3749
 4598TIP3    H135209   4.749   5.084   1.134 -1.4339  2.3884  0.3773
 4598TIP3    H235210   4.801   5.044   0.998  3.5790  1.1699  2.5471
 4599TIP3   OH235211   2.552   4.714  16.660 -0.2668 -0.7224 -0.1882
 4599TIP3    H135212   2.604   4.668  16.726  1.0030  0.7733 -0.0977
 4599TIP3    H235213   2.483   4.652  16.635 -0.1061 -1.7047  1.7416
 4600TIP3   OH235214   5.604   5.511  11.443  0.5502  0.5707 -0.3108
 4600TIP3    H135215   5.550   5.505  11.364  0.7882  0.7152 -0.4838
 4600TIP3    H235216   5.600   5.423  11.481  0.5671  0.4601 -0.5672
 4601TIP3   OH235217   2.268   3.426  16.811 -0.1738  0.2039 -0.2097
 4601TIP3    H135218   2.256   3.520  16.795 -0.2408  0.4686  1.3386
 4601TIP3    H235219   2.218   3.383  16.741 -0.2181  1.3153 -0.8678
 4602TIP3   OH235220   6.631   5.550   5.482 -0.5740 -1.0652  0.9044
 4602TIP3    H135221   6.721   5.524   5.464 -1.3445 -2.2952 -1.3903
 4602TIP3    H235222   6.612   5.620   5.420 -1.5867 -1.6494  0.5379
 4603TIP3   OH235223   2.819   1.099   6.379 -0.0111 -0.6040 -0.5375
 4603TIP3    H135224   2.815   1.008   6.352 -0.3584 -0.0681 -2.3401
 4603TIP3    H235225   2.739   1.113   6.430  0.3351 -1.4448  0.2491
 4604TIP3   OH235226   1.217   3.188   5.937  0.0934  0.2609 -0.2659
 4604TIP3    H135227   1.290   3.127   5.940  0.0903  0.2787  0.1156
 4604TIP3    H235228   1.226   3.241   6.016 -1.1852 -0.7115  0.5578
 4605TIP3   OH235229   3.709   3.372   2.486  0.6242  0.0276 -0.0311
 4605TIP3    H135230   3.646   3.306   2.517 -1.6990  1.0218 -2.3965
 4605TIP3    H235231   3.776   3.375   2.554 -1.2209 -2.0116  1.9840
 4606TIP3   OH235232   0.630   5.416   5.048 -0.3720 -0.2152 -0.3976
 4606TIP3    H135233   0.622   5.399   4.954 -1.3560  0.6406 -0.4787
 4606TIP3    H235234   0.682   5.343   5.081 -2.3051 -1.9669 -1.1469
 4607TIP3   OH235235   1.079   1.983  17.082  0.7408 -0.1230 -0.3254
 4607TIP3    H135236   1.056   2.069  17.118 -0.5374 -0.7146  0.2855
 4607TIP3    H235237   1.115   1.934  17.156 -0.1389 -0.7055 -0.2839
 4608TIP3   OH235238   6.041   3.236  12.757 -0.3738  0.4619 -0.0567
 4608TIP3    H135239   6.093   3.280  12.690 -1.4970 -0.4281 -1.5355
 4608TIP3    H235240   6.080   3.149  12.765 -1.9270 -0.3976 -1.5550
 4609TIP3   OH235241   4.174   6.702  12.220  0.4064  0.0568 -0.0361
 4609TIP3    H135242   4.233   6.736  12.287  1.9532 -0.2054 -1.2333
 4609TIP3    H235243   4.151   6.614  12.251 -1.1914  1.0040  1.5557
 4610TIP3   OH235244   0.891   1.854   0.375 -0.2297 -0.4225  0.1249
 4610TIP3    H135245   0.960   1.911   0.410  1.7472 -1.7736 -1.4804
 4610TIP3    H235246   0.925   1.825   0.291 -2.7515 -1.1961 -0.6559
 4611TIP3   OH235247   0.938   4.706   2.672 -0.5535 -0.0850  0.4800
 4611TIP3    H135248   0.858   4.747   2.705 -0.8108 -0.8324  0.7801
 4611TIP3    H235249   0.990   4.687   2.750 -0.0263  0.5067  0.2776
 4612TIP3   OH235250   3.885   1.985  15.454 -0.2586  0.2430 -0.1737
 4612TIP3    H135251   3.904   1.892  15.440  1.3131  0.3458  1.1318
 4612TIP3    H235252   3.926   2.005  15.537  1.0939  2.5906 -1.3691
 4613TIP3   OH235253   6.246   6.669   3.817 -0.4913 -0.1447  0.8198
 4613TIP3    H135254   6.179   6.730   3.788 -0.6527 -1.0645 -0.7969
 4613TIP3    H235255   6.205   6.583   3.812  0.7273 -0.7009 -0.0016
 4614TIP3   OH235256   2.962   3.959  15.499  0.5173 -0.0557 -0.5174
 4614TIP3    H135257   2.902   4.016  15.548  1.9556 -0.7946  2.1822
 4614TIP3    H235258   2.980   3.886  15.559  0.9508 -1.9076 -2.8414
 4615TIP3   OH235259   1.855   5.420  11.701 -0.0867  0.4464 -0.2145
 4615TIP3    H135260   1.848   5.494  11.640 -0.1143 -0.4309 -1.2849
 4615TIP3    H235261   1.811   5.348  11.657  0.8315 -0.4923  0.3726
 4616TIP3   OH235262   4.579   6.252   4.459 -0.2346 -0.6012 -0.0929
 4616TIP3    H135263   4.637   6.277   4.387  0.3356 -2.5292 -0.3194
 4616TIP3    H235264   4.625   6.278   4.538  1.1184 -2.4063 -0.2554
 4617TIP3   OH235265   5.475   4.454  13.697  0.6054 -0.2817 -0.1914
 4617TIP3    H135266   5.455   4.545  13.722 -2.5216 -1.4873  2.0803
 4617TIP3    H235267   5.429   4.442  13.614 -0.0470 -0.1182  0.1357
 4618TIP3   OH235268   3.594   4.490   2.988  0.2620 -0.0886 -0.1779
 4618TIP3    H135269   3.550   4.466   3.070  0.6821 -1.0672 -0.2256
 4618TIP3    H235270   3.589   4.585   2.985  0.4126 -0.0333  1.0853
 4619TIP3   OH235271   0.379   0.095   2.490 -0.0097 -0.5292  0.0819
 4619TIP3    H135272   0.327   0.175   2.486  0.1139 -0.4479  0.1081
 4619TIP3    H235273   0.363   0.059   2.577  0.8501  0.0789  0.4935
 4620TIP3   OH235274   0.932   1.567   3.143  0.7293  0.5659 -0.1644
 4620TIP3    H135275   1.004   1.596   3.086  0.1887  0.5904 -0.8498
 4620TIP3    H235276   0.859   1.553   3.083  0.9186 -2.1019  0.1326
 4621TIP3   OH235277   1.412   4.739   1.870  0.2755 -0.0379  0.1468
 4621TIP3    H135278   1.388   4.677   1.939  2.0286  0.3647  1.1523
 4621TIP3    H235279   1.354   4.814   1.884  1.1452  0.3723  1.7049
 4622TIP3   OH235280   2.304   3.093   2.115 -0.0528  0.0813  0.0965
 4622TIP3    H135281   2.216   3.128   2.124  0.7828  2.6450 -1.3063
 4622TIP3    H235282   2.348   3.116   2.197 -1.0273 -2.3875  1.3693
 4623TIP3   OH235283   2.742   2.705   4.887 -0.1927  0.0023  0.3666
 4623TIP3    H135284   2.683   2.683   4.815 -0.7925  1.8597  0.2572
 4623TIP3    H235285   2.829   2.682   4.854 -0.6561 -1.1001 -0.1404
 4624TIP3   OH235286   4.427   3.142   3.296 -0.4293 -0.2087  0.2813
 4624TIP3    H135287   4.404   3.112   3.384 -0.6567  0.7571  0.5588
 4624TIP3    H235288   4.470   3.226   3.310 -1.2607  0.3685 -0.5940
 4625TIP3   OH235289   5.013   5.882   1.723  0.6359  0.5924 -0.1652
 4625TIP3    H135290   4.992   5.974   1.739  0.2014  0.7680 -1.7432
 4625TIP3    H235291   4.988   5.867   1.632 -0.1668 -1.3325  0.3513
 4626TIP3   OH235292   5.163   1.391  14.819  0.1595 -0.4898 -0.1584
 4626TIP3    H135293   5.103   1.333  14.866 -0.4033 -0.5668 -0.9688
 4626TIP3    H235294   5.250   1.363  14.847 -0.1045 -1.7971 -0.6310
 4627TIP3   OH235295   1.955   3.598  13.771  0.2261  0.6552 -0.4021
 4627TIP3    H135296   1.941   3.691  13.755  2.6876  1.1303  0.0401
 4627TIP3    H235297   2.027   3.595  13.834 -0.2073 -1.5373  0.0211
 4628TIP3   OH235298   3.032   6.446   3.266 -0.2682 -0.6442 -0.0792
 4628TIP3    H135299   3.063   6.395   3.341 -0.7853 -1.4759 -0.4341
 4628TIP3    H235300   3.078   6.410   3.191 -0.4969 -0.4714 -0.3054
 4629TIP3   OH235301   0.569   5.896  13.626  0.2808 -0.0408  0.5525
 4629TIP3    H135302   0.482   5.936  13.623  0.3012 -0.0893 -0.8099
 4629TIP3    H235303   0.595   5.903  13.718 -1.4869 -0.7127  1.1357
 4630TIP3   OH235304   5.286   1.020  12.389  0.0999  0.2874  0.0155
 4630TIP3    H135305   5.255   1.059  12.308  0.1251 -0.1616 -0.2140
 4630TIP3    H235306   5.228   1.056  12.456  0.8387  1.5809 -0.0288
 4631TIP3   OH235307   4.825   2.939  14.452 -0.0566  0.5956 -0.4436
 4631TIP3    H135308   4.827   2.857  14.401 -0.7729 -0.6135  1.4043
 4631TIP3    H235309   4.915   2.950  14.483 -0.2881 -0.3998  0.6427
 4632TIP3   OH235310   3.723   5.305  16.251 -0.1140 -0.2298 -0.1622
 4632TIP3    H135311   3.814   5.300  16.222  0.0605  0.1342  0.3168
 4632TIP3    H235312   3.682   5.369  16.192  0.4527  1.1554  0.9470
 4633TIP3   OH235313   5.590   1.290  13.378  0.7933  0.4500  0.0685
 4633TIP3    H135314   5.667   1.256  13.424  1.7843 -0.1005 -1.9138
 4633TIP3    H235315   5.525   1.221  13.387  0.9710  0.3622  0.6820
 4634TIP3   OH235316   2.480   2.281  16.270  0.1684  0.1560  0.1792
 4634TIP3    H135317   2.396   2.260  16.310 -0.2172  0.6283 -0.3676
 4634TIP3    H235318   2.517   2.349  16.326 -1.3577  2.3924 -1.4424
 4635TIP3   OH235319   2.017   4.778   6.353  0.2862  0.8612 -0.1815
 4635TIP3    H135320   2.101   4.749   6.317  1.3601  1.3692  1.8058
 4635TIP3    H235321   2.041   4.824   6.434 -1.9558  0.4893  0.7257
 4636TIP3   OH235322   6.716   1.105   2.102 -0.2614 -0.2628  0.5491
 4636TIP3    H135323   6.626   1.113   2.070  0.3982  0.9208 -1.0421
 4636TIP3    H235324   6.752   1.029   2.056 -0.7102 -1.3434  1.9102
 4637TIP3   OH235325   4.451   0.362  16.195 -0.1541  0.0339  0.2673
 4637TIP3    H135326   4.416   0.273  16.196  1.9544 -0.8473 -0.3893
 4637TIP3    H235327   4.473   0.377  16.103 -0.2611  1.1494  0.4210
 4638TIP3   OH235328   0.194   2.995  14.611 -0.0535  0.1343  0.3110
 4638TIP3    H135329   0.269   3.038  14.654  0.7738 -0.0338 -0.9314
 4638TIP3    H235330   0.178   3.049  14.534  0.5809 -1.4149 -0.9255
 4639TIP3   OH235331   3.410   6.718   5.473 -0.3154 -0.6392 -0.3424
 4639TIP3    H135332   3.431   6.645   5.531 -1.2870  0.0887  0.9696
 4639TIP3    H235333   3.467   6.789   5.503  1.0702 -1.0052 -2.0080
 4640TIP3   OH235334   5.412   5.244  14.827 -0.2663  0.0958 -0.3330
 4640TIP3    H135335   5.325   5.208  14.807  0.7922 -2.5008 -0.4515
 4640TIP3    H235336   5.442   5.194  14.902  0.9209  1.3750  0.0618
 4641TIP3   OH235337   1.710   4.937   2.640 -0.1738 -0.2295  0.4479
 4641TIP3    H135338   1.725   4.870   2.707 -0.0486 -1.1861 -0.5183
 4641TIP3    H235339   1.649   4.895   2.579 -0.8251  0.8855  0.3335
 4642TIP3   OH235340   5.353   4.104  15.915  0.1976  0.2000 -0.7969
 4642TIP3    H135341   5.276   4.159  15.894  0.9372  1.3852 -0.4583
 4642TIP3    H235342   5.419   4.167  15.944  1.1817 -0.8604 -0.7465
 4643TIP3   OH235343   2.290   1.960  12.584  0.2377  0.0173 -0.4237
 4643TIP3    H135344   2.259   1.926  12.501 -2.1580  1.7346 -0.2753
 4643TIP3    H235345   2.259   1.897  12.649 -1.0875  0.5947 -0.4884
 4644TIP3   OH235346   0.828   3.687   3.841  0.7202 -0.4638 -0.4036
 4644TIP3    H135347   0.804   3.595   3.845 -0.7739 -0.0184  1.1053
 4644TIP3    H235348   0.835   3.714   3.932 -0.1024  1.2381 -0.8323
 4645TIP3   OH235349   6.461   2.564   0.437  1.0003 -0.2429 -0.0847
 4645TIP3    H135350   6.450   2.472   0.463  0.3819 -0.6293 -1.6674
 4645TIP3    H235351   6.402   2.612   0.495  0.1731 -1.0156 -0.2641
 4646TIP3   OH235352   0.028   6.218   1.794  0.1794 -0.3478  0.6693
 4646TIP3    H135353  -0.002   6.157   1.726  0.2021 -0.8759  1.1386
 4646TIP3    H235354   0.118   6.192   1.812  1.3811  1.9881 -1.6074
 4647TIP3   OH235355   0.420   6.784   3.452  0.0718 -0.2278  0.1928
 4647TIP3    H135356   0.391   6.697   3.425 -0.9066 -0.4367  1.8744
 4647TIP3    H235357   0.351   6.816   3.510  1.4031  0.8145  1.2454
 4648TIP3   OH235358   4.627   3.556   3.063 -0.1637  0.2578  0.3972
 4648TIP3    H135359   4.594   3.634   3.106  1.0458  0.0273  1.7882
 4648TIP3    H235360   4.606   3.568   2.971 -2.4541  0.9464  0.9735
 4649TIP3   OH235361   2.783   1.813  14.730  0.0357 -0.7820 -0.3729
 4649TIP3    H135362   2.725   1.875  14.774  0.6662 -0.2654 -0.2714
 4649TIP3    H235363   2.794   1.742  14.793 -0.2864 -0.7649 -0.2954
 4650TIP3   OH235364   6.021   2.894   2.031  0.0103 -0.2598  0.5710
 4650TIP3    H135365   5.943   2.930   2.072 -0.5241 -1.4147  0.6021
 4650TIP3    H235366   5.997   2.883   1.939 -0.6161 -2.5597  0.9647
 4651TIP3   OH235367   5.248   6.059   1.627  0.3370 -0.5872  0.0894
 4651TIP3    H135368   5.155   6.081   1.620  0.3101  0.4027  3.0931
 4651TIP3    H235369   5.287   6.093   1.546 -1.7298 -0.1353 -0.7458
 4652TIP3   OH235370   1.783   3.925  15.199 -0.0349  0.6346 -0.1055
 4652TIP3    H135371   1.836   3.987  15.149 -0.7766  0.2477 -1.4092
 4652TIP3    H235372   1.837   3.846  15.204 -0.2570  0.4221 -0.9576
 4653TIP3   OH235373   3.161   0.904   2.265 -0.2354 -0.3192 -0.0878
 4653TIP3    H135374   3.172   0.934   2.175  2.6357 -0.6354  0.1007
 4653TIP3    H235375   3.243   0.929   2.308 -0.5905 -2.3202  1.8203
 4654TIP3   OH235376   1.883   0.294  14.779 -0.1411 -0.3626 -0.3516
 4654TIP3    H135377   1.789   0.299  14.799  0.5401  0.0904  3.0544
 4654TIP3    H235378   1.898   0.201  14.759 -1.1545 -0.6197  0.0443
 4655TIP3   OH235379   3.610   6.784  14.208 -0.6267 -0.1384  0.4253
 4655TIP3    H135380   3.681   6.766  14.270 -0.3358 -0.8832 -0.1198
 4655TIP3    H235381   3.552   6.708  14.216 -1.9792  0.9878  1.7107
 4656TIP3   OH235382   4.602   0.741   6.283  0.0149  0.3688  0.3710
 4656TIP3    H135383   4.609   0.806   6.353  1.0225  1.6456 -0.8922
 4656TIP3    H235384   4.675   0.760   6.225 -0.7723 -0.7113 -1.0147
 4657TIP3   OH235385   4.495   6.770   1.541 -0.2995  0.0175  0.2445
 4657TIP3    H135386   4.552   6.694   1.530  1.8238  1.6434 -0.2380
 4657TIP3    H235387   4.484   6.777   1.636  1.2282  0.3303  0.4140
 4658TIP3   OH235388   5.957   3.026   5.387 -0.6106 -0.3084  0.1873
 4658TIP3    H135389   5.986   2.936   5.392 -0.2384 -0.1867  0.2306
 4658TIP3    H235390   5.895   3.028   5.314  1.7979  0.0681 -1.8817
 4659TIP3   OH235391   0.818   3.626  17.060 -0.2011  0.5855 -0.5881
 4659TIP3    H135392   0.905   3.589  17.044 -0.3394 -0.4867  1.0741
 4659TIP3    H235393   0.833   3.720  17.065  0.7374  0.4774 -1.1336
 4660TIP3   OH235394   0.662   5.834  14.883 -0.3859 -0.2693  0.2760
 4660TIP3    H135395   0.631   5.769  14.945 -2.0744  1.4175  1.2389
 4660TIP3    H235396   0.749   5.858  14.914 -0.9858  0.1324  1.6763
 4661TIP3   OH235397   5.355   3.410  15.949 -0.1129 -0.7916 -0.4684
 4661TIP3    H135398   5.405   3.411  15.868  2.4459  2.6633  1.0230
 4661TIP3    H235399   5.287   3.476  15.937  0.5576  0.0580  0.3562
 4662TIP3   OH235400   0.248   3.919  12.104 -0.2807  0.0900 -1.0652
 4662TIP3    H135401   0.277   4.009  12.112  0.9831 -0.4829  1.3584
 4662TIP3    H235402   0.305   3.881  12.037 -0.0035  0.7594 -1.2115
 4663TIP3   OH235403   4.567   2.504   3.842  0.3374  0.0656  0.3634
 4663TIP3    H135404   4.514   2.480   3.918  2.7675 -1.9273  1.5255
 4663TIP3    H235405   4.534   2.590   3.815 -1.4963  0.1824  2.8307
 4664TIP3   OH235406   0.896   6.497  17.026 -0.1599 -0.6401  0.4984
 4664TIP3    H135407   0.943   6.572  16.990  0.7848 -1.7459 -0.6035
 4664TIP3    H235408   0.816   6.534  17.063  0.2334  0.8874 -0.1602
 4665TIP3   OH235409   0.894   1.368  13.475 -0.3880  0.4607 -0.6852
 4665TIP3    H135410   0.857   1.281  13.455 -1.0670  0.7590 -0.7345
 4665TIP3    H235411   0.987   1.351  13.489 -0.6234 -0.3734 -0.0905
 4666TIP3   OH235412   4.831   4.085  16.625  0.3030  0.1890 -0.2313
 4666TIP3    H135413   4.798   3.997  16.612  0.4468 -0.2118  1.9237
 4666TIP3    H235414   4.925   4.078  16.608  0.4992 -0.3331  1.0059
 4667TIP3   OH235415   0.474   2.664  16.099 -0.4023  0.1034  0.1735
 4667TIP3    H135416   0.405   2.627  16.154  0.2043 -1.2669  0.0179
 4667TIP3    H235417   0.427   2.705  16.026 -1.2006  1.7644  1.5839
 4668TIP3   OH235418   2.807   6.158  10.604 -0.1179 -0.7178 -0.0298
 4668TIP3    H135419   2.880   6.097  10.615 -0.2422 -0.7733  0.5383
 4668TIP3    H235420   2.735   6.118  10.653 -1.2099 -1.7663 -2.4170
 4669TIP3   OH235421   6.758   0.116   4.382 -0.0815  0.1339  0.0048
 4669TIP3    H135422   6.723   0.163   4.306  1.0277 -1.5514 -1.5934
 4669TIP3    H235423   6.848   0.147   4.390 -0.4778  1.0091  1.2497
 4670TIP3   OH235424   5.752   2.175  12.556 -0.0396  0.1416 -0.0126
 4670TIP3    H135425   5.840   2.148  12.582 -1.5157 -3.8448  1.2042
 4670TIP3    H235426   5.756   2.183  12.461  1.4587 -0.8226 -0.0408
 4671TIP3   OH235427   2.150   5.129   0.924  0.2855  0.1910 -0.6483
 4671TIP3    H135428   2.158   5.034   0.917  1.3769  0.3800 -2.1081
 4671TIP3    H235429   2.067   5.150   0.880 -0.0082 -0.0888 -0.2316
 4672TIP3   OH235430   2.569   6.401   5.984  0.3224 -0.3517  0.3891
 4672TIP3    H135431   2.659   6.385   5.955  0.2635 -0.8555  0.4912
 4672TIP3    H235432   2.556   6.495   5.968  0.4095 -0.5427 -0.8788
 4673TIP3   OH235433   6.058   3.099  11.886  0.4979  0.5883  0.0493
 4673TIP3    H135434   6.085   3.030  11.947 -0.9314  0.5077  0.6243
 4673TIP3    H235435   6.065   3.060  11.800 -3.9744 -1.6528  0.5599
 4674TIP3   OH235436   2.259   0.626   3.237  0.1379  0.4450 -0.0956
 4674TIP3    H135437   2.196   0.568   3.194 -0.2156 -0.3363  1.4420
 4674TIP3    H235438   2.333   0.629   3.177 -0.9191  0.5032 -1.4201
 4675TIP3   OH235439   6.704   1.359   1.500 -0.4633 -0.4276 -0.1113
 4675TIP3    H135440   6.701   1.394   1.589  0.6706  0.6741 -0.4959
 4675TIP3    H235441   6.632   1.402   1.455  0.5899  1.0304 -0.4339
 4676TIP3   OH235442   4.462   5.115   1.076  0.2427  0.2246  0.1734
 4676TIP3    H135443   4.556   5.126   1.089  0.0952  1.5624  0.1882
 4676TIP3    H235444   4.454   5.037   1.021  1.3361 -0.1172  0.4969
 4677TIP3   OH235445   6.274   3.658   2.724 -0.4232  0.5933  0.1037
 4677TIP3    H135446   6.186   3.687   2.699 -1.0841  0.8081  2.5416
 4677TIP3    H235447   6.270   3.563   2.719 -0.7146  0.6118 -0.0564
 4678TIP3   OH235448   3.012   5.890  12.721  0.0395 -0.0911  0.3350
 4678TIP3    H135449   2.941   5.908  12.784  0.7564  2.2142  0.5380
 4678TIP3    H235450   2.969   5.845  12.649 -1.3838  0.0931  1.0479
 4679TIP3   OH235451   3.685   3.732   2.974  0.4919  0.2826 -0.2509
 4679TIP3    H135452   3.724   3.727   3.061 -2.5033  2.0769  1.2966
 4679TIP3    H235453   3.598   3.771   2.989  0.1182  1.1518 -4.0924
 4680TIP3   OH235454   2.663   4.220  15.869  0.8436  0.1206  0.3811
 4680TIP3    H135455   2.710   4.279  15.928  2.4823 -1.7634  0.9815
 4680TIP3    H235456   2.601   4.174  15.925  0.5951  0.1848  0.1617
 4681TIP3   OH235457   5.101   4.828   4.618  0.0853 -0.0344 -0.1901
 4681TIP3    H135458   5.188   4.793   4.603 -0.3953 -0.9218 -0.9570
 4681TIP3    H235459   5.042   4.755   4.599 -0.7475  0.0260  2.0188
 4682TIP3   OH235460   6.168   2.039   2.631 -0.2864  1.0222 -0.5852
 4682TIP3    H135461   6.172   2.093   2.553 -0.6965  1.1999 -0.4871
 4682TIP3    H235462   6.176   1.949   2.599 -1.7331  1.0227 -0.9575
 4683TIP3   OH235463   0.927   2.768  16.011  0.4055  0.1705  0.0116
 4683TIP3    H135464   0.888   2.682  15.996 -0.4557  0.6254 -0.4478
 4683TIP3    H235465   1.010   2.766  15.963  1.1894 -0.9794  1.3996
 4684TIP3   OH235466   2.204   1.864   4.956  0.0764  0.2758  0.0797
 4684TIP3    H135467   2.266   1.936   4.940  0.0941  0.6398  1.6969
 4684TIP3    H235468   2.118   1.903   4.941  0.2599 -0.8926 -4.7152
 4685TIP3   OH235469   1.214   5.493   3.100 -0.0755  0.4302  0.0161
 4685TIP3    H135470   1.244   5.521   3.187  1.3025 -0.7656 -0.0594
 4685TIP3    H235471   1.195   5.400   3.110 -3.9802  1.1348  0.0950
 4686TIP3   OH235472   3.695   0.631  14.728 -0.3136  0.2974 -0.8430
 4686TIP3    H135473   3.772   0.684  14.708  0.0311 -0.1821 -0.7805
 4686TIP3    H235474   3.682   0.577  14.650 -0.0507 -0.2677 -0.4909
 4687TIP3   OH235475   1.245   4.868  14.074 -0.0616  0.2873 -0.6975
 4687TIP3    H135476   1.181   4.859  14.003 -0.6604  0.8896 -0.2438
 4687TIP3    H235477   1.300   4.790  14.067 -0.5492 -0.0021 -1.3907
 4688TIP3   OH235478   0.611   6.194  14.946  0.1519  0.1365  0.1432
 4688TIP3    H135479   0.693   6.170  14.903 -0.2404 -0.4104 -0.3062
 4688TIP3    H235480   0.638   6.226  15.032  0.8548  0.1880 -0.0931
 4689TIP3   OH235481   5.687   0.538   5.011  0.6090 -0.5113  0.3396
 4689TIP3    H135482   5.680   0.483   4.933 -0.2616 -0.3852  0.3221
 4689TIP3    H235483   5.598   0.570   5.026  1.1845  1.2591  0.0871
 4690TIP3   OH235484   0.974   0.914  15.489  0.4495 -0.5812  0.1420
 4690TIP3    H135485   0.966   1.008  15.473  1.0311 -0.6438 -0.5096
 4690TIP3    H235486   0.883   0.883  15.496  0.2562  0.0011  0.2163
 4691TIP3   OH235487   2.908   4.672  16.721  0.4200 -0.9438 -0.1236
 4691TIP3    H135488   2.990   4.720  16.706  1.1569 -1.8204  0.9725
 4691TIP3    H235489   2.847   4.707  16.656  2.6974 -2.8833 -3.3928
 4692TIP3   OH235490   2.586   5.910   3.726  0.1821 -0.3787 -0.0280
 4692TIP3    H135491   2.624   5.988   3.768  1.3297 -0.9912  0.0992
 4692TIP3    H235492   2.595   5.841   3.792 -0.5256 -0.6939 -0.2660
 4693TIP3   OH235493   3.440   0.474  16.646  0.6466  0.3036  0.3985
 4693TIP3    H135494   3.402   0.538  16.706  0.3583  0.7351 -0.2459
 4693TIP3    H235495   3.374   0.462  16.578  0.5553 -0.9293  0.6873
 4694TIP3   OH235496   0.125   6.457  15.791 -0.1471  0.2204 -0.6630
 4694TIP3    H135497   0.114   6.529  15.728 -0.4114 -0.2072 -1.1113
 4694TIP3    H235498   0.211   6.421  15.771  0.4643  1.1217  0.3068
 4695TIP3   OH235499   2.528   2.853  14.152 -0.1354 -0.3362 -0.1782
 4695TIP3    H135500   2.581   2.841  14.074 -0.7975 -0.7286 -0.5767
 4695TIP3    H235501   2.583   2.905  14.211 -0.2966  1.4672 -1.5697
 4696TIP3   OH235502   3.056   0.892   1.366  0.4949 -0.2997  0.7173
 4696TIP3    H135503   2.969   0.884   1.405 -0.2044  3.4073  0.0834
 4696TIP3    H235504   3.040   0.903   1.272  1.5280  2.0085  0.7854
 4697TIP3   OH235505   5.782   1.537  14.204  0.4093  0.1499 -0.3640
 4697TIP3    H135506   5.783   1.553  14.298 -0.0521 -0.1739 -0.3011
 4697TIP3    H235507   5.692   1.557  14.177  0.1216 -1.2439 -0.4716
 4698TIP3   OH235508   0.709   5.779   0.456  0.1862  0.2435 -0.1077
 4698TIP3    H135509   0.699   5.762   0.362  0.8607 -1.1741  0.0781
 4698TIP3    H235510   0.796   5.818   0.464  0.0229  0.6119 -0.0899
 4699TIP3   OH235511   2.031   6.188   0.703 -0.2302 -0.0081 -0.0954
 4699TIP3    H135512   2.068   6.195   0.791  0.3606  0.8128 -0.4016
 4699TIP3    H235513   2.062   6.103   0.671 -0.7148 -0.4551  0.6058
 4700TIP3   OH235514   4.551   0.310  15.050 -0.6078  0.0264  0.3087
 4700TIP3    H135515   4.604   0.350  15.120 -2.0775 -0.9479  2.0332
 4700TIP3    H235516   4.559   0.370  14.976  0.7518  1.2392  1.4057
 4701TIP3   OH235517   0.115   1.966  16.512  0.1447 -0.4070  0.5565
 4701TIP3    H135518   0.190   1.922  16.552  0.4051 -0.2288  0.2661
 4701TIP3    H235519   0.108   1.929  16.424  1.0344  0.9062 -0.0798
 4702TIP3   OH235520   2.933   6.587   2.185 -0.2905 -1.1062 -0.3620
 4702TIP3    H135521   3.004   6.553   2.240  0.4592 -0.3048 -0.8136
 4702TIP3    H235522   2.950   6.550   2.098 -0.4527 -0.9516 -0.4608
 4703TIP3   OH235523   0.360   2.265  12.986  0.8676 -0.1079 -0.2661
 4703TIP3    H135524   0.380   2.326  13.058  1.9116 -0.7308 -0.0363
 4703TIP3    H235525   0.443   2.226  12.963  0.4713 -0.2106 -1.5727
 4704TIP3   OH235526   6.173   3.105  13.930  0.1660 -0.4770 -0.0268
 4704TIP3    H135527   6.235   3.168  13.893  1.0113 -1.6678 -0.6218
 4704TIP3    H235528   6.106   3.094  13.862  0.3537 -0.7069 -0.1746
 4705TIP3   OH235529   4.881   1.152  13.529  0.6488 -0.3674 -0.0518
 4705TIP3    H135530   4.956   1.108  13.489  1.8362  0.7267  0.9403
 4705TIP3    H235531   4.813   1.085  13.533  1.3091 -1.1743 -1.6396
 4706TIP3   OH235532   6.055   2.590  16.189 -0.3787  0.1639  0.3861
 4706TIP3    H135533   6.119   2.636  16.135 -2.4294  0.1692 -2.1150
 4706TIP3    H235534   6.083   2.498  16.188 -0.2229  0.2218 -0.4285
 4707TIP3   OH235535   6.660   3.902   4.970 -0.0248  0.0064 -0.3350
 4707TIP3    H135536   6.584   3.942   5.013  0.0544 -0.4805  0.2691
 4707TIP3    H235537   6.731   3.913   5.033  0.6176  1.2432 -1.2670
 4708TIP3   OH235538   1.190   3.454  11.472 -0.1439  0.1980  0.0316
 4708TIP3    H135539   1.213   3.529  11.418  2.6347  0.1597  1.0685
 4708TIP3    H235540   1.275   3.414  11.495 -1.4393 -1.7635  1.5751
 4709TIP3   OH235541   4.297   4.202  16.925 -0.6390  0.0330  0.0722
 4709TIP3    H135542   4.393   4.207  16.929 -0.7117  1.9921  0.1095
 4709TIP3    H235543   4.268   4.258  16.997 -1.8332 -1.8001  1.0561
 4710TIP3   OH235544   2.053   4.087   5.588 -0.1116  0.5194  0.8312
 4710TIP3    H135545   2.116   4.140   5.637  1.5332 -1.1810  0.5972
 4710TIP3    H235546   2.082   3.997   5.599 -2.1825 -0.2638  0.2302
 4711TIP3   OH235547   6.778   6.351  13.974  0.4202 -0.4746  0.2519
 4711TIP3    H135548   6.778   6.319  13.884 -0.1524 -1.6068  0.6563
 4711TIP3    H235549   6.728   6.287  14.023  0.8098  0.0859  1.4078
 4712TIP3   OH235550   3.854   2.241  13.935 -0.1441  0.5846 -0.6556
 4712TIP3    H135551   3.837   2.161  13.984  1.4803  0.2012 -0.6844
 4712TIP3    H235552   3.938   2.226  13.892 -0.1749  2.0178 -1.2638
 4713TIP3   OH235553   1.220   4.494  12.718  0.7879  0.1105 -0.7492
 4713TIP3    H135554   1.246   4.419  12.664 -0.1797 -0.4108 -0.4900
 4713TIP3    H235555   1.125   4.495  12.714  0.7729  1.0575 -0.3691
 4714TIP3   OH235556   1.078   3.034  11.642  0.1242  0.1371 -0.3942
 4714TIP3    H135557   1.149   3.009  11.701 -0.6619 -0.3800  0.3407
 4714TIP3    H235558   1.097   2.986  11.561  1.1280  0.7392 -0.5321
 4715TIP3   OH235559   1.999   0.907   5.125 -0.5505  0.0374 -0.0231
 4715TIP3    H135560   2.090   0.880   5.113 -0.3063  0.5058  0.7924
 4715TIP3    H235561   1.992   0.930   5.218 -1.5671 -0.2560 -0.0170
 4716TIP3   OH235562   3.395   0.557   5.628  0.0133 -0.0301  0.0114
 4716TIP3    H135563   3.457   0.630   5.618 -0.2803 -0.1838 -3.4206
 4716TIP3    H235564   3.327   0.592   5.685  0.4380  2.0274 -0.6856
 4717TIP3   OH235565   0.981   5.497   6.462 -0.3268  0.5534 -0.2101
 4717TIP3    H135566   1.016   5.557   6.397  0.1534  0.1572 -0.3158
 4717TIP3    H235567   0.950   5.421   6.412  0.1453  0.1990  0.0263
 4718TIP3   OH235568   6.342   1.509   3.328 -0.2874 -0.1046 -0.2019
 4718TIP3    H135569   6.434   1.533   3.333 -0.3423  0.4168 -1.4017
 4718TIP3    H235570   6.312   1.507   3.419  1.0369 -0.8417  0.2295
 4719TIP3   OH235571   6.435   2.785  14.304 -0.4821 -0.1893  0.5088
 4719TIP3    H135572   6.409   2.851  14.240  0.8019  0.1241  0.2903
 4719TIP3    H235573   6.527   2.767  14.283 -0.9559 -2.3858  0.2645
 4720TIP3   OH235574   2.291   4.337   1.644 -0.1831 -0.1348 -0.2736
 4720TIP3    H135575   2.202   4.310   1.624 -0.7260  1.6297 -0.3559
 4720TIP3    H235576   2.312   4.402   1.576  1.4587 -1.1335 -0.7390
 4721TIP3   OH235577   6.505   5.170  15.468  0.3460  0.1234 -0.1383
 4721TIP3    H135578   6.595   5.192  15.491  0.3241  1.3148 -1.1467
 4721TIP3    H235579   6.475   5.243  15.415 -2.2735  1.2923  2.8114
 4722TIP3   OH235580   3.622   5.840  16.373  0.2052  0.4634 -0.0326
 4722TIP3    H135581   3.666   5.755  16.369 -0.4540  0.1917 -1.6258
 4722TIP3    H235582   3.693   5.903  16.383  0.9234 -0.0478 -1.7124
 4723TIP3   OH235583   5.865   6.243  13.594 -0.2213  0.8347 -0.5688
 4723TIP3    H135584   5.915   6.283  13.666 -2.5386 -0.2984  1.7623
 4723TIP3    H235585   5.869   6.149  13.612 -3.2575  0.7134 -0.2174
 4724TIP3   OH235586   2.055   2.691  15.863 -0.0268  0.2612 -0.2439
 4724TIP3    H135587   2.043   2.741  15.944  1.0759  0.3016 -0.0914
 4724TIP3    H235588   2.118   2.623  15.886 -0.7244 -0.5679 -0.7264
 4725TIP3   OH235589   1.120   3.665  12.976 -0.4087  0.3705  0.2729
 4725TIP3    H135590   1.190   3.599  12.985  0.7602  1.0461 -2.8609
 4725TIP3    H235591   1.039   3.614  12.976  0.4682 -1.1316 -1.7958
 4726TIP3   OH235592   1.346   1.106   4.750 -0.5558 -0.1724  0.3317
 4726TIP3    H135593   1.376   1.172   4.688 -0.5287  0.2323  0.7659
 4726TIP3    H235594   1.425   1.078   4.796 -0.6408 -0.1203  0.5129
 4727TIP3   OH235595   2.930   2.133   3.643 -0.6211 -0.2316 -0.0215
 4727TIP3    H135596   3.000   2.075   3.672 -0.6728  0.3359  1.2534
 4727TIP3    H235597   2.949   2.149   3.550  0.3484 -0.9003  0.0563
 4728TIP3   OH235598   0.033   4.740  13.133  0.0772  0.4143 -0.4649
 4728TIP3    H135599   0.071   4.812  13.183  0.3819 -0.3770  0.4506
 4728TIP3    H235600  -0.025   4.696  13.194 -0.0063 -0.1987 -0.9781
 4729TIP3   OH235601   5.689   0.717   3.876 -0.1524  0.5666 -0.2265
 4729TIP3    H135602   5.712   0.681   3.962 -0.2708 -0.4676 -0.6231
 4729TIP3    H235603   5.740   0.797   3.869  0.1076  0.4802  0.6782
 4730TIP3   OH235604   0.230   1.865   6.405  0.0028 -0.4812 -0.5019
 4730TIP3    H135605   0.311   1.894   6.447  1.9299 -2.4243 -2.7621
 4730TIP3    H235606   0.200   1.940   6.355  0.1603  0.3695  0.6552
 4731TIP3   OH235607   0.964   5.063   3.257  0.5962  0.1290 -0.3147
 4731TIP3    H135608   0.942   5.061   3.350  0.0653  0.1567 -0.4391
 4731TIP3    H235609   1.057   5.088   3.255  0.6706 -0.1057  0.2134
 4732TIP3   OH235610   5.631   3.145  17.047  0.4061 -0.0216  0.0461
 4732TIP3    H135611   5.621   3.073  16.985  0.6799  0.1761 -0.2300
 4732TIP3    H235612   5.650   3.103  17.130 -0.8630 -0.3318  0.1918
 4733TIP3   OH235613   6.085   1.319  13.463 -0.3581 -0.0622  0.2677
 4733TIP3    H135614   6.068   1.371  13.542  0.4758  0.8047 -0.1119
 4733TIP3    H235615   6.163   1.269  13.484 -1.6529 -1.8386  0.9467
 4734TIP3   OH235616   4.269   2.422   1.981 -0.0344  0.4737 -0.0316
 4734TIP3    H135617   4.249   2.515   1.997 -0.0485  0.3094  0.9555
 4734TIP3    H235618   4.188   2.387   1.944 -1.1191  0.1544  2.5481
 4735TIP3   OH235619   6.418   2.352   4.134  0.3755  0.3667  0.0583
 4735TIP3    H135620   6.465   2.270   4.147 -0.9184 -0.3245  0.4718
 4735TIP3    H235621   6.329   2.325   4.110  0.1953  1.6437 -0.7891
 4736TIP3   OH235622   5.788   4.404  16.331 -0.0359  0.2473  0.2215
 4736TIP3    H135623   5.792   4.494  16.361 -0.6828  0.0383  0.9655
 4736TIP3    H235624   5.719   4.404  16.263 -0.6227  0.1572  0.8111
 4737TIP3   OH235625   0.186   5.485  10.615 -0.5480  0.0948 -0.3855
 4737TIP3    H135626   0.153   5.569  10.584 -0.8627  0.5330  1.0916
 4737TIP3    H235627   0.122   5.421  10.583 -0.4160  0.4300 -1.3416
 4738TIP3   OH235628   3.818   3.684   2.749 -0.0386  0.9782 -0.3132
 4738TIP3    H135629   3.895   3.632   2.771 -1.1201 -0.8426 -0.7518
 4738TIP3    H235630   3.771   3.695   2.832 -0.2248  0.5450 -0.3585
 4739TIP3   OH235631   0.731   0.138   1.931 -0.1517  0.1641 -0.3214
 4739TIP3    H135632   0.651   0.154   1.881 -1.3063 -0.5611  1.2673
 4739TIP3    H235633   0.788   0.212   1.910 -1.0924  0.4995 -1.7407
 4740TIP3   OH235634   1.025   4.305   0.643  0.1963  0.5215  0.2212
 4740TIP3    H135635   0.990   4.217   0.659 -0.1717  0.7332  0.5733
 4740TIP3    H235636   0.990   4.358   0.714 -0.4749  1.2084 -0.6192
 4741TIP3   OH235637   4.852   1.263   2.893 -0.0891  0.4427  0.3311
 4741TIP3    H135638   4.804   1.316   2.956  0.9450  1.4642  0.2880
 4741TIP3    H235639   4.791   1.250   2.821 -0.3412  1.6542  0.3117
 4742TIP3   OH235640   3.311   2.550   0.833 -0.2361 -0.6753  0.0432
 4742TIP3    H135641   3.399   2.517   0.853  0.3577  0.9250  0.1105
 4742TIP3    H235642   3.308   2.553   0.737  0.1265  0.1514  0.0522
 4743TIP3   OH235643   1.913   5.880  16.741 -0.1357  0.2327 -0.1766
 4743TIP3    H135644   1.981   5.841  16.795  1.4090  2.7525 -0.2119
 4743TIP3    H235645   1.863   5.934  16.801 -0.7634  0.0806 -0.5555
 4744TIP3   OH235646   3.420   4.627   1.808  0.4008  0.2217  0.1036
 4744TIP3    H135647   3.387   4.593   1.891  1.9240 -1.6118 -0.0212
 4744TIP3    H235648   3.497   4.678   1.833  0.0322  0.8634 -0.0541
 4745TIP3   OH235649   5.368   2.208  15.137  0.0542  0.6567  0.7421
 4745TIP3    H135650   5.452   2.191  15.094  0.9315 -0.7636  2.8802
 4745TIP3    H235651   5.357   2.303  15.133  0.9814  0.7112 -0.9521
 4746TIP3   OH235652   1.625   5.064   4.306 -0.4858  0.4704  0.6256
 4746TIP3    H135653   1.611   5.117   4.385 -0.6812  1.1235  0.1557
 4746TIP3    H235654   1.557   5.094   4.245  0.1683  0.5288 -0.0728
 4747TIP3   OH235655   4.184   4.579  15.646 -0.1451  0.6011 -0.3554
 4747TIP3    H135656   4.240   4.586  15.568 -2.1404 -1.2745 -2.0503
 4747TIP3    H235657   4.245   4.566  15.718  1.7700  2.3168 -1.5810
 4748TIP3   OH235658   3.398   6.352   4.543  0.5561  0.2097  0.0490
 4748TIP3    H135659   3.357   6.266   4.533 -1.1841  0.9192  0.7611
 4748TIP3    H235660   3.384   6.395   4.458  1.8685 -0.3810 -0.4741
 4749TIP3   OH235661   2.561   3.034   4.400  0.4610 -0.2044 -0.6521
 4749TIP3    H135662   2.505   3.102   4.365 -0.5986 -0.7950 -0.1177
 4749TIP3    H235663   2.647   3.076   4.410  0.2429  0.5549 -1.9356
 4750TIP3   OH235664   0.871   6.017  13.737  0.4937 -0.4910 -0.1857
 4750TIP3    H135665   0.903   6.058  13.657  0.7917 -1.3601 -0.5247
 4750TIP3    H235666   0.905   6.071  13.808 -1.6534  1.6130 -0.6792
 4751TIP3   OH235667   4.527   5.067   3.140  0.1532 -0.0833 -0.6671
 4751TIP3    H135668   4.492   5.078   3.052 -1.7196  0.2813  0.0902
 4751TIP3    H235669   4.581   4.988   3.135  0.9017  0.5174 -2.3669
 4752TIP3   OH235670   5.327   6.008  15.850 -0.2592 -0.4206  0.0986
 4752TIP3    H135671   5.387   6.061  15.903 -0.1874 -1.1895  0.7992
 4752TIP3    H235672   5.340   5.918  15.882  0.9113 -1.1363 -2.2892
 4753TIP3   OH235673   1.518   1.791   1.550 -0.2780  0.1573  0.1863
 4753TIP3    H135674   1.495   1.864   1.493  2.4070  0.8263 -0.1228
 4753TIP3    H235675   1.544   1.833   1.633 -0.3316 -0.5560  0.5695
 4754TIP3   OH235676   4.249   1.166  15.302 -0.5291  0.7594  0.6040
 4754TIP3    H135677   4.281   1.126  15.221 -1.1094 -0.3448  0.9105
 4754TIP3    H235678   4.175   1.112  15.328 -2.3630  2.9803  0.1775
 4755TIP3   OH235679   0.041   4.885   4.415  0.1513 -0.2576 -0.1462
 4755TIP3    H135680   0.063   4.928   4.332  0.8775 -1.3894 -0.5464
 4755TIP3    H235681  -0.049   4.856   4.404  0.5106 -1.1297 -0.8613
 4756TIP3   OH235682   4.132   0.801  16.793 -0.0349  0.3021 -0.8245
 4756TIP3    H135683   4.223   0.772  16.805 -0.2163  0.1031  0.0988
 4756TIP3    H235684   4.129   0.833  16.703  0.8485 -0.0780 -0.9974
 4757TIP3   OH235685   3.180   2.149   4.857  0.1428  0.1158  0.1137
 4757TIP3    H135686   3.274   2.157   4.837 -0.0733 -1.2092 -1.5676
 4757TIP3    H235687   3.138   2.212   4.799 -0.1507 -0.7458 -0.6330
 4758TIP3   OH235688   6.633   6.574  13.402  0.2493  0.3252 -0.4481
 4758TIP3    H135689   6.582   6.637  13.351 -1.0808 -0.1192  0.2918
 4758TIP3    H235690   6.572   6.544  13.470  1.4221 -0.4343  0.2864
 4759TIP3   OH235691   6.365   6.005   4.995  0.2245 -0.0590 -0.0179
 4759TIP3    H135692   6.450   6.038   5.023 -0.9532  2.8530  0.3611
 4759TIP3    H235693   6.327   5.967   5.073  1.4750 -2.0973 -0.3748
 4760TIP3   OH235694   3.222   4.914  14.620  0.1053 -0.2712  0.6020
 4760TIP3    H135695   3.232   4.851  14.548 -1.5065  0.7751 -0.5775
 4760TIP3    H235696   3.273   4.990  14.592 -1.3776  0.5408  0.0486
 4761TIP3   OH235697   1.710   1.128   5.933  0.4521 -0.0616 -0.0644
 4761TIP3    H135698   1.694   1.060   5.867  0.9956 -2.7669  2.4992
 4761TIP3    H235699   1.806   1.137   5.935  0.4284  0.1151  0.2503
 4762TIP3   OH235700   4.551   6.024   2.226  0.5188  0.2254 -0.3067
 4762TIP3    H135701   4.505   6.024   2.310  0.0496 -0.9667 -0.5520
 4762TIP3    H235702   4.527   5.941   2.185  0.6446  0.8432 -1.6769
 4763TIP3   OH235703   6.486   0.864  12.877 -0.1890 -0.1287 -0.3646
 4763TIP3    H135704   6.480   0.810  12.956 -1.2821 -0.9096 -0.9688
 4763TIP3    H235705   6.580   0.878  12.864  0.1211 -1.9908 -0.2637
 4764TIP3   OH235706   2.084   4.068  12.370  0.3818 -0.0904  0.3909
 4764TIP3    H135707   2.090   4.160  12.392  1.7978  0.2513 -1.2357
 4764TIP3    H235708   1.992   4.052  12.352  0.1186  0.9733  0.8056
 4765TIP3   OH235709   6.187   4.808  11.614 -0.0536 -0.2573 -0.1800
 4765TIP3    H135710   6.127   4.775  11.546 -0.5165  1.0135 -0.3985
 4765TIP3    H235711   6.274   4.791  11.579 -0.2862  0.5391 -1.1745
 4766TIP3   OH235712   6.748   0.630  14.520  0.3634  0.6504  0.0760
 4766TIP3    H135713   6.812   0.610  14.452 -0.5430 -1.1988 -0.2713
 4766TIP3    H235714   6.671   0.660  14.473 -0.4374 -1.1057  0.2290
 4767TIP3   OH235715   6.057   4.350  16.191  0.4319 -0.5391  0.2413
 4767TIP3    H135716   5.971   4.347  16.233 -0.4556 -0.8420 -1.5106
 4767TIP3    H235717   6.049   4.289  16.117  1.8590  0.1193 -0.4739
 4768TIP3   OH235718   5.973   5.156  16.341 -0.7056 -0.1144 -0.1870
 4768TIP3    H135719   6.038   5.190  16.279 -1.2712  1.2394 -0.0546
 4768TIP3    H235720   5.897   5.134  16.286 -0.8200  0.0828 -0.1098
 4769TIP3   OH235721   2.150   2.991  14.581  0.2816 -0.1236 -0.3735
 4769TIP3    H135722   2.205   2.977  14.505  1.2747  0.2190  0.2771
 4769TIP3    H235723   2.209   2.986  14.656 -0.7037 -0.6165  0.3914
 4770TIP3   OH235724   6.200   0.648   5.872  0.2585 -0.0462 -0.4672
 4770TIP3    H135725   6.167   0.658   5.961 -1.0094  0.0360 -0.9421
 4770TIP3    H235726   6.276   0.590   5.881  1.7400  2.0438  1.0078
 4771TIP3   OH235727   5.898   5.125  15.219 -0.1378  0.6373  0.3446
 4771TIP3    H135728   5.804   5.109  15.230  0.0611 -1.0918 -0.2783
 4771TIP3    H235729   5.933   5.131  15.307 -0.5434 -0.5296  0.5824
 4772TIP3   OH235730   3.312   6.282  11.666  0.3117 -0.2143 -0.0486
 4772TIP3    H135731   3.356   6.203  11.697 -0.0903 -0.7011 -0.6996
 4772TIP3    H235732   3.229   6.251  11.630  0.5550  0.3913 -1.1561
 4773TIP3   OH235733   5.204   2.491   0.881 -0.5580 -0.8330 -0.2559
 4773TIP3    H135734   5.277   2.537   0.922 -1.6752  2.0755 -1.3891
 4773TIP3    H235735   5.242   2.454   0.801 -0.1675  0.1635 -0.5466
 4774TIP3   OH235736   0.384   0.687   4.912  0.1307  0.2192 -0.0127
 4774TIP3    H135737   0.401   0.651   4.999  0.5564  0.5563  0.0447
 4774TIP3    H235738   0.359   0.611   4.860  1.7783 -0.3081 -0.0867
 4775TIP3   OH235739   4.579   2.549   4.217 -0.3930  0.3527 -0.4078
 4775TIP3    H135740   4.629   2.629   4.202  1.8542 -1.2159 -1.5604
 4775TIP3    H235741   4.602   2.523   4.306  1.7032 -0.9037 -1.2792
 4776TIP3   OH235742   0.321   3.633   2.459 -0.6209 -0.0952 -0.0379
 4776TIP3    H135743   0.321   3.708   2.519 -0.5501 -1.2558  1.4428
 4776TIP3    H235744   0.406   3.636   2.416 -0.4811  0.4650  0.2818
 4777TIP3   OH235745   1.564   4.288  10.671 -0.3968 -0.2216 -0.5129
 4777TIP3    H135746   1.528   4.238  10.597 -1.9025  1.5343 -1.0011
 4777TIP3    H235747   1.573   4.377  10.637  1.6883 -0.0115  0.5352
 4778TIP3   OH235748   2.342   5.734   3.071  0.0666 -0.5980 -0.2083
 4778TIP3    H135749   2.281   5.741   2.997 -1.0912 -0.2822  0.7572
 4778TIP3    H235750   2.309   5.797   3.135  2.5633  1.0272 -0.4561
 4779TIP3   OH235751   2.710   2.871  16.523 -0.1961  0.0879 -0.2381
 4779TIP3    H135752   2.677   2.852  16.611  0.0791  1.1165  0.0877
 4779TIP3    H235753   2.764   2.795  16.501 -0.7689 -0.4596  0.2277
 4780TIP3   OH235754   0.823   6.041  16.900  0.6130  0.1155  0.2035
 4780TIP3    H135755   0.805   6.134  16.892 -0.3930 -0.0692  0.2114
 4780TIP3    H235756   0.888   6.035  16.971 -1.0927  0.6288  1.8393
 4781TIP3   OH235757   1.585   5.756   0.088 -0.0167 -0.3203 -0.1567
 4781TIP3    H135758   1.607   5.763  -0.005 -0.5896  1.1802 -0.1888
 4781TIP3    H235759   1.573   5.847   0.117  1.1523 -0.7115  1.6261
 4782TIP3   OH235760   1.877   2.585  10.976 -0.2673  0.1686 -0.0310
 4782TIP3    H135761   1.969   2.581  10.951 -0.7187 -3.1532 -1.4129
 4782TIP3    H235762   1.845   2.496  10.965 -2.8098  0.4783  3.8362
 4783TIP3   OH235763   6.189   4.105  15.563 -0.5602  0.0623  0.3395
 4783TIP3    H135764   6.265   4.047  15.568  1.6085  2.7428 -0.5383
 4783TIP3    H235765   6.122   4.053  15.520  1.4807 -1.6340 -0.8808
 4784TIP3   OH235766   3.097   2.610   1.840  0.0909  0.2781  0.2104
 4784TIP3    H135767   3.147   2.528   1.837  0.3514  0.3329  2.2458
 4784TIP3    H235768   3.146   2.670   1.783  1.0256 -0.3706  0.3155
 4785TIP3   OH235769   1.942   4.058   1.434  0.9731  0.6785  0.1513
 4785TIP3    H135770   1.873   4.041   1.499  0.7373  0.5172 -0.1404
 4785TIP3    H235771   2.006   3.989   1.449 -0.6152 -1.3254 -1.9166
 4786TIP3   OH235772   1.926   3.309   4.451  0.2981 -0.1213  0.3796
 4786TIP3    H135773   1.852   3.362   4.480  0.6378  0.6487 -0.1524
 4786TIP3    H235774   1.932   3.239   4.517 -0.7843 -0.0922  0.5243
 4787TIP3   OH235775   2.604   0.080   4.016 -0.0718  0.1218 -0.1506
 4787TIP3    H135776   2.580   0.159   3.968 -0.5449  0.4957  0.7016
 4787TIP3    H235777   2.694   0.096   4.045 -0.3831  0.6119  0.5558
 4788TIP3   OH235778   2.484   4.518   1.580  0.1321 -0.1842 -0.4998
 4788TIP3    H135779   2.495   4.541   1.672 -1.9536  1.8005 -0.7049
 4788TIP3    H235780   2.436   4.592   1.542 -1.5010 -2.2282 -2.5597
 4789TIP3   OH235781   5.396   1.882   0.915 -0.0068  0.5216 -0.0875
 4789TIP3    H135782   5.371   1.876   0.823 -0.9147  0.0037  0.1848
 4789TIP3    H235783   5.323   1.842   0.963  0.1527  1.3731  0.8976
 4790TIP3   OH235784   0.063   3.799  14.362 -0.1554 -0.4077  0.8433
 4790TIP3    H135785   0.061   3.714  14.408 -0.6556 -0.7055  0.2867
 4790TIP3    H235786   0.071   3.864  14.432  1.3542 -0.9639  1.2077
 4791TIP3   OH235787   3.935   5.302   4.380 -0.7924 -0.0319 -0.1884
 4791TIP3    H135788   3.940   5.209   4.404 -0.6812 -0.1978 -0.8399
 4791TIP3    H235789   3.877   5.303   4.304 -0.3018  0.3696 -0.5522
 4792TIP3   OH235790   3.723   0.461  16.636  0.2098 -0.2064  0.8189
 4792TIP3    H135791   3.629   0.472  16.622  0.4255  3.2091  1.5088
 4792TIP3    H235792   3.731   0.419  16.721 -0.6666 -0.1368  0.9375
 4793TIP3   OH235793   3.294   0.391  12.210 -0.2736  0.1058  0.1330
 4793TIP3    H135794   3.307   0.475  12.167  0.4934  1.9458  3.8020
 4793TIP3    H235795   3.202   0.393  12.237  0.3827  0.9028  2.4214
 4794TIP3   OH235796   5.070   4.356   2.590  0.1424 -0.1499 -0.5641
 4794TIP3    H135797   5.155   4.313   2.583  0.1406 -0.1666 -0.4828
 4794TIP3    H235798   5.088   4.437   2.639  0.1250 -0.1181 -0.6109
 4795TIP3   OH235799   5.528   3.043  12.011  0.3575  0.3598 -0.0272
 4795TIP3    H135800   5.523   3.077  12.100  1.9712  1.1334 -0.2012
 4795TIP3    H235801   5.621   3.045  11.990  0.2592 -2.1396 -0.8567
 4796TIP3   OH235802   4.295   1.401  14.576  0.4865  0.6507  0.1909
 4796TIP3    H135803   4.370   1.443  14.617  1.7365 -2.2450  1.0302
 4796TIP3    H235804   4.237   1.379  14.649 -1.0231  2.5258 -0.4134
 4797TIP3   OH235805   0.078   1.658  15.914  0.0973 -0.3133  0.5997
 4797TIP3    H135806   0.003   1.717  15.901 -0.9571 -1.2145  2.4113
 4797TIP3    H235807   0.077   1.639  16.008  2.1756 -0.9249  0.5206
 4798TIP3   OH235808   0.614   3.133   4.489 -0.1381  0.7252 -0.1273
 4798TIP3    H135809   0.547   3.134   4.557 -1.3920  3.0850 -1.3191
 4798TIP3    H235810   0.613   3.222   4.453  3.7688  0.8865 -0.0661
 4799TIP3   OH235811   3.287   4.715   0.679  0.3862  0.1445 -0.3223
 4799TIP3    H135812   3.232   4.641   0.655  1.6599 -0.5771 -1.0816
 4799TIP3    H235813   3.355   4.718   0.611  1.7146  0.5524  0.9862
 4800TIP3   OH235814   1.697   2.963  13.028  0.3026 -0.1513  0.3169
 4800TIP3    H135815   1.765   3.030  13.026  0.1128  0.0214 -1.0701
 4800TIP3    H235816   1.743   2.882  13.004  0.0649 -0.0521 -0.5160
 4801TIP3   OH235817   4.434   0.469  14.549 -0.2053  0.0515  0.8313
 4801TIP3    H135818   4.514   0.424  14.523 -0.7994  0.6016 -2.0779
 4801TIP3    H235819   4.370   0.399  14.561 -0.7528 -0.0732 -2.3251
 4802TIP3   OH235820   4.075   4.237  12.148 -0.5384 -0.3112  0.1831
 4802TIP3    H135821   4.090   4.267  12.059 -1.5382  0.3925  0.2412
 4802TIP3    H235822   3.999   4.288  12.178 -1.0544 -1.5059  0.9563
 4803TIP3   OH235823   4.263   4.100   1.632 -0.3363  0.0205  0.0081
 4803TIP3    H135824   4.222   4.028   1.585 -0.4445  0.1009 -0.0210
 4803TIP3    H235825   4.232   4.179   1.587 -0.6180  0.1091  0.3509
 4804TIP3   OH235826   1.548   2.437  11.132  0.5347 -0.3871 -0.0718
 4804TIP3    H135827   1.483   2.497  11.095  0.6734 -0.8672 -1.1140
 4804TIP3    H235828   1.621   2.439  11.070  0.4666 -1.7571 -0.2026
 4805TIP3   OH235829   1.045   5.654  12.613  0.0557  0.3079 -0.3010
 4805TIP3    H135830   0.965   5.698  12.640 -0.2017  0.1877 -0.8620
 4805TIP3    H235831   1.016   5.570  12.578  0.5571 -0.3997  0.9306
 4806TIP3   OH235832   4.710   3.586   4.261 -0.2456 -0.1318  0.3727
 4806TIP3    H135833   4.698   3.537   4.180 -2.0105  2.3216 -0.9322
 4806TIP3    H235834   4.805   3.586   4.276  0.1316 -0.3466 -1.8596
 4807TIP3   OH235835   0.134   4.130   5.413 -0.3348 -0.3699 -0.1211
 4807TIP3    H135836   0.179   4.214   5.401 -0.1705 -0.3047  0.9369
 4807TIP3    H235837   0.042   4.150   5.396 -0.1984 -0.1306 -0.5891
 4808TIP3   OH235838   6.405   6.347  14.147 -0.0771 -0.3531  0.1035
 4808TIP3    H135839   6.363   6.281  14.202  0.6616 -0.4526  0.5486
 4808TIP3    H235840   6.473   6.300  14.100 -0.5863 -0.2281 -0.7653
 4809TIP3   OH235841   6.685   6.301  15.736  0.2952 -0.1624 -0.0991
 4809TIP3    H135842   6.769   6.339  15.759  0.2695  0.0895 -0.4245
 4809TIP3    H235843   6.664   6.244  15.810 -0.8209  2.3035  1.5597
 4810TIP3   OH235844   6.334   4.556  12.269 -0.7157  0.0539 -0.4972
 4810TIP3    H135845   6.260   4.517  12.221  0.5443 -0.4341 -2.0746
 4810TIP3    H235846   6.347   4.641  12.229 -0.8929  0.4564  0.2861
 4811TIP3   OH235847   0.724   0.343  16.837 -0.0229 -0.5522  0.2801
 4811TIP3    H135848   0.724   0.335  16.933 -0.0533 -0.7655  0.2620
 4811TIP3    H235849   0.635   0.370  16.815 -0.2093 -1.1798  0.2562
 4812TIP3   OH235850   0.673   2.935  12.342 -0.1325  0.6002 -0.2841
 4812TIP3    H135851   0.708   3.008  12.291 -1.4229 -0.1271 -2.2955
 4812TIP3    H235852   0.669   2.862  12.279  0.2147 -0.9315  1.4202
 4813TIP3   OH235853   1.729   6.284  11.606 -0.1671  0.2541  0.1480
 4813TIP3    H135854   1.719   6.247  11.519 -0.3901 -0.3138  0.4123
 4813TIP3    H235855   1.798   6.349  11.597  1.4325 -1.4273  0.0374
 4814TIP3   OH235856   5.950   2.243   6.617  0.1622  0.2355  0.4456
 4814TIP3    H135857   6.024   2.202   6.663  0.9062  0.2142 -0.7374
 4814TIP3    H235858   5.873   2.204   6.657  0.7742  0.4557  1.8921
 4815TIP3   OH235859   4.332   0.654  12.654 -0.0400  0.5553 -0.5681
 4815TIP3    H135860   4.259   0.661  12.715  0.3091  1.1475 -0.2180
 4815TIP3    H235861   4.304   0.706  12.578 -0.7229 -0.6600 -1.1685
 4816TIP3   OH235862   1.129   3.086  13.718 -0.8962 -0.1088  0.0236
 4816TIP3    H135863   1.133   3.169  13.765  0.7412 -1.2105  1.9157
 4816TIP3    H235864   1.219   3.052  13.721 -1.6401 -2.1813 -0.2538
 4817TIP3   OH235865   3.776   1.730  11.223  0.4043 -0.2139  0.2874
 4817TIP3    H135866   3.686   1.703  11.211  0.4881 -1.2944  2.0523
 4817TIP3    H235867   3.818   1.714  11.138 -1.6155  2.6924 -1.3604
 4818TIP3   OH235868   3.699   1.158   5.067  0.1963 -0.4053  0.1376
 4818TIP3    H135869   3.609   1.180   5.091  0.2530  0.0675 -0.0729
 4818TIP3    H235870   3.697   1.156   4.971 -0.3100 -3.4379  0.1524
 4819TIP3   OH235871   3.466   3.212   1.179  0.2749  0.0665  0.3453
 4819TIP3    H135872   3.490   3.288   1.232  0.0517 -0.6449  1.4651
 4819TIP3    H235873   3.540   3.201   1.119  0.6182  0.7514  0.6309
 4820TIP3   OH235874   3.565   6.621  12.958 -0.0054  0.2245 -0.8172
 4820TIP3    H135875   3.564   6.609  12.863 -0.2803 -0.8701 -0.6850
 4820TIP3    H235876   3.508   6.552  12.992 -0.1038  0.7526  0.1327
 4821TIP3   OH235877   6.173   2.890  14.831 -0.0651 -0.5997  0.0040
 4821TIP3    H135878   6.149   2.800  14.813 -0.2085 -0.3065 -1.3424
 4821TIP3    H235879   6.104   2.942  14.790 -0.1198  0.1217  0.9858
 4822TIP3   OH235880   6.623   0.815  16.883 -0.0527 -0.6447 -0.3285
 4822TIP3    H135881   6.616   0.858  16.798 -0.7204 -1.1013 -0.5139
 4822TIP3    H235882   6.696   0.753  16.872  0.1878 -0.3500 -0.4091
 4823TIP3   OH235883   6.351   5.012   5.242  0.1753  0.6517 -0.2801
 4823TIP3    H135884   6.281   4.961   5.282  0.8825  1.9218  2.7048
 4823TIP3    H235885   6.418   4.948   5.219  0.2576  0.0256  1.6909
 4824TIP3   OH235886   0.325   1.747   4.787  0.0267 -0.3293 -0.0837
 4824TIP3    H135887   0.350   1.660   4.818 -0.5037 -0.2540  0.5637
 4824TIP3    H235888   0.230   1.752   4.803  0.1961  0.6808  0.6690
 4825TIP3   OH235889   2.529   0.678  14.560  0.4753 -0.4557 -0.2714
 4825TIP3    H135890   2.533   0.621  14.484 -0.6346  0.8406 -1.3178
 4825TIP3    H235891   2.532   0.618  14.635 -0.3851 -1.8657 -1.3367
 4826TIP3   OH235892   4.447   0.316   5.583 -0.8040  0.6051 -0.4826
 4826TIP3    H135893   4.407   0.247   5.636  1.3954 -0.9027 -0.6992
 4826TIP3    H235894   4.539   0.317   5.610 -0.2616  1.7532 -2.2637
 4827TIP3   OH235895   2.241   3.765   0.860 -0.1545  0.8981  0.0402
 4827TIP3    H135896   2.158   3.785   0.816 -0.5157  2.3783  1.3818
 4827TIP3    H235897   2.308   3.806   0.804 -0.6416  3.1038  1.0357
 4828TIP3   OH235898   6.586   1.300   1.074 -0.1376  0.2995 -0.1737
 4828TIP3    H135899   6.660   1.290   1.134  0.4695 -0.3806 -1.0284
 4828TIP3    H235900   6.624   1.337   0.995 -0.9801  1.4267 -0.0742
 4829TIP3   OH235901   0.256   2.241  11.477  0.0194 -0.3021 -0.9247
 4829TIP3    H135902   0.303   2.164  11.510 -0.9923 -0.1933  0.8132
 4829TIP3    H235903   0.319   2.312  11.485 -0.6374  0.0015  2.1513
 4830TIP3   OH235904   0.372   0.008   5.717 -0.1504  0.5304 -0.1258
 4830TIP3    H135905   0.390  -0.007   5.624  0.5369 -1.6118  0.3226
 4830TIP3    H235906   0.394   0.100   5.731  0.7148  0.6096 -1.8545
 4831TIP3   OH235907   5.082   1.669   4.586 -0.1184 -0.0634 -0.0102
 4831TIP3    H135908   5.168   1.633   4.611  0.1169  1.4749  1.4633
 4831TIP3    H235909   5.049   1.607   4.521  1.8813 -0.9644 -0.2252
 4832TIP3   OH235910   4.855   0.667   4.679  0.1506 -0.1672 -0.4889
 4832TIP3    H135911   4.849   0.720   4.758 -0.5103  0.2255 -0.7986
 4832TIP3    H235912   4.773   0.683   4.632 -0.1720 -1.6429 -0.4727
 4833TIP3   OH235913   3.059   2.756   3.615 -0.2989 -0.0860  0.2412
 4833TIP3    H135914   3.018   2.716   3.538 -1.5556  0.0845  0.8157
 4833TIP3    H235915   3.095   2.839   3.583 -0.2113 -0.3305 -0.3098
 4834TIP3   OH235916   4.028   3.154  13.276 -0.1493  0.1686  0.1506
 4834TIP3    H135917   4.121   3.140  13.295 -0.0773  0.2239 -0.1544
 4834TIP3    H235918   3.992   3.188  13.358 -0.1155 -0.8295  0.5841
 4835TIP3   OH235919   6.631   2.565  17.189 -0.1935 -0.1698  0.1252
 4835TIP3    H135920   6.632   2.656  17.216  0.7010  0.4838 -1.9624
 4835TIP3    H235921   6.710   2.555  17.136  0.3953 -2.4886  1.3453
 4836TIP3   OH235922   5.225   4.543  15.747  0.1665 -0.4036  0.5988
 4836TIP3    H135923   5.297   4.563  15.688  1.1782  1.6157  2.4271
 4836TIP3    H235924   5.262   4.481  15.810 -0.3905 -1.1725  0.1780
 4837TIP3   OH235925   3.114   2.309   4.624 -0.1562 -0.2717 -0.1668
 4837TIP3    H135926   3.053   2.379   4.647 -1.2169 -1.0166 -0.7148
 4837TIP3    H235927   3.095   2.290   4.532  0.2186 -1.1913 -0.0576
 4838TIP3   OH235928   6.040   0.926  13.892 -0.4253  0.3000  0.0720
 4838TIP3    H135929   5.991   0.852  13.856 -1.8967  2.0560 -1.6156
 4838TIP3    H235930   6.034   0.994  13.826  0.8201  2.0056  1.6472
 4839TIP3   OH235931   6.127   2.971   3.450 -0.2445 -0.2545 -0.5907
 4839TIP3    H135932   6.180   3.051   3.439  0.2235 -0.3511  0.7529
 4839TIP3    H235933   6.079   2.962   3.368  3.3690 -1.3066 -2.7125
 4840TIP3   OH235934   3.497   5.316  11.117 -0.0750  0.4414 -0.3600
 4840TIP3    H135935   3.407   5.282  11.119  0.1165 -0.0420  0.8157
 4840TIP3    H235936   3.530   5.299  11.205  1.9675 -1.5363 -1.4548
 4841TIP3   OH235937   4.212   0.311   5.783 -0.5122  0.3056 -0.4686
 4841TIP3    H135938   4.219   0.216   5.796 -0.1817  0.5212  1.0436
 4841TIP3    H235939   4.121   0.332   5.804 -0.5030  0.3731 -0.4951
 4842TIP3   OH235940   5.069   3.236   6.403 -0.4218  0.0677  0.3965
 4842TIP3    H135941   5.034   3.291   6.333 -0.2298 -0.3573 -0.0369
 4842TIP3    H235942   4.998   3.230   6.466 -1.0184 -0.5282 -0.3285
 4843TIP3   OH235943   3.042   6.240  15.763 -0.7185  0.2842  0.1246
 4843TIP3    H135944   3.033   6.201  15.850  0.8413  0.7493  0.5118
 4843TIP3    H235945   2.976   6.195  15.710 -1.7260  0.0314  1.5432
 4844TIP3   OH235946   2.366   5.153  11.541  0.0294  0.4310  0.3866
 4844TIP3    H135947   2.309   5.086  11.579 -0.8066  1.3470  0.7438
 4844TIP3    H235948   2.446   5.105  11.517 -0.8299 -0.8249 -0.0086
 4845TIP3   OH235949   2.960   1.806   2.714  0.2306 -0.0456  0.5234
 4845TIP3    H135950   2.990   1.823   2.625  1.2515  1.7624  1.1901
 4845TIP3    H235951   2.950   1.711   2.719 -2.4553  0.0303 -2.3338
 4846TIP3   OH235952   4.634   5.072  14.257  0.4108  0.4494 -0.2277
 4846TIP3    H135953   4.658   5.091  14.166  0.5687  0.3357 -0.2094
 4846TIP3    H235954   4.718   5.059  14.302  0.2795 -3.1698 -0.8641
 4847TIP3   OH235955   5.981   6.633  13.946 -0.3050  0.0224 -0.9829
 4847TIP3    H135956   6.009   6.696  13.880 -0.5947  0.5557 -0.5988
 4847TIP3    H235957   6.032   6.656  14.024 -1.2736  0.5303 -0.4940
 4848TIP3   OH235958   3.457   3.488  13.116 -0.3270 -0.6250  0.3231
 4848TIP3    H135959   3.463   3.393  13.119  3.9940 -0.4581  1.0664
 4848TIP3    H235960   3.513   3.514  13.043 -1.6313  1.3593 -0.0353
 4849TIP3   OH235961   4.615   4.599   4.013 -0.2247 -0.3560 -0.0965
 4849TIP3    H135962   4.655   4.664   3.955 -0.6134  0.6329  0.7359
 4849TIP3    H235963   4.690   4.559   4.058 -0.0297  0.0290 -0.0750
 4850TIP3   OH235964   2.652   0.374  11.398  0.1744  0.0933 -0.7396
 4850TIP3    H135965   2.681   0.336  11.315  2.2325  3.1213 -1.4607
 4850TIP3    H235966   2.557   0.383  11.388  0.2992 -0.2805 -2.4395
 4851TIP3   OH235967   6.520   4.200  12.988 -0.5807  0.1730 -0.1375
 4851TIP3    H135968   6.559   4.210  13.074 -0.8645  1.6572 -0.1663
 4851TIP3    H235969   6.592   4.173  12.932 -0.1002  0.5220  0.3043
 4852TIP3   OH235970   4.661   1.334   0.297 -0.1489 -0.4960  0.2743
 4852TIP3    H135971   4.718   1.360   0.225 -1.0262  0.4334 -0.0935
 4852TIP3    H235972   4.708   1.364   0.376 -0.8229  1.6794 -0.0999
 4853TIP3   OH235973   3.533   3.867  16.545  0.0262  0.2500  0.3932
 4853TIP3    H135974   3.558   3.919  16.469 -1.5458  1.1222  0.4441
 4853TIP3    H235975   3.460   3.814  16.514 -0.7552  0.7556  1.3304
 4854TIP3   OH235976   6.316   5.909  11.925 -0.7376  0.2172 -0.4769
 4854TIP3    H135977   6.314   6.005  11.920 -0.0923  0.2541 -0.0217
 4854TIP3    H235978   6.378   5.883  11.858 -0.5175  0.1418 -0.2421
 4855TIP3   OH235979   0.476   0.270   4.839  0.0967  0.1746  0.5646
 4855TIP3    H135980   0.545   0.255   4.774  1.3248 -2.6139  2.4365
 4855TIP3    H235981   0.400   0.298   4.788  1.5744 -0.1731 -1.8771
 4856TIP3   OH235982   5.073   0.235   0.932  0.5676 -0.5032  0.7159
 4856TIP3    H135983   5.093   0.267   1.020  2.0153 -0.8226  0.5055
 4856TIP3    H235984   4.988   0.192   0.942 -0.9391  2.4561  1.2208
 4857TIP3   OH235985   1.735   1.087   5.280  0.1857 -0.1243 -0.7439
 4857TIP3    H135986   1.706   1.050   5.197  1.8707 -0.9884 -0.9590
 4857TIP3    H235987   1.822   1.050   5.294  0.5129  1.1425  0.6935
 4858TIP3   OH235988   1.622   4.029  14.608 -0.2351  0.4698 -0.3104
 4858TIP3    H135989   1.686   4.014  14.538  0.4980 -1.6266  0.7593
 4858TIP3    H235990   1.537   4.025  14.564  0.1399 -2.6062 -0.8316
 4859TIP3   OH235991   1.837   0.979   3.525 -0.2123  0.0517 -0.5087
 4859TIP3    H135992   1.767   1.007   3.467 -0.4083 -0.8067 -0.6762
 4859TIP3    H235993   1.833   0.884   3.526 -0.3256  0.0523  1.0563
 4860TIP3   OH235994   2.872   1.533   2.711 -0.4008 -0.0631  0.1422
 4860TIP3    H135995   2.961   1.500   2.693 -1.1033 -1.3035 -1.1242
 4860TIP3    H235996   2.820   1.454   2.723 -1.6590  0.6271 -0.7145
 4861TIP3   OH235997   5.886   3.895   5.408  0.5274  0.7544  0.4122
 4861TIP3    H135998   5.917   3.955   5.341  0.2565  0.1026 -0.2987
 4861TIP3    H235999   5.905   3.940   5.491  1.5401  1.2235 -0.0708
 4862TIP3   OH236000   4.237   2.169   2.175 -0.3596 -0.4537  0.8851
 4862TIP3    H136001   4.198   2.108   2.238  0.8604 -0.2211  1.8940
 4862TIP3    H236002   4.248   2.251   2.225  1.4624 -0.5426  0.6626
 4863TIP3   OH236003   0.129   5.058  16.907 -0.2098  0.2092 -0.1050
 4863TIP3    H136004   0.116   5.042  17.001  0.3069 -1.7099 -0.3432
 4863TIP3    H236005   0.085   5.141  16.891 -0.8841  0.2321  1.7071
 4864TIP3   OH236006   0.442   1.975   6.552  0.4916 -0.2376  0.2064
 4864TIP3    H136007   0.427   1.971   6.647  2.6718 -0.8991  0.5561
 4864TIP3    H236008   0.438   2.068   6.532  0.1881 -0.0758  0.9773
 4865TIP3   OH236009   5.000   3.706   5.189 -0.1112 -0.1468  0.3060
 4865TIP3    H136010   5.004   3.615   5.158 -0.2911 -0.0230 -0.0789
 4865TIP3    H236011   5.092   3.732   5.197 -0.0627  0.2518 -1.3960
 4866TIP3   OH236012   4.386   3.529  11.482 -0.0456  0.2535 -0.3099
 4866TIP3    H136013   4.443   3.454  11.464 -0.8565 -0.6630  0.8532
 4866TIP3    H236014   4.374   3.528  11.577 -0.0108  1.9098 -0.2750
 4867TIP3   OH236015   6.310   3.258  13.738 -0.3615 -0.2253  0.3539
 4867TIP3    H136016   6.396   3.217  13.733  0.0839  0.8304 -0.9559
 4867TIP3    H236017   6.328   3.349  13.763 -1.0588  0.0608 -0.1386
 4868TIP3   OH236018   0.485   4.601  13.499 -0.0040 -0.2746 -0.2492
 4868TIP3    H136019   0.472   4.606  13.404 -0.7460  1.2578 -0.0854
 4868TIP3    H236020   0.509   4.690  13.525  1.3174 -0.9406  0.8558
 4869TIP3   OH236021   3.612   2.498   0.804 -0.2010 -0.0630 -0.4102
 4869TIP3    H136022   3.652   2.429   0.751 -0.9756  1.5545 -3.2173
 4869TIP3    H236023   3.628   2.578   0.754 -2.3645  1.2953  1.0291
 4870TIP3   OH236024   6.676   6.751   5.915 -0.1276 -0.8678 -0.1318
 4870TIP3    H136025   6.744   6.708   5.865  0.3158 -1.7164  1.1752
 4870TIP3    H236026   6.723   6.795   5.986 -0.6976  0.7043 -0.6925
 4871TIP3   OH236027   6.717   1.736   0.029 -0.0775 -0.5757  0.1988
 4871TIP3    H136028   6.721   1.757  -0.064  0.6493 -1.1821  0.0825
 4871TIP3    H236029   6.632   1.768   0.058 -0.0143  0.2562 -0.5162
 4872TIP3   OH236030   2.231   2.514   3.449 -0.4030 -0.4539  0.1402
 4872TIP3    H136031   2.279   2.436   3.477 -0.3657 -0.3040  0.5024
 4872TIP3    H236032   2.176   2.484   3.377 -0.5154 -0.8576  0.3910
 4873TIP3   OH236033   6.046   0.934   0.151 -0.2398  0.2583  0.2255
 4873TIP3    H136034   5.976   0.963   0.210  0.8401  1.6093  0.8926
 4873TIP3    H236035   6.111   0.893   0.209  0.2300  0.4210 -0.1752
 4874TIP3   OH236036   4.666   6.341   3.611 -1.1028  0.2584  0.3744
 4874TIP3    H136037   4.703   6.257   3.637 -0.6610 -0.7266 -3.1098
 4874TIP3    H236038   4.576   6.322   3.587 -0.8998  0.6464 -0.7732
 4875TIP3   OH236039   2.623   3.855  14.338 -0.2231 -0.3820 -0.0087
 4875TIP3    H136040   2.646   3.932  14.390  0.4357 -0.2493 -0.4970
 4875TIP3    H236041   2.533   3.871  14.310  0.0025  0.3342 -0.3339
 4876TIP3   OH236042   6.525   0.853   1.774  0.4468  0.5047 -0.0538
 4876TIP3    H136043   6.578   0.904   1.712 -0.1745  0.9597 -0.2238
 4876TIP3    H236044   6.465   0.803   1.718  2.0217 -1.5236  0.0562
 4877TIP3   OH236045   1.276   1.555  14.234  0.2529 -0.3636 -0.0781
 4877TIP3    H136046   1.303   1.601  14.314 -1.0376 -0.7027  0.5665
 4877TIP3    H236047   1.341   1.580  14.169 -0.3228  2.2107  0.3128
 4878TIP3   OH236048   3.870   3.871   5.655  0.9646  0.0008 -0.4082
 4878TIP3    H136049   3.782   3.909   5.647  0.3237 -1.4401 -0.2803
 4878TIP3    H236050   3.926   3.932   5.608 -0.1983  0.6269 -1.0064
 4879TIP3   OH236051   2.733   5.458   2.629 -0.2803  0.0583  0.4849
 4879TIP3    H136052   2.663   5.439   2.691 -0.8076  0.2736 -0.0372
 4879TIP3    H236053   2.770   5.541   2.659 -0.1238 -0.1469  0.8667
 4880TIP3   OH236054   3.657   6.076   0.515  0.3115  0.0742  0.5527
 4880TIP3    H136055   3.584   6.083   0.577  0.0786 -0.4307  0.3395
 4880TIP3    H236056   3.668   6.165   0.482 -1.0202 -0.0721 -0.3278
 4881TIP3   OH236057   6.009   0.588  13.496 -0.0603  0.6077  0.2963
 4881TIP3    H136058   5.987   0.610  13.405 -1.1697  3.9215  1.2800
 4881TIP3    H236059   6.091   0.539  13.489 -0.4181  0.2974 -2.5151
 4882TIP3   OH236060   1.010   2.443   3.403  0.3859  0.0522 -0.2587
 4882TIP3    H136061   0.964   2.480   3.478  0.9928  0.5223 -0.1144
 4882TIP3    H236062   1.083   2.502   3.388  0.8038 -0.5520 -0.6382
 4883TIP3   OH236063   0.749   3.411  14.655 -0.1852  0.0069 -0.1260
 4883TIP3    H136064   0.843   3.409  14.634  0.6776 -0.1863  3.5416
 4883TIP3    H236065   0.733   3.329  14.701 -1.5870  1.1994  1.5671
 4884TIP3   OH236066   1.989   1.622   3.250  0.3746 -0.2112 -0.2996
 4884TIP3    H136067   1.940   1.547   3.285  2.1712 -0.8551  0.9197
 4884TIP3    H236068   2.037   1.657   3.326  0.6199  1.3421 -1.1457
 4885TIP3   OH236069   3.212   4.887   2.790  0.2470  0.4351 -0.5174
 4885TIP3    H136070   3.136   4.921   2.742  0.4451  0.7189 -0.6315
 4885TIP3    H236071   3.239   4.810   2.740 -1.6748 -1.3424  1.0654
 4886TIP3   OH236072   6.780   1.500  12.130 -0.3265 -0.0881  0.2958
 4886TIP3    H136073   6.698   1.466  12.096 -0.2606 -0.6511  0.6932
 4886TIP3    H236074   6.799   1.577  12.076 -0.3349 -0.8359 -0.7963
 4887TIP3   OH236075   1.872   1.469   0.686  0.5041 -0.3313  0.5977
 4887TIP3    H136076   1.796   1.526   0.670  0.5957  0.1110  1.6743
 4887TIP3    H236077   1.933   1.524   0.735  1.8307 -0.4701 -0.8502
 4888TIP3   OH236078   4.877   3.028   4.668 -0.1592 -0.2107  0.3457
 4888TIP3    H136079   4.902   2.965   4.600 -1.4310 -0.8154  0.4208
 4888TIP3    H236080   4.939   3.012   4.739  2.1849  1.4889 -1.2390
 4889TIP3   OH236081   3.120   5.969  13.853  0.3383  0.7695  0.6853
 4889TIP3    H136082   3.123   5.888  13.904  0.5337  1.3928  1.6646
 4889TIP3    H236083   3.202   6.014  13.875 -0.1494  1.6171  0.7833
 4890TIP3   OH236084   3.792   5.676   4.616 -0.5162 -0.4296 -0.3630
 4890TIP3    H136085   3.766   5.586   4.634 -0.1504 -0.9395 -2.3492
 4890TIP3    H236086   3.754   5.696   4.531  1.3174  0.5241 -0.9830
 4891TIP3   OH236087   3.982   2.622   5.307 -0.5211  0.0569  0.2151
 4891TIP3    H136088   4.014   2.555   5.246 -0.9761 -0.6412  0.7501
 4891TIP3    H236089   3.901   2.587   5.343  0.5312 -0.2150  2.3955
 4892TIP3   OH236090   3.699   5.002   5.286 -0.3690  0.1856  0.5876
 4892TIP3    H136091   3.772   4.982   5.228 -1.9349 -0.7285 -1.1244
 4892TIP3    H236092   3.732   4.983   5.374  1.1871 -0.9637 -0.2253
 4893TIP3   OH236093   2.353   5.934   2.776  0.3511  0.6402  0.0505
 4893TIP3    H136094   2.339   6.024   2.747  0.3998  0.4323 -0.6172
 4893TIP3    H236095   2.279   5.917   2.835  1.4924  1.8323  1.8904
 4894TIP3   OH236096   4.740   0.350   5.618  0.4000  0.2500  0.3085
 4894TIP3    H136097   4.828   0.387   5.608  0.9184 -0.9058  0.4675
 4894TIP3    H236098   4.751   0.257   5.596 -1.0820  0.3932 -1.0966
 4895TIP3   OH236099   3.853   2.207   1.309 -0.0588  0.0505  0.1689
 4895TIP3    H136100   3.943   2.236   1.293 -0.5886  0.3020 -2.5263
 4895TIP3    H236101   3.840   2.222   1.403  1.2485  4.2020 -0.1987
 4896TIP3   OH236102   4.255   3.214  11.804  0.4152  0.1166 -0.4586
 4896TIP3    H136103   4.183   3.243  11.861 -0.2392 -1.3567 -0.5167
 4896TIP3    H236104   4.318   3.286  11.808 -0.5895  0.9820  0.4203
 4897TIP3   OH236105   3.385   4.137  13.217 -0.0212  0.7873 -0.1045
 4897TIP3    H136106   3.431   4.173  13.293  2.1818  2.7526 -2.2662
 4897TIP3    H236107   3.438   4.061  13.191  0.1808  1.1084 -0.6474
 4898TIP3   OH236108   4.809   3.767  11.918  0.1013 -0.2562 -0.3396
 4898TIP3    H136109   4.884   3.732  11.870  0.2076 -0.3152 -0.1324
 4898TIP3    H236110   4.766   3.689  11.955  1.3718 -0.0336  1.6354
 4899TIP3   OH236111   3.543   2.139  13.952  0.0674  0.0367 -0.3438
 4899TIP3    H136112   3.623   2.090  13.970  0.0449 -0.0899 -0.5806
 4899TIP3    H236113   3.570   2.230  13.947 -0.1617  0.2736  1.8859
 4900TIP3   OH236114   1.879   3.383  12.818  0.0395  0.8220 -0.2858
 4900TIP3    H136115   1.915   3.406  12.903  0.4249 -0.4174 -0.0928
 4900TIP3    H236116   1.856   3.466  12.777  0.4916  1.4573  0.7512
 4901TIP3   OH236117   0.442   3.753  15.109 -0.4936  0.4869 -0.2690
 4901TIP3    H136118   0.390   3.688  15.156  0.9431 -1.0409 -0.7249
 4901TIP3    H236119   0.532   3.728  15.126  0.0730  1.8849 -1.1391
 4902TIP3   OH236120   2.256   1.425   3.369 -0.3438  0.1951  0.1975
 4902TIP3    H136121   2.299   1.456   3.449  1.2760 -0.8449 -0.2186
 4902TIP3    H236122   2.325   1.376   3.323 -2.0624 -1.7175 -0.4065
 4903TIP3   OH236123   5.447   3.594  11.551  0.2339  0.3058 -0.1142
 4903TIP3    H136124   5.458   3.643  11.633 -1.9272 -1.0068  1.0109
 4903TIP3    H236125   5.527   3.543  11.542  0.4811  0.4582  1.1869
 4904TIP3   OH236126   4.033   3.616   0.930 -0.0877 -0.1109  0.5402
 4904TIP3    H136127   3.969   3.683   0.954 -1.8401 -1.7943  0.6655
 4904TIP3    H236128   4.056   3.637   0.840 -0.2578  0.9337  0.7280
 4905TIP3   OH236129   2.810   0.645  14.444  0.4125  0.1596 -0.4568
 4905TIP3    H136130   2.827   0.699  14.521 -2.3936 -0.7316  0.8396
 4905TIP3    H236131   2.741   0.692  14.396  0.5550 -0.4220 -1.2463
 4906TIP3   OH236132   6.270   2.777   1.299 -0.0568 -0.3105 -0.4571
 4906TIP3    H136133   6.264   2.801   1.207 -1.7190 -0.8072 -0.5127
 4906TIP3    H236134   6.221   2.845   1.345 -1.4768 -1.4577 -0.2269
 4907TIP3   OH236135   6.361   0.432   4.142 -0.4339  0.2830 -0.5422
 4907TIP3    H136136   6.356   0.521   4.106 -1.2004  0.4742  0.0358
 4907TIP3    H236137   6.286   0.425   4.201  2.8159  1.2617  3.9245
 4908TIP3   OH236138   0.209   6.009   3.125 -1.0321  0.4549  0.2808
 4908TIP3    H136139   0.244   6.072   3.188  0.6738 -1.3861  1.2486
 4908TIP3    H236140   0.276   6.003   3.058 -1.4124  0.0508 -0.0664
 4909TIP3   OH236141   1.660   6.125   3.168  0.3703  0.2155 -0.0173
 4909TIP3    H136142   1.571   6.146   3.139  0.2973 -0.2857 -0.1556
 4909TIP3    H236143   1.690   6.059   3.106 -0.4800 -2.2847  2.1415
 4910TIP3   OH236144   0.556   4.929  15.304  0.2258 -0.6269  0.0166
 4910TIP3    H136145   0.569   4.837  15.327 -0.9058 -0.5057  1.1427
 4910TIP3    H236146   0.462   4.939  15.294  0.0102  1.1534  3.1382
 4911TIP3   OH236147   1.477   4.867  13.287 -0.1820 -0.0821  0.2858
 4911TIP3    H136148   1.476   4.954  13.326  2.4716 -0.4944  1.3446
 4911TIP3    H236149   1.464   4.808  13.361  0.5405 -0.6904 -0.0772
 4912TIP3   OH236150   3.698   0.953  16.661 -0.2739 -0.5561 -0.4815
 4912TIP3    H136151   3.611   0.983  16.635 -0.0464  0.3120 -0.2669
 4912TIP3    H236152   3.684   0.866  16.699 -1.0860 -0.2874 -0.1582
 4913TIP3   OH236153   3.334   1.753  16.308  0.2219  0.7303  0.1143
 4913TIP3    H136154   3.362   1.835  16.267  0.6815  0.2898 -0.4631
 4913TIP3    H236155   3.300   1.700  16.236  1.8670 -0.3946  0.1408
 4914TIP3   OH236156   4.631   4.889   5.969  0.2577 -0.4622  0.5537
 4914TIP3    H136157   4.634   4.984   5.965  1.1783 -0.5197 -0.1871
 4914TIP3    H236158   4.691   4.860   5.901 -3.1639 -1.5861 -2.1530
 4915TIP3   OH236159   2.010   3.851   1.753 -0.1000 -0.2196 -0.3285
 4915TIP3    H136160   2.080   3.806   1.705  1.0514 -0.2813  1.3568
 4915TIP3    H236161   2.052   3.931   1.786 -1.4687  0.8945 -1.2385
 4916TIP3   OH236162   5.251   1.562   1.541 -0.6214 -0.9333 -0.2969
 4916TIP3    H136163   5.222   1.476   1.511 -1.1853 -0.5107 -1.0027
 4916TIP3    H236164   5.343   1.568   1.513 -0.1531 -1.8685  1.0299
 4917TIP3   OH236165   6.479   6.381  14.431 -0.0893 -0.3511  0.1476
 4917TIP3    H136166   6.446   6.292  14.418  0.2008 -0.1490 -2.1653
 4917TIP3    H236167   6.489   6.416  14.343  3.0253  0.7995  0.8991
 4918TIP3   OH236168   4.082   4.281   0.773  0.7495 -0.1049 -0.2190
 4918TIP3    H136169   4.167   4.324   0.765  0.5765 -0.0304 -1.6811
 4918TIP3    H236170   4.064   4.281   0.868  1.6767  1.2104 -0.0360
 4919TIP3   OH236171   3.480   6.250  13.433 -0.8361  0.1893 -0.1783
 4919TIP3    H136172   3.430   6.243  13.514 -1.6776 -0.0063 -0.7167
 4919TIP3    H236173   3.571   6.257  13.462 -1.2919  2.1292  0.8616
 4920TIP3   OH236174   4.314   4.313   1.477 -0.1070 -0.4302 -0.3693
 4920TIP3    H136175   4.388   4.312   1.537  1.9816 -0.8402 -2.8824
 4920TIP3    H236176   4.333   4.386   1.417 -1.7647 -0.5035 -1.0077
 4921TIP3   OH236177   1.003   5.042   6.581  0.1297 -0.1620 -0.5002
 4921TIP3    H136178   1.055   5.096   6.641 -1.9177  0.6220  0.6087
 4921TIP3    H236179   0.941   5.103   6.542 -1.7322 -1.5428  0.2235
 4922TIP3   OH236180   5.262   0.129  15.842 -0.5774 -0.7202 -0.3150
 4922TIP3    H136181   5.300   0.216  15.845 -1.5983 -0.2589 -0.5266
 4922TIP3    H236182   5.270   0.102  15.750  2.3303 -2.0391  0.2767
 4923TIP3   OH236183   6.376   1.233   3.481  0.4035  0.4466  0.0513
 4923TIP3    H136184   6.343   1.263   3.397  2.0670  1.4519 -0.2486
 4923TIP3    H236185   6.302   1.185   3.520 -1.0075  1.6318 -1.1187
 4924TIP3   OH236186   1.633   0.005   1.784  0.3767  0.3739 -0.5004
 4924TIP3    H136187   1.684   0.007   1.703  1.5380  0.3173  0.2131
 4924TIP3    H236188   1.689  -0.040   1.846  0.1455  1.7723  0.7609
 4925TIP3   OH236189   1.085   1.475  10.862  0.2719 -0.7876 -0.2509
 4925TIP3    H136190   1.167   1.468  10.814  0.1733  0.6508 -0.6561
 4925TIP3    H236191   1.017   1.477  10.795 -0.0049 -0.7920  0.0254
 4926TIP3   OH236192   6.445   2.941  14.858 -0.1848 -0.6290  0.2577
 4926TIP3    H136193   6.351   2.922  14.865  0.0136 -1.1667  1.5166
 4926TIP3    H236194   6.475   2.887  14.785 -0.6815 -1.1358  0.4254
 4927TIP3   OH236195   2.174   1.483   4.369 -0.2730  0.5077  0.9302
 4927TIP3    H136196   2.262   1.520   4.381  0.4558 -0.6420 -0.6603
 4927TIP3    H236197   2.176   1.447   4.281 -2.1313 -0.1521  1.1518
 4928TIP3   OH236198   4.010   2.593   5.824 -0.4458 -0.1627  0.5332
 4928TIP3    H136199   4.050   2.528   5.766 -1.9273 -0.2732 -0.4027
 4928TIP3    H236200   4.056   2.583   5.908  0.5576 -1.1715 -0.1275
 4929TIP3   OH236201   4.657   0.548  12.157 -0.0511 -0.0398  0.2294
 4929TIP3    H136202   4.735   0.593  12.191 -0.3862  0.7045  0.0112
 4929TIP3    H236203   4.680   0.527  12.067  0.7305 -1.7689  0.8036
 4930TIP3   OH236204   4.994   5.627   5.042 -0.1330  0.3007 -0.1863
 4930TIP3    H136205   4.929   5.650   4.976  0.4609 -1.1240 -1.2826
 4930TIP3    H236206   4.970   5.679   5.119 -1.0027  1.7318 -1.4211
 4931TIP3   OH236207   3.704   5.568  16.338  0.0459 -0.9338  0.4807
 4931TIP3    H136208   3.674   5.590  16.249 -0.8671  2.1386  1.4825
 4931TIP3    H236209   3.624   5.547  16.385  0.5964 -3.1688  0.4428
 4932TIP3   OH236210   5.888   2.727  12.437  0.4044  0.5229 -0.1080
 4932TIP3    H136211   5.825   2.660  12.461 -2.1315  2.6049 -0.7312
 4932TIP3    H236212   5.904   2.713  12.343 -0.7090  1.2216 -0.4129
 4933TIP3   OH236213   2.602   0.255  17.046  0.2656 -0.6244 -0.0360
 4933TIP3    H136214   2.594   0.161  17.030 -0.3460 -0.4258 -0.9571
 4933TIP3    H236215   2.513   0.285  17.060  0.4961 -0.2403  0.6185
 4934TIP3   OH236216   6.362   4.091   3.195 -0.1828 -0.3350 -0.3994
 4934TIP3    H136217   6.360   4.162   3.131 -1.9795  0.3445  0.3843
 4934TIP3    H236218   6.454   4.068   3.202  0.4661  2.1220 -0.4600
 4935TIP3   OH236219   0.494   0.589  15.306 -0.2085 -0.4356 -0.3335
 4935TIP3    H136220   0.460   0.571  15.394 -0.5827 -0.4653 -0.4851
 4935TIP3    H236221   0.585   0.613  15.320 -1.1585  2.9799  0.3930
 4936TIP3   OH236222   1.821   2.102   7.035  0.2776 -0.1919 -0.0074
 4936TIP3    H136223   1.816   2.082   6.942 -2.2603  0.8275 -0.1164
 4936TIP3    H236224   1.851   2.194   7.039  1.5887 -0.6110  0.2415
 4937TIP3   OH236225   3.605   1.774  13.999  0.8119 -0.2274  0.1709
 4937TIP3    H136226   3.623   1.680  14.002 -0.7727 -0.5637 -0.3455
 4937TIP3    H236227   3.608   1.795  13.905  0.7573  0.1498  0.2560
 4938TIP3   OH236228   0.912   3.281   0.728 -0.0057  0.2572  0.0098
 4938TIP3    H136229   0.922   3.305   0.636 -0.9446 -0.9473 -0.4055
 4938TIP3    H236230   0.821   3.300   0.749 -0.1387 -0.7309  0.3312
 4939TIP3   OH236231   0.539   1.646   1.400  0.8892 -0.0666 -0.3534
 4939TIP3    H136232   0.448   1.616   1.395  1.4533 -2.0839  0.7204
 4939TIP3    H236233   0.539   1.732   1.358 -2.1264  1.3382  2.3383
 4940TIP3   OH236234   0.698   3.899  12.210  0.0934  0.4008  0.8742
 4940TIP3    H136235   0.686   3.812  12.172 -0.3938  0.3040  1.2457
 4940TIP3    H236236   0.772   3.936  12.162 -0.7602  0.4420 -0.4498
 4941TIP3   OH236237   0.279   1.105   2.491 -0.1976  0.0101  0.1657
 4941TIP3    H136238   0.283   1.062   2.405  1.3774 -1.2179  0.8170
 4941TIP3    H236239   0.210   1.058   2.538 -1.9423  1.5034 -0.8197
 4942TIP3   OH236240   6.709   2.265   4.697  0.1343 -0.3659 -0.1932
 4942TIP3    H136241   6.655   2.234   4.625 -2.4175  3.1530  0.0592
 4942TIP3    H236242   6.771   2.325   4.656 -0.7419  0.9454  0.3463
 4943TIP3   OH236243   3.407   5.993   5.697  0.1257  0.0531 -0.1209
 4943TIP3    H136244   3.385   5.937   5.622  1.1582  2.7492 -2.5310
 4943TIP3    H236245   3.323   6.009   5.739 -0.4016 -1.9676 -0.3604
 4944TIP3   OH236246   1.565   6.091  16.807 -0.1095  1.0953  0.2829
 4944TIP3    H136247   1.589   5.999  16.814 -1.5747  0.5806 -1.0868
 4944TIP3    H236248   1.605   6.132  16.883  0.3915 -0.7077  1.0218
 4945TIP3   OH236249   4.314   2.246  17.150 -0.0401 -0.3451 -0.2464
 4945TIP3    H136250   4.240   2.185  17.151 -1.6873  1.5855  2.6990
 4945TIP3    H236251   4.352   2.239  17.237 -0.4235  2.9856  0.2340
 4946TIP3   OH236252   3.532   1.762  10.934  0.1390  0.2732  0.3587
 4946TIP3    H136253   3.528   1.666  10.929 -0.7473  0.3759 -1.6366
 4946TIP3    H236254   3.444   1.790  10.908  0.4883  1.6473  0.6379
 4947TIP3   OH236255   2.041   2.428  14.687 -0.0849 -0.4056  0.3600
 4947TIP3    H136256   2.090   2.507  14.662  0.8263 -0.7939  0.9171
 4947TIP3    H236257   1.955   2.461  14.711  0.5181  0.5277  1.3296
 4948TIP3   OH236258   0.199   5.736  13.592 -0.5490  0.4500 -0.3304
 4948TIP3    H136259   0.233   5.824  13.610 -0.2763  0.2863 -0.0316
 4948TIP3    H236260   0.271   5.678  13.617 -0.1416  0.2127 -2.0126
 4949TIP3   OH236261   2.028   3.566  15.418 -0.2449  0.5663 -0.1795
 4949TIP3    H136262   1.998   3.478  15.440 -0.0915  0.3878 -0.6877
 4949TIP3    H236263   2.054   3.604  15.502 -1.3902  0.5332  0.1952
 4950TIP3   OH236264   3.420   3.175   5.987 -0.6257 -0.4809  0.6646
 4950TIP3    H136265   3.335   3.206   5.956 -0.8454 -1.2614  0.4692
 4950TIP3    H236266   3.399   3.117   6.060 -0.3466 -1.7997 -0.2974
 4951TIP3   OH236267   5.645   3.640   2.020  0.0686 -0.0784 -0.4489
 4951TIP3    H136268   5.574   3.664   1.961 -0.4920  0.2625  0.3552
 4951TIP3    H236269   5.719   3.695   1.994 -0.8600  1.7241  0.6450
 4952TIP3   OH236270   4.168   0.200  17.002 -0.4814  0.2182  0.2075
 4952TIP3    H136271   4.153   0.266  16.935  0.6605  0.5342  0.2625
 4952TIP3    H236272   4.187   0.249  17.082  1.8892 -0.1584 -0.0976
 4953TIP3   OH236273   2.180   3.897  12.011  0.1692 -0.6307 -0.3118
 4953TIP3    H136274   2.125   3.974  12.026  0.7207 -0.5750  1.6666
 4953TIP3    H236275   2.265   3.933  11.987 -0.4249 -0.7072 -2.6665
 4954TIP3   OH236276   5.931   1.102  15.063  0.3626  0.4118  0.2545
 4954TIP3    H136277   5.899   1.018  15.095  0.2880 -0.1114 -1.1739
 4954TIP3    H236278   6.022   1.085  15.038 -0.0166  0.4578 -1.1604
 4955TIP3   OH236279   2.149   0.980  13.594  0.1432  0.0673  0.0002
 4955TIP3    H136280   2.076   1.021  13.548 -0.0769 -1.4005 -0.9722
 4955TIP3    H236281   2.150   1.023  13.680  0.4517  2.7122 -1.2813
 4956TIP3   OH236282   6.639   3.225  15.314  0.3830  0.5261 -0.1702
 4956TIP3    H136283   6.604   3.239  15.402  1.7581  1.0068  0.3192
 4956TIP3    H236284   6.661   3.313  15.282  0.1216  0.3331 -0.8970
 4957TIP3   OH236285   2.245   4.824   2.668  0.4232  0.4759  0.9496
 4957TIP3    H136286   2.256   4.755   2.603 -0.8126  0.0465  1.1914
 4957TIP3    H236287   2.157   4.858   2.654  0.5532  1.1471  1.6661
 4958TIP3   OH236288   6.223   1.304   0.518  0.1566 -0.2394  0.0698
 4958TIP3    H136289   6.260   1.373   0.464  0.7009 -1.1636 -0.7464
 4958TIP3    H236290   6.299   1.255   0.550 -0.2659 -1.0322 -0.1200
 4959TIP3   OH236291   4.648   1.739  15.261  0.0692 -0.0686 -0.4707
 4959TIP3    H136292   4.565   1.695  15.283 -0.1577 -0.6832 -2.3770
 4959TIP3    H236293   4.702   1.728  15.338 -1.7073  0.5287  0.8995
 4960TIP3   OH236294   4.393   3.176  11.214 -0.2953 -0.1582  0.0277
 4960TIP3    H136295   4.332   3.186  11.286 -1.1584  0.4509 -0.7766
 4960TIP3    H236296   4.414   3.083  11.213 -1.7189 -0.4945 -0.0837
 4961TIP3   OH236297   1.454   3.278  11.208 -0.0841  0.8593  0.3173
 4961TIP3    H136298   1.399   3.344  11.165 -0.7143 -0.5442 -1.0728
 4961TIP3    H236299   1.543   3.303  11.186 -0.3711  0.6027 -1.1702
 4962TIP3   OH236300   1.201   1.755  16.372 -0.4066  0.1185  0.4414
 4962TIP3    H136301   1.222   1.726  16.283  0.0740  0.3967  0.4655
 4962TIP3    H236302   1.235   1.844  16.377 -0.1637 -0.0043  1.0025
 4963TIP3   OH236303   3.282   2.848   3.065  0.2917 -0.5863 -0.0613
 4963TIP3    H136304   3.199   2.856   3.112 -0.1753  1.1568 -1.1756
 4963TIP3    H236305   3.272   2.767   3.014 -0.3915 -0.8167  0.4198
 4964TIP3   OH236306   6.668   2.509   3.456  0.4774 -0.5774  0.0951
 4964TIP3    H136307   6.668   2.530   3.549 -0.5836  1.0829 -0.2499
 4964TIP3    H236308   6.701   2.588   3.413 -0.5139 -0.7590 -1.0324
 4965TIP3   OH236309   0.338   5.212   4.937 -0.3042  0.1015  0.5409
 4965TIP3    H136310   0.304   5.251   5.018  0.1140  0.1404  0.7015
 4965TIP3    H236311   0.336   5.283   4.873  2.0319  0.8820  1.2780
 4966TIP3   OH236312   4.292   1.921  14.034 -0.1352 -0.1729 -0.1237
 4966TIP3    H136313   4.330   1.895  14.119  0.9426 -0.9011 -0.8163
 4966TIP3    H236314   4.199   1.935  14.053 -0.0157 -0.8940  1.0679
 4967TIP3   OH236315   6.187   5.338   4.093 -0.2339 -0.0322  0.1622
 4967TIP3    H136316   6.215   5.426   4.119  0.1670  0.2109 -1.0601
 4967TIP3    H236317   6.244   5.316   4.019  0.3320 -1.7167  1.0730
 4968TIP3   OH236318   3.590   2.274   4.715  0.2904 -0.0712  0.3924
 4968TIP3    H136319   3.658   2.340   4.703  0.6070 -0.4332  0.1509
 4968TIP3    H236320   3.517   2.304   4.661  0.7416 -0.3442 -0.3852
 4969TIP3   OH236321   2.124   6.548   2.594 -0.3489 -0.6195  0.3902
 4969TIP3    H136322   2.058   6.615   2.614  1.8561  1.5356  0.7173
 4969TIP3    H236323   2.110   6.480   2.660 -3.2583 -1.0114 -0.5330
 4970TIP3   OH236324   2.185   5.718   5.458  0.7799  0.0940 -0.2285
 4970TIP3    H136325   2.192   5.744   5.550 -2.3137  0.4025 -0.0219
 4970TIP3    H236326   2.234   5.786   5.411  0.2240  1.4018  1.0168
 4971TIP3   OH236327   4.177   1.567   0.968 -0.7265 -0.7939  0.5749
 4971TIP3    H136328   4.206   1.649   1.009 -1.4374 -0.6762  0.8496
 4971TIP3    H236329   4.090   1.587   0.934 -0.2381 -0.9585 -0.7951
 4972TIP3   OH236330   2.137   5.476   1.476 -0.5399 -0.2638 -0.0440
 4972TIP3    H136331   2.105   5.508   1.391 -1.6913  1.0830  0.8882
 4972TIP3    H236332   2.211   5.533   1.497 -0.4624 -0.3890  0.0259
 4973TIP3   OH236333   4.063   1.812  11.842  0.1525  0.7981 -0.5318
 4973TIP3    H136334   4.137   1.778  11.892 -1.6242 -0.9458  0.9857
 4973TIP3    H236335   4.036   1.739  11.786 -1.2867  0.9559 -0.0547
 4974TIP3   OH236336   4.017   2.887   1.185 -0.1865  0.4705  0.1697
 4974TIP3    H136337   3.974   2.904   1.269 -1.5632  0.7417 -0.5778
 4974TIP3    H236338   3.971   2.812   1.149  0.8569 -0.0786 -0.0296
 4975TIP3   OH236339   4.287   4.667   5.617  0.6663  0.2015 -0.2773
 4975TIP3    H136340   4.245   4.732   5.561 -1.3401 -1.3138 -0.5562
 4975TIP3    H236341   4.243   4.676   5.702  0.0267 -1.1389 -0.4625
 4976TIP3   OH236342   6.393   1.886  10.729 -0.1311  0.3525  0.1653
 4976TIP3    H136343   6.347   1.812  10.689 -0.0051 -0.8603  2.2022
 4976TIP3    H236344   6.476   1.890  10.681 -1.4010  1.1938 -2.0609
 4977TIP3   OH236345   0.015   5.651  10.799  0.2301  0.2926  0.0654
 4977TIP3    H136346   0.033   5.624  10.709  1.9089  1.9641 -0.1378
 4977TIP3    H236347   0.089   5.616  10.849  0.5300  1.3897  0.3927
 4978TIP3   OH236348   4.385   4.821   4.112  0.1671 -0.1438  0.0393
 4978TIP3    H136349   4.443   4.746   4.101  0.1246  0.1263 -2.3222
 4978TIP3    H236350   4.401   4.876   4.035 -1.3649  1.1910  0.6274
 4979TIP3   OH236351   0.812   0.045   0.304  0.8101 -0.6189 -0.1270
 4979TIP3    H136352   0.761   0.011   0.377 -0.6612  0.1621 -0.7744
 4979TIP3    H236353   0.903   0.042   0.335  0.2320 -0.4689  1.6438
 4980TIP3   OH236354   0.541   4.794   3.791  0.1531 -0.0751  0.1096
 4980TIP3    H136355   0.582   4.724   3.842  0.5868 -0.1601 -0.3461
 4980TIP3    H236356   0.450   4.765   3.780  0.1243 -0.1775  0.6069
 4981TIP3   OH236357   4.323   3.408  12.425  0.0100 -0.3138 -0.1683
 4981TIP3    H136358   4.355   3.353  12.496  0.8486  0.0684 -0.2485
 4981TIP3    H236359   4.319   3.496  12.462 -0.0481 -0.2003 -0.4398
 4982TIP3   OH236360   0.313   3.668   5.666  0.2761 -0.7197  0.2323
 4982TIP3    H136361   0.367   3.747   5.662 -0.4935 -0.1132  1.5911
 4982TIP3    H236362   0.356   3.607   5.607  0.5366  0.9249 -1.3435
 4983TIP3   OH236363   2.515   1.576  15.740  0.1082 -0.2560  0.5305
 4983TIP3    H136364   2.496   1.496  15.788  1.5175 -1.2114 -0.4557
 4983TIP3    H236365   2.442   1.585  15.678  1.2172 -2.2062 -1.1224
 4984TIP3   OH236366   5.274   4.073   6.747  0.2751  0.2822  0.1548
 4984TIP3    H136367   5.206   4.079   6.814 -1.0660 -2.8681 -0.8199
 4984TIP3    H236368   5.344   4.022   6.789  0.1601 -0.2197 -0.2568
 4985TIP3   OH236369   5.657   1.481   5.151 -0.3743 -0.2005 -0.5465
 4985TIP3    H136370   5.681   1.403   5.202 -1.2446 -0.3655 -0.3879
 4985TIP3    H236371   5.715   1.550   5.184 -0.6461 -0.4054  0.3794
 4986TIP3   OH236372   0.668   2.582  17.187 -0.6369  0.1990 -0.1650
 4986TIP3    H136373   0.593   2.596  17.244 -1.2974  0.4910 -1.0976
 4986TIP3    H236374   0.633   2.532  17.113  0.3618 -0.8281  0.0252
 4987TIP3   OH236375   6.500   0.635  12.232 -0.3907 -0.4882 -0.1955
 4987TIP3    H136376   6.427   0.695  12.215 -0.7994 -0.4905  1.4084
 4987TIP3    H236377   6.465   0.571  12.294  0.8380 -0.7264  0.2807
 4988TIP3   OH236378   1.028   3.198  11.123 -0.5390 -0.0060 -0.3775
 4988TIP3    H136379   1.071   3.252  11.057  0.8799 -1.1644 -0.4310
 4988TIP3    H236380   1.000   3.260  11.190  0.8051  0.8439 -0.5749
 4989TIP3   OH236381   4.692   6.667  11.444 -0.0476  0.1370 -0.1784
 4989TIP3    H136382   4.716   6.750  11.404  0.0788  0.3220  0.2834
 4989TIP3    H236383   4.643   6.691  11.523  0.8744 -0.2120  0.5132
 4990TIP3   OH236384   0.553   6.335   0.872  0.2705 -0.3711  0.2092
 4990TIP3    H136385   0.467   6.329   0.913 -0.8080  0.4379 -1.8417
 4990TIP3    H236386   0.614   6.338   0.945 -1.4209 -1.1349  1.7086
 4991TIP3   OH236387   0.841   0.707   2.124 -0.2794 -0.0272  0.3080
 4991TIP3    H136388   0.869   0.691   2.034  0.5106  0.3512  0.4821
 4991TIP3    H236389   0.748   0.732   2.117 -1.3183 -3.7586 -0.0325
 4992TIP3   OH236390   5.521   2.042   3.681  0.0286  0.5171 -0.0377
 4992TIP3    H136391   5.612   2.023   3.704  0.8682  2.2290 -1.7540
 4992TIP3    H236392   5.514   2.017   3.589 -1.1207  0.7763 -0.0279
 4993TIP3   OH236393   2.644   5.860  14.486  0.6439  0.1281 -0.1645
 4993TIP3    H136394   2.595   5.820  14.414  0.8699  0.7733 -0.6800
 4993TIP3    H236395   2.580   5.914  14.532  0.5095 -0.2501  0.1009
 4994TIP3   OH236396   1.415   5.060   0.264 -0.0879  0.4516 -0.7567
 4994TIP3    H136397   1.360   5.138   0.256  0.3974  0.8578 -0.2567
 4994TIP3    H236398   1.470   5.078   0.341 -0.2093 -0.5314 -0.4267
 4995TIP3   OH236399   2.375   6.032  14.383 -0.1417 -0.3518  0.2778
 4995TIP3    H136400   2.422   5.981  14.317 -0.2366  2.0785 -1.7238
 4995TIP3    H236401   2.314   5.969  14.423  1.6910 -2.4764 -0.1085
 4996TIP3   OH236402   2.578   3.181   2.237 -0.0504 -0.2920  0.3218
 4996TIP3    H136403   2.611   3.173   2.147  0.2600 -0.4773  0.4542
 4996TIP3    H236404   2.629   3.253   2.275  0.0897 -0.4768  0.4787
 4997TIP3   OH236405   1.600   2.235   1.244 -0.5345  0.3592  0.2098
 4997TIP3    H136406   1.660   2.166   1.216 -2.8675 -2.1496  1.2544
 4997TIP3    H236407   1.623   2.252   1.335 -0.7538  0.1397  0.3041
 4998TIP3   OH236408   0.129   4.018   1.409  0.0285 -0.4426  0.3173
 4998TIP3    H136409   0.095   4.092   1.460  1.4817 -0.2837  1.0870
 4998TIP3    H236410   0.224   4.025   1.417  0.2280 -1.4011 -1.0454
 4999TIP3   OH236411   0.641   3.624  14.516  0.6217 -1.0011 -0.1734
 4999TIP3    H136412   0.681   3.543  14.548  2.7763 -0.7919 -2.2580
 4999TIP3    H236413   0.701   3.693  14.545 -0.5462 -0.2476  0.4891
 5000TIP3   OH236414   5.341   5.699   1.610 -0.3441  0.1978 -0.2657
 5000TIP3    H136415   5.393   5.695   1.530  0.8539  1.7828  0.4085
 5000TIP3    H236416   5.311   5.790   1.615 -0.3466  0.1303  1.1194
 5001TIP3   OH236417   3.431   3.506  14.716  0.5838 -0.1107  0.3834
 5001TIP3    H136418   3.381   3.587  14.727  0.3154 -0.3424  0.9089
 5001TIP3    H236419   3.481   3.498  14.797  0.0279 -0.8659  0.6608
 5002TIP3   OH236420   6.362   2.979  11.452  0.1805  0.1088 -0.2978
 5002TIP3    H136421   6.408   2.897  11.433  0.5012  0.5950 -1.7050
 5002TIP3    H236422   6.418   3.047  11.415 -1.5206  0.7330 -1.8140
 5003TIP3   OH236423   4.266   5.309  11.968  0.0661 -0.0516 -0.1785
 5003TIP3    H136424   4.248   5.216  11.960  0.2975 -0.1118 -0.0067
 5003TIP3    H236425   4.345   5.322  11.914  1.2619 -0.3374  1.4493
 5004TIP3   OH236426   4.794   2.668  14.416  0.7795  0.3085 -0.4245
 5004TIP3    H136427   4.754   2.630  14.338 -1.7937  1.6287  0.2184
 5004TIP3    H236428   4.802   2.595  14.477 -2.2647  0.3096  0.0537
 5005TIP3   OH236429   5.434   4.786  15.164  0.0329  0.1867  0.4666
 5005TIP3    H136430   5.361   4.760  15.221 -0.4208 -1.4257 -0.8152
 5005TIP3    H236431   5.416   4.743  15.081  1.7346  0.9124 -0.3047
 5006TIP3   OH236432   3.308   1.255   2.806  0.0804  0.2087  0.4783
 5006TIP3    H136433   3.251   1.183   2.780 -0.7534  0.7771  0.6956
 5006TIP3    H236434   3.332   1.298   2.724  0.7400 -0.4320  0.3324
 5007TIP3   OH236435   1.202   3.985   4.285 -0.0682 -0.1664 -0.6765
 5007TIP3    H136436   1.220   4.020   4.372  1.0830 -2.0311 -0.1364
 5007TIP3    H236437   1.107   3.993   4.276 -0.5113 -2.0693  1.7173
 5008TIP3   OH236438   3.491   5.981   2.817  0.0180 -0.6102 -0.3078
 5008TIP3    H136439   3.407   6.025   2.833  0.5802  0.0173  0.9553
 5008TIP3    H236440   3.473   5.924   2.743 -1.6800 -0.8702  0.2658
 5009TIP3   OH236441   4.823   1.096  17.081 -0.5966 -0.4266  0.0332
 5009TIP3    H136442   4.782   1.058  17.159 -0.4781  0.8948  0.7547
 5009TIP3    H236443   4.907   1.128  17.112  0.3588 -1.7796 -1.1212
 5010TIP3   OH236444   5.071   2.152  13.344 -0.0425 -0.5457 -0.2938
 5010TIP3    H136445   5.095   2.201  13.423 -0.9670  0.1074 -0.4011
 5010TIP3    H236446   5.031   2.072  13.377 -1.5759  0.2866 -0.0591
 5011TIP3   OH236447   2.638   1.466   0.002 -0.3654 -0.5043 -0.1998
 5011TIP3    H136448   2.589   1.522   0.062 -2.5916 -2.2816 -0.2729
 5011TIP3    H236449   2.697   1.416   0.058  0.8035  1.0454 -0.0176
 5012TIP3   OH236450   5.867   4.051   1.946 -0.4172 -0.0946  0.4520
 5012TIP3    H136451   5.870   3.955   1.949 -1.3364 -0.1077  1.7580
 5012TIP3    H236452   5.863   4.072   1.853 -0.5912 -1.3456  0.1591
 5013TIP3   OH236453   0.499   4.918  15.931 -0.5582 -0.6755 -0.6524
 5013TIP3    H136454   0.418   4.900  15.979 -0.9228  2.3281 -0.0147
 5013TIP3    H236455   0.539   4.991  15.979  3.6721 -3.5130  0.3540
 5014TIP3   OH236456   4.395   3.623  13.299 -0.7018 -0.0303  0.5978
 5014TIP3    H136457   4.447   3.580  13.367 -1.1552  0.1032  1.0321
 5014TIP3    H236458   4.307   3.587  13.310 -0.6369 -0.4806 -0.3290
 5015TIP3   OH236459   0.703   2.250   2.961  0.3594  0.1835  0.2033
 5015TIP3    H136460   0.685   2.315   3.028  0.4630 -0.3384  0.7440
 5015TIP3    H236461   0.776   2.199   2.996  0.0546 -0.4410 -0.0573
 5016TIP3   OH236462   4.668   0.162   4.621  0.2505  0.0213 -0.0338
 5016TIP3    H136463   4.583   0.137   4.657 -0.1469 -1.7671 -2.1031
 5016TIP3    H236464   4.731   0.104   4.663  0.0354 -0.7910 -0.8352
 5017TIP3   OH236465   4.198   0.835   1.088  0.2183  0.3912 -0.2213
 5017TIP3    H136466   4.164   0.751   1.120  3.8925 -0.7882  0.8206
 5017TIP3    H236467   4.146   0.901   1.134 -2.2265 -1.2744 -0.5041
 5018TIP3   OH236468   4.293   1.491  12.846  0.2784 -0.1480 -0.2107
 5018TIP3    H136469   4.209   1.477  12.889 -0.0389  0.2111 -0.7029
 5018TIP3    H236470   4.340   1.408  12.855 -0.7133 -0.8269 -1.2288
 5019TIP3   OH236471   1.300   4.234   5.423 -0.3312 -0.1611  0.0572
 5019TIP3    H136472   1.224   4.275   5.464 -1.0061 -0.6533 -0.6605
 5019TIP3    H236473   1.360   4.216   5.495 -0.4812  1.1038  0.5092
 5020TIP3   OH236474   2.363   0.850  17.035  0.1104 -0.0626 -0.2176
 5020TIP3    H136475   2.368   0.787  17.106 -0.2195  2.2287  1.9008
 5020TIP3    H236476   2.367   0.797  16.955 -2.2074 -2.8977  1.4725
 5021TIP3   OH236477   1.047   1.206  10.616 -0.1931  0.1646  0.8479
 5021TIP3    H136478   0.973   1.253  10.654  0.4061  0.2716  1.9105
 5021TIP3    H236479   1.111   1.274  10.595 -0.3410  0.0630  0.0289
 5022TIP3   OH236480   1.117   4.835   6.785 -0.7513  0.1188  0.1214
 5022TIP3    H136481   1.094   4.879   6.703 -0.2835 -0.9214 -0.5706
 5022TIP3    H236482   1.212   4.825   6.781 -0.7495 -0.0974  0.7140
 5023TIP3   OH236483   5.787   5.323  10.625 -0.1328 -0.6157  0.3015
 5023TIP3    H136484   5.756   5.240  10.588 -0.2609 -0.5759  0.3198
 5023TIP3    H236485   5.732   5.390  10.582  0.6704 -0.4582 -0.4979
 5024TIP3   OH236486   0.798   0.432   3.563  0.2325  0.1562 -0.3027
 5024TIP3    H136487   0.703   0.444   3.569  0.3854  1.2362  0.1019
 5024TIP3    H236488   0.830   0.445   3.653  0.7176 -0.6343 -0.3548
 5025TIP3   OH236489   2.619   5.772  13.207 -0.0021  0.0482  0.0351
 5025TIP3    H136490   2.549   5.820  13.251  0.1056 -1.1270  1.5092
 5025TIP3    H236491   2.662   5.723  13.276  1.6026 -0.0911 -1.0346
 5026TIP3   OH236492   3.351   5.052  10.534  0.2400 -0.2579  0.2884
 5026TIP3    H136493   3.376   5.120  10.472  0.2118 -0.4211  0.0975
 5026TIP3    H236494   3.292   5.096  10.595 -1.6417 -0.6391 -1.1870
 5027TIP3   OH236495   5.312   4.594   1.658 -0.2421 -0.2681  0.1249
 5027TIP3    H136496   5.245   4.586   1.590 -0.5089 -0.4572  0.4083
 5027TIP3    H236497   5.395   4.601   1.610 -0.2267 -2.3221 -0.1993
 5028TIP3   OH236498   5.277   0.646  13.682 -0.0268  0.1103  0.3200
 5028TIP3    H136499   5.195   0.609  13.712  0.9823 -1.5776  1.0712
 5028TIP3    H236500   5.344   0.584  13.710  1.3843  0.7231 -1.5274
 5029TIP3   OH236501   6.262   6.413  11.676  0.1548 -0.0417  0.0441
 5029TIP3    H136502   6.223   6.474  11.613  1.4735  0.2952 -0.4683
 5029TIP3    H236503   6.218   6.330  11.660  0.4466  0.0468 -1.3168
 5030TIP3   OH236504   0.271   6.037  12.941  1.2126 -0.4548  0.4996
 5030TIP3    H136505   0.305   6.007  13.025  1.5471 -0.4484  0.3692
 5030TIP3    H236506   0.239   5.958  12.899  1.7683 -0.5832  0.3056
 5031TIP3   OH236507   6.622   5.117  12.347  0.0949  0.6018 -0.7201
 5031TIP3    H136508   6.659   5.197  12.384 -0.4499  0.2221  0.6609
 5031TIP3    H236509   6.533   5.112  12.382  0.5153 -1.2101  0.1400
 5032TIP3   OH236510   4.552   3.542  15.866  0.4924  0.3576  0.1289
 5032TIP3    H136511   4.577   3.620  15.816 -1.0233  1.5123  1.1207
 5032TIP3    H236512   4.620   3.533  15.932 -0.0213  1.6457  0.8562
 5033TIP3   OH236513   4.063   4.288  12.544  0.1804  0.1588  0.1495
 5033TIP3    H136514   4.007   4.211  12.553 -0.9562  0.9452 -0.1224
 5033TIP3    H236515   4.057   4.311  12.451  0.5168  0.5757  0.2305
 5034TIP3   OH236516   4.912   2.852   3.767 -0.3151  0.2292  0.1942
 5034TIP3    H136517   4.856   2.903   3.825 -1.6901  0.1881 -1.0795
 5034TIP3    H236518   4.934   2.774   3.817 -0.7567  0.6230  1.0029
 5035TIP3   OH236519   2.224   1.604   5.072 -0.2761 -0.1209  0.6491
 5035TIP3    H136520   2.271   1.560   5.002 -1.2416 -1.7689  0.9985
 5035TIP3    H236521   2.188   1.683   5.032 -0.7673 -1.0135 -0.7001
 5036TIP3   OH236522   4.185   4.972  11.787  0.0650 -0.0691  0.8008
 5036TIP3    H136523   4.169   4.889  11.741 -0.0867  0.4336 -0.0801
 5036TIP3    H236524   4.117   5.031  11.753  0.1751  0.4107  1.4171
 5037TIP3   OH236525   5.711   6.022   1.793  0.1140  0.1843  0.7864
 5037TIP3    H136526   5.791   6.071   1.778 -0.1730  0.7258  1.0094
 5037TIP3    H236527   5.733   5.932   1.768  0.4417  0.5496 -0.2757
 5038TIP3   OH236528   0.105   3.627   1.137 -0.9032 -0.2655 -0.7497
 5038TIP3    H136529   0.177   3.679   1.101  0.5119 -0.7596  1.2753
 5038TIP3    H236530   0.071   3.681   1.209 -2.1687 -0.3226 -1.2867
 5039TIP3   OH236531   2.569   2.555  15.515  0.2879  0.0572  0.0013
 5039TIP3    H136532   2.603   2.503  15.443 -1.0640 -1.8054  0.6533
 5039TIP3    H236533   2.637   2.620  15.533  1.8959 -1.3290 -0.9908
 5040TIP3   OH236534   5.445   4.688   4.865  0.2142 -0.0249  0.3927
 5040TIP3    H136535   5.482   4.633   4.934  0.9382 -0.2966 -0.1963
 5040TIP3    H236536   5.422   4.627   4.795 -0.2502  0.2751  0.2869
 5041TIP3   OH236537   5.485   4.380   5.539  0.4507 -0.0021  0.4408
 5041TIP3    H136538   5.417   4.429   5.493 -1.8204 -3.5600 -0.2437
 5041TIP3    H236539   5.470   4.399   5.631 -0.7258  0.1722  0.2208
 5042TIP3   OH236540   5.902   2.455  13.005  0.0236  0.2201 -0.6238
 5042TIP3    H136541   5.867   2.419  13.086  1.8298 -0.2915 -0.0431
 5042TIP3    H236542   5.946   2.380  12.963 -0.1929  0.6736 -1.6748
 5043TIP3   OH236543   5.117   5.571   4.146 -0.3291 -0.5096 -0.1430
 5043TIP3    H136544   5.121   5.480   4.116  1.7108 -0.8957  1.1359
 5043TIP3    H236545   5.061   5.568   4.224  0.0070 -0.7340  0.0908
 5044TIP3   OH236546   5.823   2.401  13.570 -1.0605  0.2631 -0.1842
 5044TIP3    H136547   5.875   2.463  13.621 -2.1444  0.0072  1.2610
 5044TIP3    H236548   5.848   2.315  13.604 -0.4210 -0.0254 -1.3754
 5045TIP3   OH236549   0.860   2.494  15.650  0.7208  0.1905 -0.1066
 5045TIP3    H136550   0.830   2.553  15.720 -1.5189 -0.4689 -0.4820
 5045TIP3    H236551   0.780   2.454  15.617  1.9176 -0.5853 -2.1017
 5046TIP3   OH236552   2.407   1.664   0.528  0.8545  0.0841 -0.5615
 5046TIP3    H136553   2.429   1.613   0.606 -0.5614  0.6188  0.2242
 5046TIP3    H236554   2.346   1.608   0.479 -0.7155  0.9750  0.3127
 5047TIP3   OH236555   2.350   3.611  14.704  0.1829 -0.6128 -0.3914
 5047TIP3    H136556   2.275   3.631  14.760 -1.1592  0.2252 -2.4718
 5047TIP3    H236557   2.360   3.516  14.712 -0.5449 -0.6228  0.5675
 5048TIP3   OH236558   6.444   0.510   1.404 -0.1339 -0.1156 -0.1330
 5048TIP3    H136559   6.490   0.546   1.328  2.5353 -2.0599  0.5082
 5048TIP3    H236560   6.425   0.419   1.380  0.3431 -0.6145  1.3500
 5049TIP3   OH236561   4.136   4.787   4.221 -0.6002 -1.0888  0.2316
 5049TIP3    H136562   4.220   4.790   4.174 -1.8215  0.6667 -1.9110
 5049TIP3    H236563   4.158   4.817   4.310  0.6900  1.5337 -0.9030
 5050TIP3   OH236564   5.196   6.102  12.160  0.5123 -0.1879  0.5921
 5050TIP3    H136565   5.136   6.175  12.143  0.8636 -0.0346  0.0279
 5050TIP3    H236566   5.183   6.083  12.253 -0.6315 -0.3459  0.4086
 5051TIP3   OH236567   2.625   6.173  17.181 -0.4754 -0.4450 -0.1381
 5051TIP3    H136568   2.693   6.120  17.222  0.9366  1.5351  0.1303
 5051TIP3    H236569   2.617   6.138  17.092  0.3741 -1.1512  0.0609
 5052TIP3   OH236570   4.255   1.020   2.725 -0.5806  0.1887 -0.2533
 5052TIP3    H136571   4.269   1.086   2.793  0.8385 -0.7899  0.4218
 5052TIP3    H236572   4.335   0.967   2.726 -1.2407 -0.8550 -1.5511
 5053TIP3   OH236573   1.303   5.300   0.294 -0.3990 -0.0227  0.1151
 5053TIP3    H136574   1.367   5.364   0.325  0.1614  0.4022 -1.8123
 5053TIP3    H236575   1.231   5.305   0.357 -0.4228  2.6103 -0.0695
 5054TIP3   OH236576   3.346   4.177  14.353 -0.3384  0.4593 -0.4970
 5054TIP3    H136577   3.375   4.208  14.267 -1.2950  1.8945 -0.3230
 5054TIP3    H236578   3.414   4.205  14.413  0.3652 -0.6036 -0.7813
 5055TIP3   OH236579   3.523   0.374   0.152  0.1952  0.2022  0.0076
 5055TIP3    H136580   3.589   0.438   0.180  0.8398 -0.8426  0.9459
 5055TIP3    H236581   3.488   0.338   0.233  0.2106 -1.0072 -0.5060
 5056TIP3   OH236582   5.644   2.763  14.882 -0.2592  0.4836 -0.4089
 5056TIP3    H136583   5.716   2.704  14.861 -0.6302  0.3499 -1.3370
 5056TIP3    H236584   5.599   2.776  14.798 -2.6940 -1.3203  0.5455
 5057TIP3   OH236585   6.529   3.473  14.270  0.0808 -0.0665 -0.2078
 5057TIP3    H136586   6.525   3.430  14.356 -0.1612  0.2128 -0.0807
 5057TIP3    H236587   6.508   3.565  14.288  1.9704  0.3943 -0.2710
 5058TIP3   OH236588   5.042   0.535   4.022 -0.6956 -0.3463  0.4517
 5058TIP3    H136589   5.066   0.453   4.065 -0.6595  0.1890  1.4499
 5058TIP3    H236590   5.046   0.601   4.091 -1.5129  0.3676 -0.1743
 5059TIP3   OH236591   0.836   3.235   3.618 -0.5427  0.4166 -0.3186
 5059TIP3    H136592   0.912   3.293   3.622 -0.1122 -0.1242 -0.6879
 5059TIP3    H236593   0.785   3.267   3.544  0.5633 -0.7342 -1.5960
 5060TIP3   OH236594   1.584   6.377  12.461 -0.2259  0.4420 -0.4508
 5060TIP3    H136595   1.629   6.431  12.397  1.0173 -0.7455 -0.5992
 5060TIP3    H236596   1.561   6.437  12.532  0.4331  1.3146 -0.9700
 5061TIP3   OH236597   0.979   4.366   5.395  0.3190 -0.2880  0.8231
 5061TIP3    H136598   0.964   4.426   5.469  0.8038 -0.9432  1.4543
 5061TIP3    H236599   0.892   4.332   5.374  0.0268  0.6749  0.4208
 5062TIP3   OH236600   6.414   5.841   1.792 -0.2696  0.3157  0.1548
 5062TIP3    H136601   6.412   5.745   1.787 -2.5614  0.3072  0.4481
 5062TIP3    H236602   6.365   5.869   1.714 -2.4933  1.1443  1.8023
 5063TIP3   OH236603   4.377   1.208   2.398 -0.0139  0.0172 -0.0570
 5063TIP3    H136604   4.438   1.238   2.331 -0.3328 -1.8350 -1.2135
 5063TIP3    H236605   4.291   1.214   2.357 -0.3149 -0.2155  0.5320
 5064TIP3   OH236606   2.205   3.384   1.279 -0.3355  0.6533 -1.2899
 5064TIP3    H136607   2.131   3.383   1.341 -0.0627 -0.2632 -0.9652
 5064TIP3    H236608   2.283   3.387   1.335 -0.1151  1.5469 -1.6326
 5065TIP3   OH236609   1.939   5.440  16.022 -0.0276  0.2283  0.1208
 5065TIP3    H136610   1.977   5.394  16.096  0.3142 -0.6432 -0.5931
 5065TIP3    H236611   1.982   5.403  15.945 -1.3733  0.1455 -0.6056
 5066TIP3   OH236612   4.370   5.478   3.403  0.1938  0.8310  0.1282
 5066TIP3    H136613   4.418   5.550   3.364  2.1344 -0.8353 -0.6968
 5066TIP3    H236614   4.426   5.449   3.476  0.4169 -1.0393 -0.7393
 5067TIP3   OH236615   6.492   2.158  13.185  0.4101  0.0546  0.8847
 5067TIP3    H136616   6.514   2.075  13.228 -2.8783  0.5549  3.7624
 5067TIP3    H236617   6.418   2.137  13.129  0.5695  0.7437  0.4160
 5068TIP3   OH236618   3.962   6.105   5.503 -0.0183 -0.1953 -0.5815
 5068TIP3    H136619   3.878   6.128   5.463 -0.2897 -0.4247 -0.1529
 5068TIP3    H236620   3.977   6.174   5.568 -0.5304 -0.8701  0.2717
 5069TIP3   OH236621   1.718   1.254  14.654  0.6741  0.3744  0.3621
 5069TIP3    H136622   1.644   1.273  14.712  0.0623  0.3794 -0.4085
 5069TIP3    H236623   1.701   1.307  14.575  0.5373 -1.0190 -0.5611
 5070TIP3   OH236624   2.291   4.405  10.810 -0.4841 -0.0709  0.0265
 5070TIP3    H136625   2.370   4.366  10.772 -1.6686 -1.3973 -1.1618
 5070TIP3    H236626   2.288   4.494  10.774  0.5496  0.0408  0.2060
 5071TIP3   OH236627   0.116   3.077   5.492 -0.1807 -0.6716 -0.1158
 5071TIP3    H136628   0.078   3.159   5.461  0.8540 -0.3732 -0.6395
 5071TIP3    H236629   0.134   3.092   5.585  2.1828  0.5605 -0.7326
 5072TIP3   OH236630   6.327   5.643  12.879  0.0393 -0.6131  0.5632
 5072TIP3    H136631   6.313   5.662  12.786 -0.7792  0.0672  0.8121
 5072TIP3    H236632   6.293   5.554  12.891  2.6648 -1.7695 -0.3388
 5073TIP3   OH236633   5.653   1.708  15.800 -0.2819 -0.0346 -0.2041
 5073TIP3    H136634   5.718   1.716  15.870 -0.9326 -0.6297  0.4782
 5073TIP3    H236635   5.683   1.634  15.747  0.6903  0.9679 -1.0897
 5074TIP3   OH236636   0.810   2.071  16.554 -0.0877 -0.1474 -0.6263
 5074TIP3    H136637   0.882   2.131  16.533 -1.4746  1.3122 -1.2938
 5074TIP3    H236638   0.833   1.989  16.510 -0.1808  1.1447 -3.1520
 5075TIP3   OH236639   4.986   4.333  12.642  0.3045  0.5787 -0.1727
 5075TIP3    H136640   4.963   4.261  12.700 -0.3811  1.1538  0.2843
 5075TIP3    H236641   5.044   4.388  12.694 -1.2726  1.7291  0.4030
 5076TIP3   OH236642   2.352   6.216   2.814  0.6686 -0.4738  0.2886
 5076TIP3    H136643   2.331   6.203   2.906  3.1189  0.9900  1.1003
 5076TIP3    H236644   2.446   6.200   2.808  0.5237 -0.6578 -1.9831
 5077TIP3   OH236645   1.684   3.342   0.998 -0.0980  0.8975  0.7620
 5077TIP3    H136646   1.715   3.332   0.908  1.3416  2.0274  1.1074
 5077TIP3    H236647   1.611   3.280   1.006 -0.8005  1.4107 -1.4255
 5078TIP3   OH236648   2.348   1.161  17.029 -0.0214 -0.3411 -0.3107
 5078TIP3    H136649   2.444   1.164  17.030 -0.0133 -0.0638 -1.6827
 5078TIP3    H236650   2.327   1.070  17.010 -0.0933 -1.3661  3.9794
 5079TIP3   OH236651   3.315   5.347   4.520  0.3279  0.2449 -0.0528
 5079TIP3    H136652   3.250   5.280   4.543 -1.3459  1.5254 -0.9667
 5079TIP3    H236653   3.368   5.306   4.452 -0.3388 -0.3537 -0.2239
 5080TIP3   OH236654   2.577   1.655  11.101  0.2560 -0.3681 -0.3561
 5080TIP3    H136655   2.484   1.675  11.087  0.3020  0.7092  0.7677
 5080TIP3    H236656   2.622   1.700  11.029 -0.2074 -2.3289 -1.9146
 5081TIP3   OH236657   5.888   5.408   1.562 -0.0272  0.1403  0.1879
 5081TIP3    H136658   5.938   5.343   1.611 -0.8246 -0.4994  0.1564
 5081TIP3    H236659   5.851   5.465   1.630 -1.3835 -0.9263  0.3676
 5082TIP3   OH236660   3.116   4.213  13.324 -0.2612 -0.0220 -0.7863
 5082TIP3    H136661   3.209   4.203  13.346 -0.3444 -2.1083 -1.2289
 5082TIP3    H236662   3.115   4.270  13.247  0.5646  0.9756 -0.0671
 5083TIP3   OH236663   1.505   4.904  15.242  0.3379 -0.2902  0.2259
 5083TIP3    H136664   1.524   4.929  15.332  1.7477 -3.2671  0.8309
 5083TIP3    H236665   1.581   4.851  15.215 -2.6444 -4.4336 -0.6017
 5084TIP3   OH236666   0.217   1.889  17.026 -0.0121 -0.2520 -0.3563
 5084TIP3    H136667   0.260   1.933  16.953 -1.1075 -1.0345 -1.4953
 5084TIP3    H236668   0.224   1.796  17.005 -1.9354 -0.4107 -0.3898
 5085TIP3   OH236669   1.235   2.190  16.027 -0.5773  0.1067  0.5051
 5085TIP3    H136670   1.282   2.180  15.944 -1.1895 -0.1909  0.1915
 5085TIP3    H236671   1.277   2.265  16.069 -0.0757  0.0809  0.0541
 5086TIP3   OH236672   4.737   5.186  15.165  0.1907  0.5307  0.5289
 5086TIP3    H136673   4.661   5.185  15.222  0.0531  0.4017  0.3458
 5086TIP3    H236674   4.812   5.187  15.224  0.0493  0.3968  0.7102
 5087TIP3   OH236675   4.730   4.499  14.535  0.3179 -0.1265  0.4574
 5087TIP3    H136676   4.750   4.421  14.484  0.8899  0.3181 -0.0030
 5087TIP3    H236677   4.716   4.567  14.469  2.8915  0.8981  0.9472
 5088TIP3   OH236678   1.458   4.723  14.511  0.3025  0.4038 -0.0304
 5088TIP3    H136679   1.438   4.775  14.433  0.1493  2.3687  1.2775
 5088TIP3    H236680   1.524   4.774  14.557  0.8440 -1.0502  0.8240
 5089TIP3   OH236681   4.139   4.049   0.982  0.1901  0.2592 -0.4823
 5089TIP3    H136682   4.055   4.065   0.940 -0.1470  1.0347  0.4648
 5089TIP3    H236683   4.180   3.981   0.929 -1.9459 -1.6814  0.3007
 5090TIP3   OH236684   5.726   4.909  11.467 -0.5720  0.9658 -0.3808
 5090TIP3    H136685   5.748   4.893  11.559  0.3099  4.0517  0.0140
 5090TIP3    H236686   5.632   4.925  11.467 -0.7505 -0.0586 -0.1812
 5091TIP3   OH236687   2.164   4.763   5.240 -0.1404  0.2304 -0.1286
 5091TIP3    H136688   2.194   4.852   5.223 -2.3657  0.7665 -1.4843
 5091TIP3    H236689   2.101   4.772   5.311  0.4199 -0.4341  0.4712
 5092TIP3   OH236690   2.630   2.879   1.407 -0.2966 -0.4094  0.2567
 5092TIP3    H136691   2.551   2.881   1.354  0.0991  0.0867 -0.3220
 5092TIP3    H236692   2.660   2.788   1.403 -0.1391 -0.3259 -0.5718
 5093TIP3   OH236693   6.436   1.659  14.963 -0.2180 -0.2900  0.0074
 5093TIP3    H136694   6.366   1.711  14.924 -0.2130 -1.1388 -1.1356
 5093TIP3    H236695   6.516   1.709  14.945 -0.1588 -0.9208 -1.4970
 5094TIP3   OH236696   6.262   0.904  12.706  0.5452  0.0722 -0.8131
 5094TIP3    H136697   6.346   0.909  12.752 -0.2271 -0.2872  0.6628
 5094TIP3    H236698   6.229   0.994  12.706  0.6606  0.1149 -0.8965
 5095TIP3   OH236699   3.628   5.459  15.430  0.3128 -0.4912 -0.4186
 5095TIP3    H136700   3.687   5.433  15.359 -0.8302 -3.1872 -0.4642
 5095TIP3    H236701   3.680   5.518  15.485  2.8366 -2.3245 -0.7581
 5096TIP3   OH236702   4.291   0.877   5.123  0.1736  0.3330 -0.4657
 5096TIP3    H136703   4.270   0.784   5.114  0.5310  0.1841  0.2409
 5096TIP3    H236704   4.329   0.885   5.210 -1.0512  1.3671 -0.0064
 5097TIP3   OH236705   2.004   2.548  16.956 -0.0645 -0.1376  0.1290
 5097TIP3    H136706   2.040   2.505  17.034 -0.5263  1.1081  1.0402
 5097TIP3    H236707   2.067   2.527  16.887  0.3912 -1.1953  0.8432
 5098TIP3   OH236708   3.790   6.750   1.787  0.0981 -0.0755 -0.4378
 5098TIP3    H136709   3.886   6.743   1.786  0.1704  0.2771  1.5168
 5098TIP3    H236710   3.760   6.660   1.802  0.2632  0.2246  1.9850
 5099TIP3   OH236711   4.747   0.178  14.044  0.2409  0.1192  0.2616
 5099TIP3    H136712   4.813   0.139  13.988  0.5638 -0.1714  0.8380
 5099TIP3    H236713   4.772   0.270  14.052 -0.6623  0.5144 -1.3036
 5100TIP3   OH236714   0.057   4.476  16.230 -0.3276  0.0505  0.3206
 5100TIP3    H136715  -0.031   4.438  16.235 -1.5623  2.4807 -1.5601
 5100TIP3    H236716   0.096   4.458  16.315 -2.5332 -1.3901  1.0743
 5101TIP3   OH236717   0.996   4.357   3.009 -0.2474  0.1020  0.2198
 5101TIP3    H136718   0.958   4.281   3.055  1.6409 -1.1751 -0.2837
 5101TIP3    H236719   0.968   4.347   2.919  2.2606 -1.5635 -0.4300
 5102TIP3   OH236720   2.185   5.294   1.694 -0.2117 -1.0181  0.5548
 5102TIP3    H136721   2.149   5.357   1.631  0.2837 -1.8143 -0.5406
 5102TIP3    H236722   2.132   5.215   1.682 -0.9945 -0.7566  2.1002
 5103TIP3   OH236723   0.692   3.961   4.007 -0.3592  0.5290  0.3892
 5103TIP3    H136724   0.760   3.968   3.940 -0.2158 -0.1987  0.4529
 5103TIP3    H236725   0.739   3.976   4.090 -0.1955 -0.3338  0.4637
 5104TIP3   OH236726   4.445   0.189  15.649  0.3671  0.0085 -0.1047
 5104TIP3    H136727   4.372   0.127  15.653  0.3741 -0.2302 -2.7863
 5104TIP3    H236728   4.497   0.170  15.728 -2.1579 -0.1369  1.6019
 5105TIP3   OH236729   3.338   0.323  13.825 -0.6036  0.0677  0.0481
 5105TIP3    H136730   3.319   0.348  13.915 -1.0700  0.3631 -0.1299
 5105TIP3    H236731   3.253   0.301  13.788 -0.4233  0.0191 -0.3384
 5106TIP3   OH236732   5.456   4.714  12.570  0.1971 -0.3799  0.3152
 5106TIP3    H136733   5.412   4.791  12.606 -0.8501 -0.7992 -0.0584
 5106TIP3    H236734   5.472   4.658  12.646  3.5521  1.4314  1.0393
 5107TIP3   OH236735   2.001   3.810  11.357 -0.4167  0.0687  0.4723
 5107TIP3    H136736   2.008   3.894  11.312 -0.1318 -0.8007 -1.1258
 5107TIP3    H236737   1.909   3.785  11.347 -0.8015  0.7657  2.0399
 5108TIP3   OH236738   5.028   0.231   0.324  0.0979  0.2374  0.0260
 5108TIP3    H136739   5.037   0.309   0.270  0.4150 -0.3689 -0.8132
 5108TIP3    H236740   5.059   0.258   0.410  1.8973  0.5544 -0.7047
 5109TIP3   OH236741   4.808   2.350   2.954  0.0758 -0.3520 -0.3141
 5109TIP3    H136742   4.861   2.270   2.957  2.4110  1.0703 -2.1502
 5109TIP3    H236743   4.871   2.421   2.944 -2.0234  1.6708  0.2352
 5110TIP3   OH236744   4.146   5.220  13.303  0.1667  0.2384  0.0169
 5110TIP3    H136745   4.135   5.256  13.215 -0.3374  1.5932  0.6259
 5110TIP3    H236746   4.174   5.130  13.288  0.5656  0.6007 -1.5308
 5111TIP3   OH236747   4.100   6.449  11.822 -0.7744 -0.1529  0.1508
 5111TIP3    H136748   4.196   6.444  11.823 -0.8259 -1.8731 -1.4842
 5111TIP3    H236749   4.073   6.400  11.899 -0.3750 -0.4335  0.1154
 5112TIP3   OH236750   1.695   2.287   3.147  0.0541  0.3010 -0.1953
 5112TIP3    H136751   1.731   2.277   3.235 -1.0024  0.2675  0.2403
 5112TIP3    H236752   1.770   2.273   3.088  0.3561 -1.7594  0.6303
 5113TIP3   OH236753   0.030   1.679   3.846 -0.4052  0.5696  0.3343
 5113TIP3    H136754   0.067   1.591   3.837 -0.3938  0.6868 -0.8150
 5113TIP3    H236755   0.027   1.694   3.941  0.8649 -0.1200  0.4908
 5114TIP3   OH236756   4.641   0.195  13.635 -0.0535  0.1699  0.3370
 5114TIP3    H136757   4.577   0.262  13.608  0.4851  1.3416  1.9396
 5114TIP3    H236758   4.713   0.204  13.572  0.5671  1.9386  1.2779
 5115TIP3   OH236759   5.241   0.926  14.494 -0.0900 -0.2961 -0.1327
 5115TIP3    H136760   5.179   0.868  14.449 -0.9176  0.3445  0.1748
 5115TIP3    H236761   5.194   0.955  14.572  0.8688 -0.3705  0.4719
 5116TIP3   OH236762   1.081   4.658  11.239  0.2501 -0.2868 -0.4280
 5116TIP3    H136763   1.171   4.659  11.205  0.7930  1.1399  0.9917
 5116TIP3    H236764   1.082   4.588  11.305  0.7356  0.7262  0.6500
 5117TIP3   OH236765   3.806   0.584   1.029 -0.3617  0.0769 -0.3039
 5117TIP3    H136766   3.893   0.607   1.060 -0.0517  0.1958 -1.2361
 5117TIP3    H236767   3.759   0.668   1.025 -0.6359 -0.0307  0.5316
 5118TIP3   OH236768   1.132   1.532  16.502 -0.0778  0.4328 -0.1871
 5118TIP3    H136769   1.135   1.482  16.420 -0.9785  1.2975 -0.7554
 5118TIP3    H236770   1.183   1.611  16.484  2.1121 -0.6664  1.0045
 5119TIP3   OH236771   3.275   3.652  13.245  0.2610 -0.0986 -0.7759
 5119TIP3    H136772   3.331   3.583  13.209 -1.0929 -1.6585  0.0209
 5119TIP3    H236773   3.271   3.632  13.339 -1.1333  0.3558 -0.7348
 5120TIP3   OH236774   1.648   4.436  14.176 -0.3461  0.2801  0.5706
 5120TIP3    H136775   1.587   4.433  14.251 -1.2549  2.5564 -0.0317
 5120TIP3    H236776   1.664   4.529  14.163  0.7932 -0.1676 -1.3070
 5121TIP3   OH236777   2.253   1.247   3.997  0.0905 -0.0926 -0.1936
 5121TIP3    H136778   2.318   1.181   3.974 -0.7057 -1.0941  0.3565
 5121TIP3    H236779   2.176   1.196   4.022 -0.7938  1.0645 -0.5148
 5122TIP3   OH236780   4.475   6.472   3.161  0.0167 -1.0493  0.0126
 5122TIP3    H136781   4.539   6.534   3.126  0.2946 -1.8971 -1.0059
 5122TIP3    H236782   4.484   6.395   3.106 -1.2890 -1.4970  0.4074
 5123TIP3   OH236783   3.651   3.629  16.067 -0.1536 -0.0108  0.0492
 5123TIP3    H136784   3.736   3.630  16.024 -0.4607 -2.7459 -0.6981
 5123TIP3    H236785   3.635   3.721  16.090  2.8757  0.5702  0.0468
 5124TIP3   OH236786   6.179   3.006  11.232 -0.6413 -0.6315  0.0894
 5124TIP3    H136787   6.114   3.076  11.228 -0.8182 -0.7065  1.3878
 5124TIP3    H236788   6.192   2.991  11.326  0.3760 -1.4258 -0.1702
 5125TIP3   OH236789   2.812   3.135  15.295 -0.5277 -0.1576  0.0898
 5125TIP3    H136790   2.753   3.062  15.310 -0.1092 -0.5644 -0.2437
 5125TIP3    H236791   2.834   3.167  15.382  1.4696 -2.1731  0.3943
 5126TIP3   OH236792   5.015   1.685  11.956  0.3874 -0.2412 -0.1703
 5126TIP3    H136793   4.974   1.703  12.041  1.3280 -1.7648  0.6498
 5126TIP3    H236794   4.943   1.656  11.900 -0.1520  0.2238  0.2740
 5127TIP3   OH236795   3.271   5.187  11.077  0.0808 -0.5950 -0.6336
 5127TIP3    H136796   3.179   5.213  11.085  0.4497  0.8239 -0.8098
 5127TIP3    H236797   3.274   5.098  11.111 -1.4989 -0.9236 -1.3213
 5128TIP3   OH236798   3.606   2.631  11.548 -0.2487 -0.2461  0.0418
 5128TIP3    H136799   3.620   2.719  11.513 -1.1614 -0.3027 -0.4967
 5128TIP3    H236800   3.673   2.577  11.506  0.1783  0.1536  0.2149
 5129TIP3   OH236801   5.712   6.060   4.921 -0.2597 -0.6170  0.6538
 5129TIP3    H136802   5.766   6.032   4.995  0.1870 -1.8221 -0.1259
 5129TIP3    H236803   5.727   5.995   4.853 -0.7427  0.4330 -0.4865
 5130TIP3   OH236804   4.065   0.661   3.149  0.0516  0.6631  0.4755
 5130TIP3    H136805   4.125   0.731   3.122 -0.0991  0.1652 -1.2036
 5130TIP3    H236806   4.021   0.695   3.227  1.6030  1.5368  0.9765
 5131TIP3   OH236807   4.721   2.778  16.720  0.9146 -0.4931 -0.2883
 5131TIP3    H136808   4.670   2.801  16.642  0.2398 -2.7926 -0.5498
 5131TIP3    H236809   4.662   2.798  16.793 -0.8862 -4.1586 -0.6247
 5132TIP3   OH236810   2.302   4.696  15.932  0.1717 -0.1508  0.0663
 5132TIP3    H136811   2.309   4.779  15.978 -0.3403 -0.9161  1.5643
 5132TIP3    H236812   2.314   4.630  16.000 -0.0971 -1.3081 -0.9891
 5133TIP3   OH236813   4.514   2.117   1.569 -0.1872  0.1151 -0.0264
 5133TIP3    H136814   4.607   2.115   1.545 -0.5334  2.1550 -1.7478
 5133TIP3    H236815   4.474   2.177   1.505 -2.5170  0.0291  1.2807
 5134TIP3   OH236816   6.161   3.332  11.791  0.3836 -0.4769 -0.2955
 5134TIP3    H136817   6.118   3.250  11.817 -0.2297 -0.3806 -0.9953
 5134TIP3    H236818   6.196   3.367  11.872  0.2697 -1.2177  0.0793
 5135TIP3   OH236819   6.381   3.264   4.785 -0.2203  0.4969  0.0345
 5135TIP3    H136820   6.337   3.281   4.702 -1.3996  0.0853  0.5759
 5135TIP3    H236821   6.470   3.238   4.760 -0.9917 -1.0340 -1.1502
 5136TIP3   OH236822   5.927   2.961  13.767  0.0820  0.0264 -0.1799
 5136TIP3    H136823   5.950   2.904  13.693  0.7271 -0.8777  0.7125
 5136TIP3    H236824   5.880   2.905  13.828 -0.8060  0.8740 -0.0748
 5137TIP3   OH236825   2.669   6.063   4.108 -0.2189  0.4438  0.2972
 5137TIP3    H136826   2.704   6.042   4.021  0.3251 -2.3284  1.1246
 5137TIP3    H236827   2.617   6.142   4.095  0.7321  0.6835 -2.3321
 5138TIP3   OH236828   0.932   2.964   3.659  0.6521  0.2065 -0.4431
 5138TIP3    H136829   0.924   2.975   3.754  2.3429 -1.0928 -0.1206
 5138TIP3    H236830   0.903   3.047   3.623 -0.0959  0.6907  1.2091
 5139TIP3   OH236831   3.194   2.419  13.611 -0.3106 -0.4068  0.4338
 5139TIP3    H136832   3.263   2.353  13.603  0.0384 -0.1357  1.1218
 5139TIP3    H236833   3.236   2.491  13.658 -0.0780  1.1813 -2.1403
 5140TIP3   OH236834   0.323   4.879  15.683  0.1692 -0.0086  0.1240
 5140TIP3    H136835   0.388   4.937  15.722 -1.3108  0.9718  1.1212
 5140TIP3    H236836   0.341   4.793  15.722  0.4062  0.4070  0.9349
 5141TIP3   OH236837   5.145   6.072   2.013 -0.5488 -0.0967  0.2117
 5141TIP3    H136838   5.062   6.025   2.011 -0.2923 -0.5380 -0.2381
 5141TIP3    H236839   5.138   6.134   1.940 -1.3777  1.4229  1.5574
 5142TIP3   OH236840   1.370   4.715  12.659 -0.4007 -0.0566 -0.9188
 5142TIP3    H136841   1.459   4.687  12.638  0.3460 -0.2815  2.2876
 5142TIP3    H236842   1.320   4.633  12.664 -0.2214 -0.1286 -0.2789
 5143TIP3   OH236843   5.191   4.304  16.267  1.0323  0.5347  0.0097
 5143TIP3    H136844   5.133   4.242  16.222  1.7033 -0.9504  1.1227
 5143TIP3    H236845   5.132   4.366  16.309  0.2884 -0.0149 -0.2075
 5144TIP3   OH236846   5.570   3.137   4.051 -0.3169  0.3158 -0.3996
 5144TIP3    H136847   5.480   3.169   4.060 -0.2947 -0.4918  3.6613
 5144TIP3    H236848   5.624   3.207   4.088  0.3230 -0.9760  1.2125
 5145TIP3   OH236849   1.832   2.413   1.526  0.0485 -0.6832  0.4332
 5145TIP3    H136850   1.864   2.337   1.478 -1.8141 -0.9982 -0.3714
 5145TIP3    H236851   1.843   2.486   1.465  1.7229 -0.3293  1.1597
 5146TIP3   OH236852   0.461   1.108   0.066 -0.2829  0.0094 -0.2780
 5146TIP3    H136853   0.434   1.197   0.045  0.0842 -0.0370 -0.9417
 5146TIP3    H236854   0.535   1.090   0.008  1.2172  0.1408  1.5215
 5147TIP3   OH236855   1.222   5.757  13.801  0.4863  0.0553 -0.3152
 5147TIP3    H136856   1.261   5.677  13.838  0.8323 -0.7985 -2.4638
 5147TIP3    H236857   1.272   5.828  13.840  0.1158 -0.7594  1.7104
 5148TIP3   OH236858   2.386   5.898  13.267 -0.1612  0.6258  0.1724
 5148TIP3    H136859   2.368   5.807  13.292 -0.7852  0.3478 -1.2226
 5148TIP3    H236860   2.302   5.929  13.232 -0.2039  2.0405  1.5077
 5149TIP3   OH236861   1.316   2.872  10.704  0.1092 -0.2378 -0.2826
 5149TIP3    H136862   1.313   2.851  10.611  0.8227  0.8324 -0.5640
 5149TIP3    H236863   1.300   2.789  10.748  1.0402 -0.9986 -1.3498
 5150TIP3   OH236864   5.999   4.304   0.940  0.2900  0.0113  0.0975
 5150TIP3    H136865   5.994   4.397   0.962  0.2615 -0.0781  0.4758
 5150TIP3    H236866   5.916   4.268   0.972  0.7960 -0.3618  0.9865
 5151TIP3   OH236867   5.892   1.190   4.108  0.1766  0.5122 -0.2336
 5151TIP3    H136868   5.932   1.218   4.026 -0.1822  1.7000 -0.0126
 5151TIP3    H236869   5.838   1.264   4.135  0.9122  0.4459  1.4897
 5152TIP3   OH236870   1.030   5.542  11.246 -0.0070 -0.6612  0.4603
 5152TIP3    H136871   1.103   5.596  11.217 -0.8417 -0.2557 -0.9199
 5152TIP3    H236872   1.070   5.460  11.274  0.9746 -0.4250 -0.2320
 5153TIP3   OH236873   2.550   5.569  15.520 -0.3196 -0.1641  0.1934
 5153TIP3    H136874   2.488   5.596  15.453 -1.2515 -0.9578  0.7247
 5153TIP3    H236875   2.509   5.591  15.603  0.2913 -0.2950  0.5402
 5154TIP3   OH236876   5.474   2.354  11.712  0.1926  0.2762  0.1948
 5154TIP3    H136877   5.530   2.341  11.788  0.2347 -2.6215 -0.2667
 5154TIP3    H236878   5.529   2.401  11.649  1.1076  0.1286  0.8810
 5155TIP3   OH236879   1.855   0.294   6.155 -0.0264 -0.0807 -0.4075
 5155TIP3    H136880   1.880   0.211   6.194 -0.3126 -0.1031 -0.2653
 5155TIP3    H236881   1.768   0.312   6.192  0.2134  0.4877 -0.1112
 5156TIP3   OH236882   5.359   1.125  15.815 -0.0638 -0.0528  0.0472
 5156TIP3    H136883   5.337   1.165  15.899 -0.2084  0.1033 -0.0656
 5156TIP3    H236884   5.276   1.126  15.766 -0.0712 -0.4942  0.0477
 5157TIP3   OH236885   2.599   5.973   5.760 -0.0765 -0.2099 -0.3033
 5157TIP3    H136886   2.574   6.031   5.688  1.6570 -1.1579 -1.6968
 5157TIP3    H236887   2.595   5.885   5.723  0.0993 -0.7656  0.9683
 5158TIP3   OH236888   2.711   1.968   5.308 -0.2767  0.0019 -0.0911
 5158TIP3    H136889   2.672   1.917   5.379  2.4540  0.9387  2.1944
 5158TIP3    H236890   2.717   2.057   5.343 -3.7838  1.7240 -3.5213
 5159TIP3   OH236891   4.943   3.328  14.703  0.0837  0.5000  0.3659
 5159TIP3    H136892   4.878   3.270  14.742 -1.4405  1.4734 -0.6782
 5159TIP3    H236893   4.892   3.392  14.654  1.7320  2.9252  1.7593
 5160TIP3   OH236894   0.058   0.316   0.101  0.3112  0.0307  0.1206
 5160TIP3    H136895  -0.017   0.297   0.045  1.0166  0.2275 -0.9043
 5160TIP3    H236896   0.023   0.372   0.170 -0.1827  1.4538 -1.2495
 5161TIP3   OH236897   1.076   4.116  11.475  0.2102  0.2852  0.0975
 5161TIP3    H136898   0.984   4.096  11.486 -0.5052  2.6351 -1.1046
 5161TIP3    H236899   1.122   4.034  11.492 -2.1395 -1.0470  0.1061
 5162TIP3   OH236900   6.382   6.147   1.520  0.0429 -0.4009 -0.1470
 5162TIP3    H136901   6.361   6.055   1.535 -0.7118 -0.3089 -0.6253
 5162TIP3    H236902   6.342   6.193   1.593  0.0601 -0.4100 -0.1320
 5163TIP3   OH236903   3.469   1.515   5.814 -0.4817  0.7051  0.4020
 5163TIP3    H136904   3.425   1.554   5.739  0.1466 -0.0175 -0.3403
 5163TIP3    H236905   3.560   1.544   5.807 -0.3699  0.4419  0.7494
 5164TIP3   OH236906   5.431   2.761  17.070  0.2987 -0.2856 -0.0376
 5164TIP3    H136907   5.447   2.708  17.148 -2.1050 -0.1953  0.5634
 5164TIP3    H236908   5.397   2.844  17.104 -0.6201 -0.1910 -1.1578
 5165TIP3   OH236909   4.082   2.039   3.567 -0.1575  0.2371 -0.3366
 5165TIP3    H136910   4.119   2.109   3.512  0.1916  0.3651  0.0535
 5165TIP3    H236911   3.995   2.024   3.531 -0.7999  1.8839  0.4600
 5166TIP3   OH236912   5.637   1.987   1.238 -0.4273 -0.2666 -0.6147
 5166TIP3    H136913   5.567   2.044   1.272  0.0101 -0.1304  0.0864
 5166TIP3    H236914   5.604   1.898   1.250  0.3467 -0.3028  1.7129
 5167TIP3   OH236915   0.663   0.173  15.810  0.0202 -0.4450 -0.3519
 5167TIP3    H136916   0.703   0.256  15.787 -1.4563  0.1801 -0.7404
 5167TIP3    H236917   0.662   0.123  15.727 -2.1703  0.4776 -0.9110
 5168TIP3   OH236918   5.758   4.953   0.613 -0.0148  0.7734  0.0988
 5168TIP3    H136919   5.764   4.916   0.525 -3.0287  2.0836 -0.7172
 5168TIP3    H236920   5.782   4.880   0.671  1.8233 -0.1583 -1.7405
 5169TIP3   OH236921   4.134   0.577   2.656  0.4638 -0.4719 -0.4157
 5169TIP3    H136922   4.076   0.510   2.619 -0.2769 -0.6968  1.0987
 5169TIP3    H236923   4.076   0.629   2.712  1.5343 -0.1030  0.3529
 5170TIP3   OH236924   1.991   0.909  10.856 -0.0661  0.4379  0.1637
 5170TIP3    H136925   1.919   0.901  10.793 -0.3605  0.1092  0.5477
 5170TIP3    H236926   1.962   0.862  10.933  0.3409  0.7641  0.5201
 5171TIP3   OH236927   3.951   3.048   4.115 -0.0092  0.3914  0.2756
 5171TIP3    H136928   3.997   3.059   4.198 -1.1764  0.5658  0.9142
 5171TIP3    H236929   4.020   3.052   4.048  0.9589  0.0676  1.2398
 5172TIP3   OH236930   1.280   3.903  13.014 -0.1799  0.0233  0.0738
 5172TIP3    H136931   1.251   3.960  12.942 -0.6239 -0.4385 -0.1245
 5172TIP3    H236932   1.225   3.825  13.005 -0.9748  0.3874  1.5597
 5173TIP3   OH236933   2.386   4.514  16.884 -0.1093  0.0533  0.5199
 5173TIP3    H136934   2.348   4.427  16.897  2.4667 -1.4438 -1.5206
 5173TIP3    H236935   2.329   4.555  16.820 -0.7170 -0.5515  0.6650
 5174TIP3   OH236936   6.377   5.084  14.474 -0.4170  0.0902 -0.3305
 5174TIP3    H136937   6.321   5.123  14.540 -1.5018  0.7057 -1.5847
 5174TIP3    H236938   6.435   5.154  14.447 -0.9866  0.2716 -1.1041
 5175TIP3   OH236939   1.014   5.501  12.928  0.0827 -0.3827  0.4028
 5175TIP3    H136940   0.980   5.531  12.844 -1.0804 -1.8916  0.2981
 5175TIP3    H236941   1.104   5.533  12.932 -0.3039  0.8779 -0.7944
 5176TIP3   OH236942   2.052   1.472   6.058  0.5514 -0.3760  0.2226
 5176TIP3    H136943   2.080   1.532   6.128  1.7954 -0.0803 -0.5077
 5176TIP3    H236944   2.020   1.394   6.104 -1.5977  1.0400  1.2011
 5177TIP3   OH236945   3.065   2.732  12.194 -0.0576  0.4210  0.0398
 5177TIP3    H136946   3.127   2.790  12.151  0.2260  0.3388  0.3366
 5177TIP3    H236947   3.067   2.759  12.286 -0.3757  0.3408  0.0719
 5178TIP3   OH236948   3.105   1.987   3.773 -0.1018 -0.5196 -0.1221
 5178TIP3    H136949   3.075   1.957   3.859 -1.5563 -0.7512 -0.6845
 5178TIP3    H236950   3.184   2.037   3.791 -0.3729 -0.5940  1.3458
 5179TIP3   OH236951   2.684   0.776   5.534 -0.2803  0.4695  0.2667
 5179TIP3    H136952   2.698   0.839   5.463 -0.8728  1.5454  1.0789
 5179TIP3    H236953   2.609   0.811   5.583  0.1749 -0.1988  1.4703
 5180TIP3   OH236954   4.009   3.067  11.502 -0.3952  0.2466 -0.4462
 5180TIP3    H136955   3.984   3.065  11.595  0.9411 -1.5448 -0.0798
 5180TIP3    H236956   4.102   3.092  11.504  0.2642 -2.0270 -1.1110
 5181TIP3   OH236957   2.754   4.258   8.696 -0.4576 -0.6819 -0.0035
 5181TIP3    H136958   2.835   4.217   8.666 -0.3490 -0.6222  0.2082
 5181TIP3    H236959   2.772   4.283   8.786 -0.7977 -0.8877  0.1209
 5182TIP3   OH236960   3.943   4.806   5.138 -0.4755 -0.1104  0.2608
 5182TIP3    H136961   3.923   4.730   5.193  0.6204 -0.8959 -0.4254
 5182TIP3    H236962   4.006   4.774   5.074  0.9690  1.6893  0.7365
 5183TIP3   OH236963   2.340   1.532  16.625 -0.5546 -0.3167  0.5470
 5183TIP3    H136964   2.340   1.550  16.531 -0.5434  1.1010  0.8185
 5183TIP3    H236965   2.352   1.437  16.631 -1.2481 -0.5028 -0.9002
 5184TIP3   OH236966   3.402   5.739  15.465  0.6777  0.7937 -0.5930
 5184TIP3    H136967   3.442   5.729  15.379  1.1575 -0.5446 -0.2177
 5184TIP3    H236968   3.475   5.765  15.522 -0.0192  3.8329 -0.9863
 5185TIP3   OH236969   3.927   5.124  11.767  0.4216  0.1391 -0.0292
 5185TIP3    H136970   3.875   5.060  11.815 -0.8833  0.9404 -0.3373
 5185TIP3    H236971   3.920   5.096  11.675 -0.9339  1.2269 -0.2803
 5186TIP3   OH236972   2.246   2.983  10.419 -0.1685 -0.0362  0.1212
 5186TIP3    H136973   2.271   2.915  10.481  0.4733 -0.6928 -0.8359
 5186TIP3    H236974   2.161   2.955  10.386  0.0296 -0.2971 -0.1663
 5187TIP3   OH236975   0.676   4.673  12.111  0.5438  0.4253  0.5794
 5187TIP3    H136976   0.662   4.703  12.201 -1.7056  1.3897 -0.0620
 5187TIP3    H236977   0.633   4.588  12.107 -1.0249  1.2461 -0.1044
 5188TIP3   OH236978   3.197   5.631   2.297 -0.0013 -0.5057 -0.2019
 5188TIP3    H136979   3.221   5.555   2.351 -0.9694 -1.1726 -0.6996
 5188TIP3    H236980   3.196   5.704   2.358  1.1311 -0.8597  0.2509
 5189TIP3   OH236981   0.045   4.710  16.104  0.1216 -0.2535 -0.2330
 5189TIP3    H136982   0.006   4.758  16.177  1.2994  0.2226  0.0968
 5189TIP3    H236983   0.063   4.623  16.141  0.3535 -0.1341 -0.0540
 5190TIP3   OH236984   4.307   3.611  15.010  0.3433  0.0727 -0.4451
 5190TIP3    H136985   4.228   3.577  15.053  1.7299 -0.4262  1.8180
 5190TIP3    H236986   4.309   3.704  15.033  2.5045 -0.7406  2.9604
 5191TIP3   OH236987   3.983   5.019  11.515  0.1592 -0.0282  0.0668
 5191TIP3    H136988   4.064   5.008  11.465  0.5395  0.7118  0.5155
 5191TIP3    H236989   3.940   4.933  11.511  0.3926 -0.0881 -1.1656
 5192TIP3   OH236990   0.875   3.478   2.222  0.3774 -0.2834  0.1497
 5192TIP3    H136991   0.948   3.521   2.177  0.7639 -1.3596 -0.2707
 5192TIP3    H236992   0.858   3.400   2.169  0.6477 -1.4262  1.7083
 5193TIP3   OH236993   5.031   0.011  15.644  0.2452 -0.2934 -0.4681
 5193TIP3    H136994   5.006   0.078  15.580 -0.7228  0.6116  0.8222
 5193TIP3    H236995   5.093  -0.045  15.597 -0.4025  0.3739 -2.1709
 5194TIP3   OH236996   3.938   2.544  13.654 -0.1534  0.0195 -0.0744
 5194TIP3    H136997   3.902   2.586  13.575  0.7833  1.0077  0.0103
 5194TIP3    H236998   3.998   2.478  13.621  1.0501  1.1566 -0.1989
 5195TIP3   OH236999   4.450   2.556   5.462 -0.4551 -0.3345 -0.2535
 5195TIP3    H137000   4.444   2.645   5.426 -0.5584  0.9421  2.7758
 5195TIP3    H237001   4.365   2.517   5.445 -0.1960 -0.1103 -2.1900
 5196TIP3   OH237002   4.526   2.807  14.426 -0.2931 -0.6040  0.2836
 5196TIP3    H137003   4.567   2.846  14.348 -1.7829  1.2484  0.3839
 5196TIP3    H237004   4.600   2.779  14.479  0.8953  2.1724  0.2017
 5197TIP3   OH237005   2.591   2.825   0.466  0.8088  0.3790 -0.4551
 5197TIP3    H137006   2.578   2.756   0.531 -0.3308  0.5783 -0.4787
 5197TIP3    H237007   2.575   2.781   0.382 -0.3556  0.7740 -0.4455
 5198TIP3   OH237008   5.827   4.405   3.093  0.0127 -0.6505  0.3499
 5198TIP3    H137009   5.820   4.476   3.029  1.2708  0.9992  1.9987
 5198TIP3    H237010   5.737   4.391   3.123 -0.1036  1.1032  0.8869
 5199TIP3   OH237011   6.195   0.528   3.545 -0.1167 -0.1591  0.2249
 5199TIP3    H137012   6.225   0.477   3.620  0.9633 -0.2661 -0.2611
 5199TIP3    H237013   6.189   0.618   3.578  1.2379 -0.0520  0.2245
 5200TIP3   OH237014   6.688   3.574   5.441  0.2622 -0.0914 -0.2987
 5200TIP3    H137015   6.684   3.528   5.525 -0.6141  0.0804 -0.2470
 5200TIP3    H237016   6.605   3.554   5.398  0.7533 -0.2807 -1.1876
 5201TIP3   OH237017   6.392   4.771  12.090  0.1252 -0.3994  0.1993
 5201TIP3    H137018   6.416   4.837  12.025 -1.1250 -1.4383 -1.3661
 5201TIP3    H237019   6.296   4.767  12.086  0.1396 -1.7284  0.8312
 5202TIP3   OH237020   0.979   4.237  12.326  0.1291  0.7126  0.6573
 5202TIP3    H137021   0.894   4.279  12.315 -1.3153 -1.8466  1.6629
 5202TIP3    H237022   1.014   4.274  12.408 -0.6377  0.7696  0.9600
 5203TIP3   OH237023   3.476   4.357   4.745 -0.4116  0.0496  0.5539
 5203TIP3    H137024   3.432   4.433   4.783 -2.5169  0.4880 -2.5952
 5203TIP3    H237025   3.431   4.282   4.784 -1.6162  0.4801  0.0130
 5204TIP3   OH237026   5.457   1.870   2.594 -0.3555 -0.3368  0.5796
 5204TIP3    H137027   5.433   1.780   2.571 -0.7795 -0.5685  1.8546
 5204TIP3    H237028   5.430   1.922   2.518 -0.8231 -1.1848  0.1524
 5205TIP3   OH237029   0.786   3.483  11.691 -0.5952 -0.2366  0.3002
 5205TIP3    H137030   0.762   3.536  11.616  1.9749  2.2885  1.1648
 5205TIP3    H237031   0.841   3.413  11.656  0.9618  1.1915 -0.1462
 5206TIP3   OH237032   5.600   3.951  12.807 -0.1366  0.0367  0.2823
 5206TIP3    H137033   5.669   3.983  12.866  0.2281 -0.7747  0.3038
 5206TIP3    H237034   5.526   4.010  12.822 -0.4171 -0.7925  2.3460
 5207TIP3   OH237035   2.553   2.330  15.294  0.3853  0.0778  0.1160
 5207TIP3    H137036   2.466   2.367  15.282  1.2548  1.8950 -0.8197
 5207TIP3    H237037   2.545   2.273  15.371 -1.2395  1.3858  0.9388
 5208TIP3   OH237038   3.711   0.389   3.753 -0.6734  0.0296 -0.1257
 5208TIP3    H137039   3.641   0.389   3.818 -0.2992  1.1373  0.2873
 5208TIP3    H237040   3.674   0.342   3.678 -1.4499 -0.3921  0.5142
 5209TIP3   OH237041   6.255   1.355  16.873  0.1887 -0.0914 -0.4690
 5209TIP3    H137042   6.235   1.275  16.825  0.3893 -0.0021 -0.7027
 5209TIP3    H237043   6.286   1.325  16.959  1.6305 -0.3103 -1.0504
 5210TIP3   OH237044   5.166   0.237  16.709 -0.3714 -0.1743  0.3379
 5210TIP3    H137045   5.129   0.314  16.666 -1.3224  0.5941  2.5036
 5210TIP3    H237046   5.177   0.173  16.638  0.6654  2.0149 -1.5114
 5211TIP3   OH237047   1.961   6.139   1.079 -0.2581  0.2014 -0.1282
 5211TIP3    H137048   1.930   6.215   1.029  1.1879  0.3795 -0.7567
 5211TIP3    H237049   2.054   6.154   1.091  0.4245 -2.2926 -1.7607
 5212TIP3   OH237050   3.519   3.479  11.650 -0.0195  0.1325  0.1126
 5212TIP3    H137051   3.513   3.565  11.609 -0.7788  0.2093  0.3824
 5212TIP3    H237052   3.527   3.418  11.576  0.5387  0.4238 -0.0757
 5213TIP3   OH237053   4.816   4.232  14.517  0.4637  0.4446  0.1281
 5213TIP3    H137054   4.755   4.158  14.510  2.0232 -0.7586 -1.1245
 5213TIP3    H237055   4.852   4.226  14.605  1.4494 -1.0119 -0.3541
 5214TIP3   OH237056   3.717   0.300   5.052 -0.2084  0.3649  0.6269
 5214TIP3    H137057   3.651   0.332   5.113 -0.8942 -0.7565  0.4852
 5214TIP3    H237058   3.705   0.205   5.051  0.6943  0.2519 -0.2148
 5215TIP3   OH237059   0.447   5.721   0.850 -0.2306 -0.1197  0.1215
 5215TIP3    H137060   0.514   5.700   0.916  0.6265  1.6155 -0.1707
 5215TIP3    H237061   0.491   5.779   0.788 -1.4655 -0.5222 -1.1683
 5216TIP3   OH237062   5.328   3.258   3.241 -0.2486 -0.1324 -0.0261
 5216TIP3    H137063   5.363   3.195   3.304 -0.8622 -0.7800 -0.3304
 5216TIP3    H237064   5.340   3.216   3.156 -0.8307  0.0813 -0.2141
 5217TIP3   OH237065   4.605   6.484   1.292  0.5732  0.8217  0.3401
 5217TIP3    H137066   4.666   6.461   1.361 -1.0988  1.4291  2.0829
 5217TIP3    H237067   4.596   6.405   1.240  1.7242  0.2996  0.9258
 5218TIP3   OH237068   6.716   4.057  14.740  0.3619 -0.2781  0.4430
 5218TIP3    H137069   6.748   4.144  14.714 -1.4397 -0.0097 -0.9010
 5218TIP3    H237070   6.722   4.058  14.836 -0.6112  1.7263  0.5049
 5219TIP3   OH237071   0.249   1.422   0.666 -0.4659 -0.3458  0.2455
 5219TIP3    H137072   0.207   1.490   0.614  1.2047  1.1221  0.7636
 5219TIP3    H237073   0.234   1.448   0.757  1.0339 -0.0983  0.4426
 5220TIP3   OH237074   4.934   2.028   2.359 -0.1587 -0.0858 -0.6625
 5220TIP3    H137075   4.983   2.106   2.384 -0.9207  0.4999 -0.9685
 5220TIP3    H237076   4.890   2.053   2.277  0.5927 -1.2486 -1.4391
 5221TIP3   OH237077   5.891   0.279  13.707 -0.7475 -0.4998 -0.4001
 5221TIP3    H137078   5.883   0.301  13.614 -0.6968  1.0045 -0.0602
 5221TIP3    H237079   5.801   0.271  13.738 -0.7611 -1.8805 -0.7685
 5222TIP3   OH237080   1.615   5.444   3.152  0.3202  0.0752 -0.3935
 5222TIP3    H137081   1.597   5.353   3.173  3.5743 -0.5663 -0.1180
 5222TIP3    H237082   1.664   5.441   3.070  0.8242  1.5562 -0.1702
 5223TIP3   OH237083   3.563   4.083   4.503  0.3246 -0.0081  0.1380
 5223TIP3    H137084   3.644   4.054   4.546  0.4962 -0.5634 -0.5477
 5223TIP3    H237085   3.583   4.171   4.471  0.3960  0.1660  0.6709
 5224TIP3   OH237086   0.698   4.059  13.967  0.1322  0.2273  0.3570
 5224TIP3    H137087   0.678   4.046  13.875 -1.0161 -0.3733  0.6809
 5224TIP3    H237088   0.749   3.982  13.992 -1.6041 -0.8020  0.8055
 5225TIP3   OH237089   2.840   2.002  13.207 -0.1930  0.6987 -0.6322
 5225TIP3    H137090   2.908   1.953  13.254 -1.0107 -0.1029 -0.2784
 5225TIP3    H237091   2.777   2.027  13.275 -1.1701 -0.1027 -1.2333
 5226TIP3   OH237092   4.760   6.730  10.776  0.2770 -0.2412  0.0790
 5226TIP3    H137093   4.685   6.743  10.719  0.3527 -0.0943  0.0125
 5226TIP3    H237094   4.806   6.655  10.738  0.1540 -0.3425  0.1297
 5227TIP3   OH237095   5.119   5.677   5.834 -0.3649 -0.3220 -0.7616
 5227TIP3    H137096   5.062   5.750   5.856  1.5983  1.0392 -0.1409
 5227TIP3    H237097   5.109   5.616   5.907 -0.6172  0.1535 -0.3999
 5228TIP3   OH237098   5.010   2.248   4.770 -0.1176  0.2763  0.1130
 5228TIP3    H137099   4.920   2.227   4.744  0.0186 -0.1530 -0.0310
 5228TIP3    H237100   5.053   2.162   4.779 -0.2246  0.4197  2.0175
 5229TIP3   OH237101   1.655   3.687   4.205  0.0216  0.1505  0.2579
 5229TIP3    H137102   1.578   3.685   4.262  1.5011 -0.1877  2.2996
 5229TIP3    H237103   1.716   3.747   4.248  0.9674  0.3359 -1.2800
 5230TIP3   OH237104   1.975   2.685  14.431 -0.7040  0.3117  0.1922
 5230TIP3    H137105   2.069   2.664  14.432 -0.5672  0.8844  0.0911
 5230TIP3    H237106   1.960   2.729  14.515 -0.9391 -0.0234  0.3222
 5231TIP3   OH237107   4.068   2.769  11.342 -0.6976  0.7802  0.3570
 5231TIP3    H137108   3.982   2.811  11.332 -0.0035  2.3431  0.7782
 5231TIP3    H237109   4.101   2.802  11.425  0.3304  0.2219  0.1706
 5232TIP3   OH237110   2.340   1.794  15.493  0.3448  0.0790  0.3395
 5232TIP3    H137111   2.262   1.844  15.470  1.0843  1.7416  1.4227
 5232TIP3    H237112   2.306   1.712  15.528 -0.9320  0.9595  1.1988
 5233TIP3   OH237113   6.018   4.696   3.635  0.4127  0.0996 -0.3097
 5233TIP3    H137114   5.948   4.759   3.617  0.4047  0.3126  0.4477
 5233TIP3    H237115   5.993   4.617   3.588 -1.0621 -0.3053  1.1011
 5234TIP3   OH237116   2.689   6.427  12.968  0.2928 -0.0561 -0.2899
 5234TIP3    H137117   2.736   6.453  12.888 -0.0990 -1.8992 -1.1662
 5234TIP3    H237118   2.597   6.435  12.945  0.1543 -2.2104 -0.6407
 5235TIP3   OH237119   5.038   2.142   2.932  0.1560 -0.2516 -0.1145
 5235TIP3    H137120   5.088   2.091   2.868  0.1257 -1.0975  0.5198
 5235TIP3    H237121   5.104   2.171   2.996  0.4711  2.1061 -1.4759
 5236TIP3   OH237122   3.360   1.641   0.225 -0.2579 -0.5681 -0.2429
 5236TIP3    H137123   3.415   1.602   0.293 -1.4180  0.5180  1.3228
 5236TIP3    H237124   3.423   1.677   0.162  0.8278 -0.4283  0.9000
 5237TIP3   OH237125   4.511   3.244   3.861  0.0222 -0.3026 -0.0701
 5237TIP3    H137126   4.536   3.319   3.808 -1.5565  0.0772 -0.3067
 5237TIP3    H237127   4.475   3.180   3.799 -0.5804 -0.4005  0.3649
 5238TIP3   OH237128   1.554   2.859   3.152 -0.2551  0.1855 -0.0300
 5238TIP3    H137129   1.514   2.773   3.141  1.6042 -0.4441 -2.1915
 5238TIP3    H237130   1.489   2.910   3.200 -2.3813 -1.6972 -0.8564
 5239TIP3   OH237131   1.059   2.229  13.732 -0.5170  0.0144 -0.0294
 5239TIP3    H137132   1.058   2.173  13.809 -1.8768 -1.3221 -0.9893
 5239TIP3    H237133   0.978   2.281  13.740 -0.2056  0.5102 -0.0972
 5240TIP3   OH237134   1.478   2.106  12.663  0.4628  0.6774  0.4257
 5240TIP3    H137135   1.451   2.041  12.729  0.8846 -0.1477 -0.2068
 5240TIP3    H237136   1.447   2.189  12.698 -1.8876 -0.1001  0.2603
 5241TIP3   OH237137   5.049   3.607   3.859 -0.2922  0.0620 -0.7681
 5241TIP3    H137138   5.067   3.589   3.767 -1.4138 -0.7762 -0.8244
 5241TIP3    H237139   5.136   3.616   3.899  0.2617 -2.2656 -1.3754
 5242TIP3   OH237140   2.064   1.113  17.056 -0.5772  0.4493  0.4785
 5242TIP3    H137141   2.137   1.175  17.055 -1.0003  0.9507 -1.4354
 5242TIP3    H237142   1.986   1.166  17.041 -1.0259 -0.4379 -0.4185
 5243TIP3   OH237143   3.575   3.855  12.856  0.1389  0.3461 -0.3946
 5243TIP3    H137144   3.492   3.818  12.887 -0.0206  1.9311  1.1298
 5243TIP3    H237145   3.623   3.779  12.822 -0.3197 -1.2255  2.3128
 5244TIP3   OH237146   4.521   4.854   5.619  0.0367  0.1177 -0.8521
 5244TIP3    H137147   4.552   4.844   5.529 -0.6120 -2.8940 -0.8093
 5244TIP3    H237148   4.477   4.771   5.638 -0.5861  1.0385  1.9570
 5245TIP3   OH237149   5.549   2.122   0.212  0.0816 -0.4113  0.4355
 5245TIP3    H137150   5.564   2.118   0.117  0.5672  1.9648  0.3688
 5245TIP3    H237151   5.635   2.103   0.250  0.6813  1.8985  0.3003
 5246TIP3   OH237152   1.614   1.972  15.143 -0.0487  0.3699 -0.1290
 5246TIP3    H137153   1.654   2.046  15.188 -1.2797  0.1796  1.2879
 5246TIP3    H237154   1.599   1.907  15.211  0.8116 -1.1268 -1.3200
 5247TIP3   OH237155   1.646   1.129  16.525 -0.3438 -0.6341  0.1696
 5247TIP3    H137156   1.554   1.155  16.536  0.4920  2.2546  0.7843
 5247TIP3    H237157   1.651   1.094  16.436 -2.2265 -1.7642  0.4721
 5248TIP3   OH237158   5.675   2.275   3.451 -0.3963 -1.2128 -0.5517
 5248TIP3    H137159   5.622   2.340   3.497 -0.4602 -1.9637  0.4792
 5248TIP3    H237160   5.756   2.271   3.502  0.7596  0.1071 -2.2639
 5249TIP3   OH237161   3.738   3.022  15.483 -0.8613 -0.1931 -0.0126
 5249TIP3    H137162   3.830   3.049  15.489 -0.4775 -1.2365 -0.9882
 5249TIP3    H237163   3.727   2.960  15.555 -0.5008 -0.9070 -0.5724
 5250TIP3   OH237164   0.305   6.202   0.405  0.1286  0.0210 -0.4353
 5250TIP3    H137165   0.257   6.279   0.374  0.6952  0.4955 -0.1319
 5250TIP3    H237166   0.298   6.139   0.333 -0.3069  0.3637 -0.6950
 5251TIP3   OH237167   4.502   1.452   0.058 -0.3914 -0.1562 -0.4306
 5251TIP3    H137168   4.505   1.357   0.070  1.8153 -0.0754 -0.1794
 5251TIP3    H237169   4.443   1.483   0.126 -0.1482 -1.2206  0.2770
 5252TIP3   OH237170   1.811   6.751   3.066 -0.4327 -0.1913 -0.5726
 5252TIP3    H137171   1.897   6.740   3.027 -0.0617 -1.1888  0.4973
 5252TIP3    H237172   1.751   6.710   3.003 -0.0364 -0.2651 -0.9056
 5253TIP3   OH237173   6.562   5.711  12.561  0.3340 -0.2339 -0.0355
 5253TIP3    H137174   6.615   5.692  12.638  1.4635  0.3851 -0.6580
 5253TIP3    H237175   6.578   5.803  12.542 -0.9741 -0.0296 -0.2385
 5254TIP3   OH237176   5.237   3.410  14.277 -0.8548 -0.1515 -0.2958
 5254TIP3    H137177   5.270   3.493  14.242 -0.1052 -0.5609 -0.5781
 5254TIP3    H237178   5.315   3.366  14.309 -1.5938  0.4681  2.4519
 5255TIP3   OH237179   0.707   0.990   4.828 -0.1290 -0.4163  0.1916
 5255TIP3    H137180   0.792   0.970   4.866  1.1117  1.1194 -1.7249
 5255TIP3    H237181   0.664   1.045   4.894  1.5525  1.2790 -0.0734
 5256TIP3   OH237182   5.094   5.663   3.026 -0.6808  0.2044 -0.5255
 5256TIP3    H137183   5.131   5.750   3.013 -0.6538  0.0288 -1.6809
 5256TIP3    H237184   5.001   5.673   3.006 -0.7286  0.0408 -0.3804
 5257TIP3   OH237185   3.064   3.236  14.443 -0.2481  0.1885  0.5218
 5257TIP3    H137186   3.036   3.144  14.441 -0.5451  0.3077 -1.3393
 5257TIP3    H237187   3.041   3.270  14.357 -0.6527  2.1830  1.4038
 5258TIP3   OH237188   4.437   4.728   6.078 -0.1952  0.0596 -0.0462
 5258TIP3    H137189   4.465   4.786   6.006  1.3400 -0.4311  0.1335
 5258TIP3    H237190   4.376   4.781   6.129 -1.2223  0.4551 -1.6417
 5259TIP3   OH237191   1.992   5.302   3.555 -0.3141 -0.3885 -0.0772
 5259TIP3    H137192   2.052   5.359   3.603 -2.1766  0.1185  1.7468
 5259TIP3    H237193   2.048   5.252   3.496  1.6251  1.6929 -0.0853
 5260TIP3   OH237194   6.215   2.421  12.878 -0.3214  0.0312  0.2324
 5260TIP3    H137195   6.265   2.452  12.953 -1.2381  1.9955  0.0724
 5260TIP3    H237196   6.279   2.414  12.807 -0.3466  3.4294 -0.2224
 5261TIP3   OH237197   1.800   6.255  15.931  0.0557  0.0954 -0.6974
 5261TIP3    H137198   1.789   6.163  15.955 -0.2481  0.6902  1.5853
 5261TIP3    H237199   1.712   6.286  15.912 -0.1472  0.4844  0.8053
 5262TIP3   OH237200   0.526   4.492  16.991  0.4939  0.1372 -0.0945
 5262TIP3    H137201   0.486   4.559  16.936 -1.0720 -0.4577  0.2723
 5262TIP3    H237202   0.511   4.523  17.080 -2.1634 -1.6917  0.1590
 5263TIP3   OH237203   0.700   1.699  13.745  0.3974  0.1911 -0.0298
 5263TIP3    H137204   0.693   1.649  13.663 -1.0559  2.0065 -1.0502
 5263TIP3    H237205   0.786   1.675  13.780  1.2645 -0.2210 -2.3466
 5264TIP3   OH237206   5.717   0.752   2.649  0.0929  0.2870 -0.6091
 5264TIP3    H137207   5.747   0.684   2.709  0.1435  1.0996  0.2973
 5264TIP3    H237208   5.621   0.750   2.657 -0.0965 -1.5343 -2.6540
 5265TIP3   OH237209   6.095   5.103  12.034  0.2016 -0.5022 -0.2285
 5265TIP3    H137210   6.092   5.044  11.958 -0.0188 -1.7764  0.7565
 5265TIP3    H237211   6.182   5.089  12.072 -0.3129 -1.1462  0.7398
 5266TIP3   OH237212   5.317   0.393   1.252 -0.0813 -0.1037  0.3782
 5266TIP3    H137213   5.395   0.339   1.238  0.7236  1.4281 -1.2736
 5266TIP3    H237214   5.298   0.385   1.346  2.4521  0.0147  0.9283
 5267TIP3   OH237215   2.130   0.907   4.709 -0.6930 -0.1309  0.1589
 5267TIP3    H137216   2.203   0.856   4.746 -1.0412 -0.5571  0.2636
 5267TIP3    H237217   2.141   0.899   4.614 -0.5764 -0.1598  0.1748
 5268TIP3   OH237218   2.174   0.809   1.547 -0.1021  0.0097 -0.3535
 5268TIP3    H137219   2.201   0.761   1.468  0.5521 -1.5297  0.7883
 5268TIP3    H237220   2.082   0.832   1.530 -0.4882 -1.8358 -0.8232
 5269TIP3   OH237221   1.522   3.811  14.865 -0.1686 -0.4461  0.1915
 5269TIP3    H137222   1.447   3.836  14.812  0.7576 -1.0939 -1.4501
 5269TIP3    H237223   1.565   3.894  14.888 -2.1309  0.0407  2.3232
 5270TIP3   OH237224   0.832   4.364   0.452 -0.1344 -0.3035  0.3734
 5270TIP3    H137225   0.760   4.379   0.513 -0.6670 -2.2861  0.2720
 5270TIP3    H237226   0.907   4.408   0.492 -1.4464  2.0066  0.3445
 5271TIP3   OH237227   0.487   4.771  11.469 -0.5918 -0.6717  0.0619
 5271TIP3    H137228   0.502   4.842  11.531 -0.9213 -1.4902  1.0810
 5271TIP3    H237229   0.401   4.790  11.431 -0.2020  0.0621 -0.4724
 5272TIP3   OH237230   2.881   0.010  15.510 -1.0871  0.0888 -0.1673
 5272TIP3    H137231   2.854  -0.030  15.427 -0.6254 -0.4891 -0.0371
 5272TIP3    H237232   2.815  -0.018  15.573 -1.8731  1.1568 -0.4936
 5273TIP3   OH237233   3.163   3.655   1.269 -0.2699  0.4848  0.4081
 5273TIP3    H137234   3.119   3.738   1.284  0.5440  0.6336  2.0749
 5273TIP3    H237235   3.138   3.630   1.180  0.5062  3.1225 -0.5895
 5274TIP3   OH237236   2.932   3.596   5.981  0.0480  0.3067 -0.0151
 5274TIP3    H137237   2.928   3.581   6.075  1.4951 -0.0265 -0.0007
 5274TIP3    H237238   3.022   3.575   5.956 -0.1807  0.8556 -1.3938
 5275TIP3   OH237239   0.683   3.356  11.936 -0.3950  0.2430  0.1341
 5275TIP3    H137240   0.719   3.403  11.861 -1.7665  2.0855  0.6075
 5275TIP3    H237241   0.609   3.409  11.966 -1.5401 -1.8319  1.1470
 5276TIP3   OH237242   5.596   1.306  13.995 -0.1253  0.0977 -0.1042
 5276TIP3    H137243   5.597   1.252  14.074 -1.7169  0.0686 -0.0858
 5276TIP3    H237244   5.520   1.275  13.946  0.4041  0.6379 -1.2836
 5277TIP3   OH237245   0.938   6.320  15.726  0.2242 -0.4506 -0.2372
 5277TIP3    H137246   0.856   6.276  15.706  0.5718 -1.0689 -0.3185
 5277TIP3    H237247   0.981   6.332  15.641 -0.5860  1.4774 -0.3811
 5278TIP3   OH237248   0.884   6.261  14.741  0.3290 -0.2626 -0.4753
 5278TIP3    H137249   0.833   6.198  14.691 -0.4348  0.9574 -1.2577
 5278TIP3    H237250   0.957   6.285  14.683  0.9461 -0.8549  0.0452
 5279TIP3   OH237251   0.213   3.501  16.775 -0.3360  0.1208  0.0135
 5279TIP3    H137252   0.268   3.544  16.840 -3.0928 -0.6556  2.9673
 5279TIP3    H237253   0.270   3.434  16.736  1.5804  1.1212  1.0152
 5280TIP3   OH237254   2.705   3.543   2.593  0.3987 -0.1071 -0.2556
 5280TIP3    H137255   2.636   3.572   2.654  0.5381  0.7618 -0.5212
 5280TIP3    H237256   2.733   3.622   2.548  1.4314 -0.5008 -0.3043
 5281TIP3   OH237257   5.717   0.915  13.285  0.2164 -0.3395  0.8597
 5281TIP3    H137258   5.742   0.826  13.262 -0.2870 -0.0674 -0.8706
 5281TIP3    H237259   5.800   0.963  13.289  0.3089 -0.3411 -0.7285
 5282TIP3   OH237260   4.134   6.358  14.703  0.2563  0.3457 -0.1233
 5282TIP3    H137261   4.221   6.367  14.664  0.6127  0.3268  0.6511
 5282TIP3    H237262   4.139   6.410  14.784 -0.2633 -0.1467  0.2288
 5283TIP3   OH237263   2.203   0.298   0.325  0.1863 -0.7300 -0.6457
 5283TIP3    H137264   2.139   0.271   0.391  0.3392  0.4856  0.0111
 5283TIP3    H237265   2.286   0.301   0.372  0.1540  0.9742 -0.6634
 5284TIP3   OH237266   0.487   3.033   0.549  0.0982 -0.3919  0.6879
 5284TIP3    H137267   0.577   3.019   0.519 -0.3463  0.4485 -1.0999
 5284TIP3    H237268   0.433   2.982   0.489 -0.5866 -1.4827  2.2005
 5285TIP3   OH237269   2.528   6.095   1.459  0.2620 -0.1440 -0.1548
 5285TIP3    H137270   2.455   6.151   1.436  1.1861  0.6277 -1.2511
 5285TIP3    H237271   2.604   6.154   1.462  0.6871 -0.7327  1.9895
 5286TIP3   OH237272   6.706   3.379  13.262  1.3004 -0.4266 -0.2635
 5286TIP3    H137273   6.763   3.452  13.236  2.1738 -1.3208 -0.8967
 5286TIP3    H237274   6.750   3.301  13.228 -0.2159 -1.1582 -0.5804
 5287TIP3   OH237275   4.613   1.522  17.005  0.0291 -0.0499  0.4766
 5287TIP3    H137276   4.654   1.578  17.072  0.1008 -0.9982  1.2300
 5287TIP3    H237277   4.519   1.536  17.017  0.0903  2.0209 -1.1652
 5288TIP3   OH237278   1.942   3.291   1.432  0.0520  0.8857 -0.4409
 5288TIP3    H137279   1.908   3.369   1.476 -3.7605 -0.3444 -1.0285
 5288TIP3    H237280   1.896   3.289   1.348 -2.1952 -3.4737  0.7170
 5289TIP3   OH237281   0.288   1.673   3.556  0.8469  0.4557  0.5709
 5289TIP3    H137282   0.363   1.719   3.518  1.6991  0.0844  1.7414
 5289TIP3    H237283   0.326   1.624   3.630 -0.5219  0.1195  1.0594
 5290TIP3   OH237284   3.756   6.536   2.106 -0.5722  0.5217 -0.5419
 5290TIP3    H137285   3.820   6.496   2.047  0.3920  0.5848  0.4739
 5290TIP3    H237286   3.729   6.464   2.164 -0.0592  0.9397  0.2175
 5291TIP3   OH237287   5.707   4.585   3.816 -0.3067  0.8016 -0.4170
 5291TIP3    H137288   5.734   4.493   3.811  1.7078  1.3728 -0.5306
 5291TIP3    H237289   5.749   4.618   3.896 -0.8603  1.6847 -0.4834
 5292TIP3   OH237290   6.081   1.105   4.628  0.3953 -0.0610 -0.3397
 5292TIP3    H137291   6.037   1.123   4.544  0.0284 -0.7293 -0.3019
 5292TIP3    H237292   6.152   1.045   4.605  1.3395  1.0747 -0.4079
 5293TIP3   OH237293   5.606   6.696   3.889  0.4864  0.1353 -0.5117
 5293TIP3    H137294   5.633   6.772   3.941  1.2228 -1.2828  1.2297
 5293TIP3    H237295   5.621   6.621   3.946 -3.2566 -1.0971 -1.0495
 5294TIP3   OH237296   1.244   3.627  11.941 -0.0939 -0.3679 -0.4913
 5294TIP3    H137297   1.337   3.613  11.923 -0.0599  0.8583 -1.3343
 5294TIP3    H237298   1.225   3.570  12.016  1.4056 -0.3591 -0.0917
 5295TIP3   OH237299   1.295   0.210   5.049 -0.1575  0.9467  0.1194
 5295TIP3    H137300   1.261   0.287   5.003  1.2206  1.0989 -0.6754
 5295TIP3    H237301   1.304   0.238   5.140  0.3729  1.7490 -0.1737
 5296TIP3   OH237302   6.245   0.259  10.710  0.2748  0.2218 -0.1491
 5296TIP3    H137303   6.286   0.173  10.722 -0.5144 -0.2084 -0.4702
 5296TIP3    H237304   6.287   0.295  10.632  1.2154  0.5034  0.4750
 5297TIP3   OH237305   0.875   4.883   0.362 -0.4428  0.6837  0.1713
 5297TIP3    H137306   0.904   4.882   0.453 -0.1110  2.6233  0.0892
 5297TIP3    H237307   0.780   4.890   0.367 -0.4510  0.4513  0.3647
 5298TIP3   OH237308   2.752   5.923   3.005 -0.4582 -0.6798  0.2016
 5298TIP3    H137309   2.777   5.979   3.079 -1.9041 -1.4931  1.3270
 5298TIP3    H237310   2.834   5.904   2.961  0.0949  2.2405 -0.1564
 5299TIP3   OH237311   2.598   6.727  12.443 -0.7073 -0.3514 -0.2416
 5299TIP3    H137312   2.516   6.685  12.420 -0.5386 -0.6722 -0.2592
 5299TIP3    H237313   2.592   6.743  12.537 -1.2062  0.5401 -0.4253
 5300TIP3   OH237314   4.297   2.628   4.998  0.2924 -0.1914 -0.4172
 5300TIP3    H137315   4.212   2.589   5.016  0.3273 -0.1884 -0.2500
 5300TIP3    H237316   4.288   2.664   4.909  0.0764 -0.0675 -0.3459
 5301TIP3   OH237317   0.569   1.227  14.180  0.7515  0.0892  0.7050
 5301TIP3    H137318   0.588   1.250  14.089  1.2827 -0.4216  0.6856
 5301TIP3    H237319   0.474   1.236  14.187  0.6068 -0.7216 -0.1383
 5302TIP3   OH237320   3.704   5.865  11.947 -0.1974  0.1223  0.1895
 5302TIP3    H137321   3.695   5.961  11.944  0.8841  0.2372  0.3530
 5302TIP3    H237322   3.763   5.850  12.021 -0.2946 -0.6716  0.1042
 5303TIP3   OH237323   1.656   3.662   0.425 -0.1820 -0.2399  0.2210
 5303TIP3    H137324   1.637   3.623   0.510 -0.4601 -1.0423 -0.2144
 5303TIP3    H237325   1.597   3.737   0.419  0.0300 -0.0146  0.8475
 5304TIP3   OH237326   0.364   5.213   4.191 -0.3421 -0.1431 -0.1156
 5304TIP3    H137327   0.403   5.195   4.106 -1.4635  1.2390 -0.9439
 5304TIP3    H237328   0.432   5.261   4.238  0.3517 -1.0782 -0.1393
 5305TIP3   OH237329   3.031   1.516   0.088  0.2934 -0.3701 -0.1839
 5305TIP3    H137330   3.124   1.536   0.082  0.1621  0.0175 -0.9775
 5305TIP3    H237331   2.988   1.601   0.092  0.0716 -0.5609  1.9292
 5306TIP3   OH237332   4.862   4.538  15.327 -0.1056 -0.0315  0.2385
 5306TIP3    H137333   4.791   4.503  15.273  0.3460 -0.7875  0.1123
 5306TIP3    H237334   4.863   4.632  15.309 -0.9450 -0.0478  0.0998
 5307TIP3   OH237335   1.773   4.909  14.791 -0.4098 -0.1242  0.4703
 5307TIP3    H137336   1.710   4.972  14.753 -0.8220  0.7160  2.4949
 5307TIP3    H237337   1.739   4.823  14.765 -1.4991  0.3867  0.1675
 5308TIP3   OH237338   1.235   2.453  17.167 -0.0012  0.5819 -0.5445
 5308TIP3    H137339   1.316   2.453  17.218 -0.0526 -0.4791 -0.4686
 5308TIP3    H237340   1.190   2.373  17.193 -0.5695  0.6207 -1.4047
 5309TIP3   OH237341   6.469   2.799  14.601 -0.2148  0.2478  0.5365
 5309TIP3    H137342   6.547   2.855  14.596 -0.3042  0.5027  1.7056
 5309TIP3    H237343   6.442   2.787  14.510  2.9910 -2.3980 -0.1711
 5310TIP3   OH237344   5.645   4.810   3.546 -0.1088 -0.4081 -0.4955
 5310TIP3    H137345   5.657   4.846   3.634 -0.4570 -0.6435 -0.3450
 5310TIP3    H237346   5.573   4.747   3.557 -1.7544  1.2562 -1.4324
 5311TIP3   OH237347   4.589   0.304  12.519 -0.2803  0.0306  0.6760
 5311TIP3    H137348   4.654   0.245  12.558  1.2288  0.3155 -1.3003
 5311TIP3    H237349   4.628   0.391  12.530 -1.4965  0.4613  1.6570
 5312TIP3   OH237350   1.094   5.589  13.276 -0.1280 -0.4852  0.0297
 5312TIP3    H137351   1.073   5.669  13.228 -1.5013 -0.2967  0.9050
 5312TIP3    H237352   1.040   5.594  13.355  0.7672 -1.6405  0.7270
 5313TIP3   OH237353   0.354   6.536   4.117  0.0667 -0.2583 -0.2485
 5313TIP3    H137354   0.428   6.559   4.173  0.4568  0.0987 -0.9002
 5313TIP3    H237355   0.394   6.490   4.043 -0.1981  1.1377 -1.2883
 5314TIP3   OH237356   0.027   6.273  12.055 -0.6274 -0.1188 -0.0626
 5314TIP3    H137357   0.067   6.333  11.991  1.4729  0.9259  2.1576
 5314TIP3    H237358  -0.034   6.327  12.104 -1.6194 -0.7351 -0.5932
 5315TIP3   OH237359   6.285   5.261   0.012  0.9316 -0.5917 -0.4985
 5315TIP3    H137360   6.290   5.349   0.048  1.9470 -0.5092 -0.8081
 5315TIP3    H237361   6.372   5.246  -0.025  0.3596 -1.2164 -1.6251
 5316TIP3   OH237362   4.588   1.117  16.319 -0.2918  0.3715  0.0891
 5316TIP3    H137363   4.534   1.094  16.395 -1.5196  1.5400 -0.4083
 5316TIP3    H237364   4.559   1.204  16.294  0.0594 -0.0077 -1.7498
 5317TIP3   OH237365   0.778   2.726   5.441  0.1201 -0.1489  0.5704
 5317TIP3    H137366   0.697   2.732   5.389  1.2099  0.1829 -1.1261
 5317TIP3    H237367   0.830   2.801   5.413  1.2452 -0.6674  1.2493
 5318TIP3   OH237368   2.537   5.224  12.653  0.2892 -0.6740  0.3624
 5318TIP3    H137369   2.444   5.200  12.660 -0.4121  2.0104  0.9542
 5318TIP3    H237370   2.577   5.189  12.732 -0.3205 -1.4796  0.3203
 5319TIP3   OH237371   1.717   0.591  16.528 -0.4298 -0.1743  0.1328
 5319TIP3    H137372   1.626   0.623  16.531  0.3690  2.1978  0.2111
 5319TIP3    H237373   1.710   0.501  16.496 -2.7556  0.2127 -0.5264
 5320TIP3   OH237374   4.862   5.772   3.716  0.7112  0.1549  0.4829
 5320TIP3    H137375   4.926   5.752   3.784  1.4307 -0.8381 -0.4656
 5320TIP3    H237376   4.914   5.780   3.635 -0.3993 -1.2488 -0.3952
 5321TIP3   OH237377   5.285   2.728  16.457 -0.0841 -0.2611  0.4393
 5321TIP3    H137378   5.323   2.695  16.538 -0.4944 -1.0124  0.3242
 5321TIP3    H237379   5.216   2.789  16.486  0.4625  0.2649  0.6457
 5322TIP3   OH237380   2.509   0.189   1.116  0.2773  0.0388  0.7103
 5322TIP3    H137381   2.454   0.265   1.133 -0.5205 -0.3425 -0.1177
 5322TIP3    H237382   2.589   0.225   1.078 -0.7669  0.3498 -1.2371
 5323TIP3   OH237383   5.140   1.879  16.904 -0.2331 -0.2216 -0.4419
 5323TIP3    H137384   5.141   1.894  16.810 -0.0340 -2.4906 -0.8238
 5323TIP3    H237385   5.059   1.830  16.920  0.5784 -1.3337  0.3196
 5324TIP3   OH237386   4.242   0.316   2.144 -0.5719 -0.0118 -0.0194
 5324TIP3    H137387   4.247   0.352   2.055 -1.0728 -0.2568 -0.1527
 5324TIP3    H237388   4.302   0.242   2.143 -0.2330  0.2651 -0.0211
 5325TIP3   OH237389   5.665   5.078  15.458  0.4490  1.0400  0.1042
 5325TIP3    H137390   5.626   5.129  15.529  0.9151 -0.2989  1.3329
 5325TIP3    H237391   5.731   5.023  15.500  0.0270 -0.5193 -1.2048
 5326TIP3   OH237392   3.848   3.853   0.540  0.7057  0.2585 -0.1721
 5326TIP3    H137393   3.936   3.857   0.504  1.0220  0.7144  0.6216
 5326TIP3    H237394   3.858   3.886   0.630  0.1769 -2.1316  0.7947
 5327TIP3   OH237395   3.965   2.381   5.199 -0.2314  0.0257  0.4996
 5327TIP3    H137396   4.029   2.326   5.246  0.1762  0.0221 -0.0560
 5327TIP3    H237397   3.882   2.363   5.242  0.5359  1.9433  2.9639
 5328TIP3   OH237398   6.119   1.642   0.329  0.1233 -0.4542 -0.2022
 5328TIP3    H137399   6.177   1.717   0.311 -0.4130  0.0897  0.3034
 5328TIP3    H237400   6.178   1.568   0.339  0.6660 -0.0907 -0.6948
 5329TIP3   OH237401   2.312   3.520   3.969 -0.2230 -0.4043 -0.0533
 5329TIP3    H137402   2.313   3.616   3.970  0.2932 -0.3982  2.5522
 5329TIP3    H237403   2.402   3.494   3.987 -1.1095 -1.3214  3.4006
 5330TIP3   OH237404   1.061   1.482  15.485 -0.1714 -0.9470  0.0126
 5330TIP3    H137405   1.062   1.524  15.570 -0.3229  1.3301 -1.0739
 5330TIP3    H237406   0.975   1.501  15.449  1.3485  1.8063 -2.3771
 5331TIP3   OH237407   0.698   3.992  14.606  0.9138 -0.0609  0.2818
 5331TIP3    H137408   0.774   4.041  14.575  1.4039  0.1389  1.7487
 5331TIP3    H237409   0.624   4.053  14.597  1.5438  1.0217  2.2299
 5332TIP3   OH237410   5.130   3.933  14.399 -0.2971 -0.3107 -0.0568
 5332TIP3    H137411   5.170   3.986  14.468  1.7540 -2.5431  0.5532
 5332TIP3    H237412   5.059   3.885  14.443  0.2815 -0.8767  0.2755
 5333TIP3   OH237413   6.649   4.132   5.536 -0.0742 -0.4476 -0.5938
 5333TIP3    H137414   6.604   4.161   5.615 -1.6981 -0.3336 -1.5253
 5333TIP3    H237415   6.680   4.044   5.556 -1.6802 -0.9637 -0.2718
 5334TIP3   OH237416   5.520   6.768   2.357  0.4127  0.3792  0.2950
 5334TIP3    H137417   5.591   6.716   2.320  0.9257 -0.1081  1.9691
 5334TIP3    H237418   5.511   6.738   2.447 -1.6523  0.7260  0.2325
 5335TIP3   OH237419   3.963   4.006  15.601 -0.2306  0.3281  1.0062
 5335TIP3    H137420   4.043   4.047  15.634  0.7599 -1.0007  0.3041
 5335TIP3    H237421   3.985   3.914  15.590 -1.5245  0.1340 -0.2279
 5336TIP3   OH237422   5.974   1.562   1.553 -0.6551 -0.1241 -0.1940
 5336TIP3    H137423   5.941   1.607   1.631 -1.2186 -1.8110  0.5720
 5336TIP3    H237424   5.917   1.486   1.543  0.5715 -0.9384 -1.1641
 5337TIP3   OH237425   4.747   4.077  12.435  0.3742 -0.0320 -0.0827
 5337TIP3    H137426   4.770   4.080  12.528 -0.3875 -1.8465  0.1911
 5337TIP3    H237427   4.663   4.122  12.431  1.0090  1.1700 -0.1071
 5338TIP3   OH237428   5.016   0.269   2.445  0.0531 -0.1932 -0.2224
 5338TIP3    H137429   5.073   0.211   2.497  0.2316 -0.5072 -0.7686
 5338TIP3    H237430   5.016   0.352   2.494 -0.0886 -0.6071  0.4868
 5339TIP3   OH237431   6.033   6.705  17.175  0.2118  0.0086  0.8543
 5339TIP3    H137432   5.946   6.669  17.156 -0.1065  1.4412 -0.4944
 5339TIP3    H237433   6.087   6.679  17.101  0.8477 -0.5517  1.5067
 5340TIP3   OH237434   1.937   6.592  15.241 -0.3284 -0.3038 -0.0431
 5340TIP3    H137435   2.011   6.542  15.208 -0.8667 -0.9325 -0.2858
 5340TIP3    H237436   1.956   6.682  15.215  0.2239 -0.4961 -0.3194
 5341TIP3   OH237437   6.257   4.088  14.794 -0.4594 -0.6960 -0.3563
 5341TIP3    H137438   6.196   4.018  14.814  0.8318 -1.8318 -0.3334
 5341TIP3    H237439   6.245   4.104  14.700 -0.9099 -0.7920 -0.3148
 5342TIP3   OH237440   4.565   3.784   3.205 -0.4817  0.5232  0.3854
 5342TIP3    H137441   4.605   3.844   3.268 -1.1201  0.3239  0.9846
 5342TIP3    H237442   4.572   3.829   3.121 -0.8754  1.4011  0.8125
 5343TIP3   OH237443   3.152   5.654   1.786 -0.0787  0.1046 -0.2339
 5343TIP3    H137444   3.165   5.619   1.875 -0.4244 -1.5097 -0.8100
 5343TIP3    H237445   3.075   5.711   1.795  1.1784  1.6689  0.9604
 5344TIP3   OH237446   5.983   0.842   5.321  0.2300  0.4650 -0.1631
 5344TIP3    H137447   6.043   0.917   5.320 -0.9853  1.4641 -0.1728
 5344TIP3    H237448   5.933   0.851   5.240  0.3346 -0.5730 -0.3410
 5345TIP3   OH237449   3.752   5.160   4.701 -0.5252  0.0005 -0.2031
 5345TIP3    H137450   3.699   5.115   4.767 -0.2817  0.0683  0.0396
 5345TIP3    H237451   3.842   5.150   4.732 -0.4770  0.7233 -0.1076
 5346TIP3   OH237452   1.631   1.623   0.258  0.3897  0.4747 -1.0486
 5346TIP3    H137453   1.538   1.648   0.253  0.3566  0.8456  0.8203
 5346TIP3    H237454   1.671   1.664   0.182 -0.9484  0.4659 -1.7794
 5347TIP3   OH237455   2.080   6.373   3.213  0.0614  0.2549  0.2436
 5347TIP3    H137456   2.133   6.311   3.163 -0.8856  1.8491 -2.7999
 5347TIP3    H237457   1.994   6.332   3.217  0.0262  0.3276  0.2200
 5348TIP3   OH237458   4.516   3.717  15.254  0.0935  0.3778  0.0590
 5348TIP3    H137459   4.481   3.775  15.186 -2.8350 -0.9318  0.3787
 5348TIP3    H237460   4.507   3.629  15.218  0.3292 -0.1925  1.3663
 5349TIP3   OH237461   2.029   0.678   1.862  0.1668  0.7087 -0.1484
 5349TIP3    H137462   2.088   0.751   1.848 -0.8709  1.5195 -0.3604
 5349TIP3    H237463   2.068   0.629   1.935 -0.1134  2.5386  1.2770
 5350TIP3   OH237464   0.220   3.460   0.407 -0.0514  0.0759 -0.0658
 5350TIP3    H137465   0.224   3.555   0.409  0.6482  0.0369  1.4445
 5350TIP3    H237466   0.268   3.432   0.485 -2.9005 -1.4201  1.2502
 5351TIP3   OH237467   3.837   0.842   5.637  0.0047  0.1623  0.2640
 5351TIP3    H137468   3.869   0.932   5.625  2.2571 -0.3998  1.6143
 5351TIP3    H237469   3.912   0.787   5.614 -0.1995 -1.2535  2.7687
 5352TIP3   OH237470   1.860   4.443   3.630 -0.2128 -0.6187 -0.5295
 5352TIP3    H137471   1.786   4.382   3.632  0.0156 -0.8841  1.0581
 5352TIP3    H237472   1.937   4.386   3.629 -0.0155 -0.3586 -0.2103
 5353TIP3   OH237473   4.017   0.602  12.152 -0.3500  0.5215 -0.3640
 5353TIP3    H137474   4.102   0.644  12.143  0.9970 -2.1510 -0.4967
 5353TIP3    H237475   4.023   0.523  12.098 -1.6057 -1.6118  2.5133
 5354TIP3   OH237476   5.112   1.037   5.810 -0.3579 -0.2017  0.3044
 5354TIP3    H137477   5.121   0.965   5.748  1.0687  1.1227 -1.0566
 5354TIP3    H237478   5.026   1.075   5.790 -0.7901 -1.0438  0.5386
 5355TIP3   OH237479   4.838   1.316   5.024 -0.3974 -0.0199  0.0793
 5355TIP3    H137480   4.798   1.398   5.052  1.2405  0.4789  0.9803
 5355TIP3    H237481   4.777   1.248   5.054 -0.2302  0.6936  2.0390
 5356TIP3   OH237482   5.694   1.668  14.452  0.1169 -0.5169  0.3858
 5356TIP3    H137483   5.607   1.653  14.490 -0.3499 -0.0851 -0.5021
 5356TIP3    H237484   5.724   1.749  14.493  0.4781 -1.1300  1.3499
 5357TIP3   OH237485   0.655   6.248  14.111  0.0207 -0.4272 -0.3547
 5357TIP3    H137486   0.655   6.280  14.021  3.5324  1.5367  0.2422
 5357TIP3    H237487   0.720   6.178  14.112 -1.0597 -1.4465  0.3572
 5358TIP3   OH237488   0.929   1.945  16.222 -0.4304  0.0748  0.3060
 5358TIP3    H137489   1.025   1.952  16.229 -0.0558 -2.6590 -1.3175
 5358TIP3    H237490   0.906   1.875  16.282 -1.3086  0.0123 -0.1017
 5359TIP3   OH237491   1.422   4.119  10.839 -0.1947 -0.2054  0.8426
 5359TIP3    H137492   1.328   4.133  10.843 -0.1550  1.1724 -1.7675
 5359TIP3    H237493   1.453   4.181  10.772  2.3643 -1.5422  0.7126
 5360TIP3   OH237494   5.996   5.652  13.743  0.1102 -0.1848  0.2203
 5360TIP3    H137495   6.074   5.705  13.762  0.4419 -0.1666 -1.1280
 5360TIP3    H237496   5.942   5.662  13.821  0.0823  2.3123 -0.0552
 5361TIP3   OH237497   1.549   2.043  16.384  0.2000 -1.0967  0.3106
 5361TIP3    H137498   1.456   2.054  16.362  0.5187 -2.2192 -1.7646
 5361TIP3    H237499   1.596   2.071  16.305  1.5552 -1.9596  0.7944
 5362TIP3   OH237500   4.793   2.164  12.322 -0.2879 -0.0942 -0.3952
 5362TIP3    H137501   4.877   2.198  12.352  0.0554 -1.2372 -0.0327
 5362TIP3    H237502   4.728   2.208  12.377 -0.0723  2.1411 -1.8750
 5363TIP3   OH237503   6.728   5.594  14.815 -0.2680 -0.4820  0.1655
 5363TIP3    H137504   6.724   5.565  14.724  0.8777  0.0007 -0.0455
 5363TIP3    H237505   6.804   5.653  14.818 -1.6897  1.3412  0.9199
 5364TIP3   OH237506   3.477   4.772  15.745 -0.0055 -0.0834  0.2230
 5364TIP3    H137507   3.526   4.796  15.824 -0.3711 -0.3238  0.5281
 5364TIP3    H237508   3.544   4.747  15.682  0.4882  3.3914 -0.7035
 5365TIP3   OH237509   4.195   4.999  15.780 -0.2218  0.2677  0.4936
 5365TIP3    H137510   4.210   4.996  15.686  0.9031 -0.6764  0.6983
 5365TIP3    H237511   4.204   5.092  15.803  0.4383  0.3741 -0.1822
 5366TIP3   OH237512   3.900   3.219   5.208  0.0134 -0.2538  0.1222
 5366TIP3    H137513   3.831   3.262   5.158  0.6169  1.2468  0.5577
 5366TIP3    H237514   3.861   3.136   5.237 -1.1746  0.0154 -0.6926
 5367TIP3   OH237515   4.096   5.417  17.168 -0.3093 -0.0603  0.4053
 5367TIP3    H137516   4.132   5.372  17.091  1.0456  0.6456  0.6101
 5367TIP3    H237517   4.142   5.501  17.170 -1.6683  0.6785  0.9413
 5368TIP3   OH237518   0.872   1.898  10.991 -0.1089  0.4223  0.1117
 5368TIP3    H137519   0.820   1.891  10.911  0.4948  1.6019 -0.3941
 5368TIP3    H237520   0.921   1.816  10.994  0.1370  0.5187 -0.9264
 5369TIP3   OH237521   2.527   1.573  16.386  0.1823  0.0845 -0.0239
 5369TIP3    H137522   2.544   1.499  16.328  1.7071  0.0081  0.4850
 5369TIP3    H237523   2.590   1.562  16.457  1.0589  2.3770 -0.4092
 5370TIP3   OH237524   1.496   1.640  11.973 -0.2228  0.8108  0.1318
 5370TIP3    H137525   1.463   1.728  11.954 -0.2084  0.5626 -1.0705
 5370TIP3    H237526   1.501   1.597  11.888  0.2143 -0.2063  0.6594
 5371TIP3   OH237527   0.663   5.570  14.491  0.0764 -0.6737  0.7153
 5371TIP3    H137528   0.672   5.478  14.465  0.5760 -0.0789 -1.2805
 5371TIP3    H237529   0.676   5.569  14.586  0.8806 -2.5665  0.6170
 5372TIP3   OH237530   5.466   6.682  10.881 -0.2274 -0.1987  0.3501
 5372TIP3    H137531   5.387   6.680  10.827  0.2373  0.3069 -0.3604
 5372TIP3    H237532   5.497   6.591  10.882  0.0458 -0.1188 -0.6604
 5373TIP3   OH237533   6.249   0.733  13.714 -0.2644  0.5586 -0.1237
 5373TIP3    H137534   6.263   0.731  13.809 -1.0040 -2.5148 -0.0285
 5373TIP3    H237535   6.154   0.740  13.704 -0.2464  0.1243 -0.6096
 5374TIP3   OH237536   1.758   2.170  13.097  0.8658  0.0300  0.5553
 5374TIP3    H137537   1.786   2.179  13.189  4.9396 -0.3026 -0.5630
 5374TIP3    H237538   1.768   2.077  13.078 -1.1681 -0.1086  0.0995
 5375TIP3   OH237539   2.668   6.250   2.921  0.2653  0.0798 -0.3187
 5375TIP3    H137540   2.706   6.326   2.877 -0.2657  0.0884 -0.7721
 5375TIP3    H237541   2.732   6.227   2.989  0.3555  1.0344 -0.0669
 5376TIP3   OH237542   3.766   2.019   5.000 -0.0522  0.0211 -0.0004
 5376TIP3    H137543   3.720   1.936   4.995  0.6388 -0.3554 -0.1052
 5376TIP3    H237544   3.763   2.053   4.910 -2.0150  1.0389  0.4019
 5377TIP3   OH237545   2.923   3.686  14.428 -0.6997  0.0361 -0.0850
 5377TIP3    H137546   3.001   3.643  14.392  1.2533  2.8778  0.5343
 5377TIP3    H237547   2.908   3.640  14.511 -0.0523 -0.9491 -0.4961
 5378TIP3   OH237548   4.128   6.505   5.651  0.3312  0.1142  0.5996
 5378TIP3    H137549   4.073   6.551   5.713  2.6875 -0.8091  3.4807
 5378TIP3    H237550   4.159   6.573   5.591 -1.8817  1.0312  0.4701
 5379TIP3   OH237551   1.085   2.244   0.967  0.3990 -0.2100  0.1371
 5379TIP3    H137552   1.056   2.251   1.058 -2.2517  2.4918 -0.8491
 5379TIP3    H237553   1.129   2.327   0.950  0.5861 -0.5736 -1.1922
 5380TIP3   OH237554   1.538   6.584  12.675  0.7331  0.5041 -0.1973
 5380TIP3    H137555   1.589   6.662  12.696  1.2961  0.0423  0.2025
 5380TIP3    H237556   1.470   6.614  12.616  2.0274  0.9779 -1.4749
 5381TIP3   OH237557   2.415   4.362   4.794  0.0894  0.0176  0.1153
 5381TIP3    H137558   2.342   4.348   4.734  1.5221 -1.9819 -1.1840
 5381TIP3    H237559   2.373   4.370   4.880 -1.5965 -2.2606 -0.4472
 5382TIP3   OH237560   0.923   2.999  16.150  0.2279 -0.4157  0.3668
 5382TIP3    H137561   0.918   2.909  16.120 -1.7324 -0.3254  0.3299
 5382TIP3    H237562   0.949   3.049  16.073 -1.4435 -0.6087 -0.3423
 5383TIP3   OH237563   3.830   4.034   5.918  0.4933 -0.2505 -0.5106
 5383TIP3    H137564   3.912   4.056   5.962  0.1588  2.6582 -1.2805
 5383TIP3    H237565   3.854   4.020   5.827  0.1153  0.7280 -0.7609
 5384TIP3   OH237566   0.999   3.629   1.475  0.2426 -0.3906  0.2350
 5384TIP3    H137567   0.948   3.616   1.395 -1.9092  2.0618  1.1354
 5384TIP3    H237568   1.054   3.704   1.457  0.8974 -0.8043  0.5090
 5385TIP3   OH237569   3.801   4.883   1.551  0.6024 -0.5403  0.2854
 5385TIP3    H137570   3.879   4.854   1.597  0.8706  1.8869  1.4425
 5385TIP3    H237571   3.806   4.979   1.552 -2.7595 -0.3030  1.0590
 5386TIP3   OH237572   1.289   4.914   6.548 -0.0240 -0.2936  0.5496
 5386TIP3    H137573   1.315   4.848   6.611  1.5006 -0.0588  0.1879
 5386TIP3    H237574   1.352   4.985   6.559 -1.6674  1.1483  0.9772
 5387TIP3   OH237575   2.996   5.832   0.276 -0.0734 -0.6332 -0.4356
 5387TIP3    H137576   3.074   5.842   0.222  1.0202  0.1976  1.2379
 5387TIP3    H237577   3.022   5.771   0.345 -0.1809  1.3835  1.4264
 5388TIP3   OH237578   4.622   4.840   1.214  0.3148 -0.0622 -0.6073
 5388TIP3    H137579   4.568   4.865   1.139  0.1738 -1.9639 -1.1559
 5388TIP3    H237580   4.700   4.801   1.175  0.2280 -1.0889  0.2222
 5389TIP3   OH237581   5.419   6.007  11.151 -0.4863 -0.3713 -0.4997
 5389TIP3    H137582   5.470   6.065  11.094 -0.1898  0.3173  0.4582
 5389TIP3    H237583   5.412   5.926  11.101  0.7321 -0.1555 -1.0455
 5390TIP3   OH237584   1.753   2.862  10.077  0.3949  0.0636 -0.0521
 5390TIP3    H137585   1.701   2.937  10.107  0.4842 -0.0115  0.2902
 5390TIP3    H237586   1.759   2.804  10.153  2.3299  0.8154  0.4137
 5391TIP3   OH237587   0.013   3.773   1.341 -0.0362 -0.0366 -0.3929
 5391TIP3    H137588   0.056   3.850   1.379  1.6976 -0.8063 -0.7280
 5391TIP3    H237589   0.023   3.705   1.408 -0.8865 -0.1835 -0.4122
 5392TIP3   OH237590   3.475   4.508   0.886  0.3079  0.2087  0.1250
 5392TIP3    H137591   3.487   4.530   0.793  0.7564  0.0280  0.1378
 5392TIP3    H237592   3.412   4.436   0.886  1.6818 -1.0035 -0.1588
 5393TIP3   OH237593   4.337   5.673  14.313 -0.3222  0.0508  0.0695
 5393TIP3    H137594   4.257   5.621  14.307 -1.0345  1.1331  0.0590
 5393TIP3    H237595   4.368   5.659  14.403  1.3292 -3.0163 -0.9021
 5394TIP3   OH237596   0.370   0.176  12.197  0.1811 -0.2499 -0.6055
 5394TIP3    H137597   0.451   0.227  12.197 -0.4295  0.7777  1.4802
 5394TIP3    H237598   0.300   0.242  12.199 -0.6360 -1.1327  0.7007
 5395TIP3   OH237599   0.808   2.583   1.010  0.1073 -0.6913  0.3661
 5395TIP3    H137600   0.880   2.643   1.028  0.2544 -1.3813  2.2182
 5395TIP3    H237601   0.742   2.605   1.076 -0.5067 -1.4801  0.0246
 5396TIP3   OH237602   0.096   1.917   2.122  0.4703  0.3644 -1.0207
 5396TIP3    H137603   0.108   1.823   2.108 -0.7714  0.1582 -0.6903
 5396TIP3    H237604   0.185   1.950   2.140  0.8237 -0.8498 -0.4907
 5397TIP3   OH237605   2.294   5.307   4.348  0.6339 -0.3878 -0.6910
 5397TIP3    H137606   2.205   5.308   4.383  0.2588 -0.6900 -1.6169
 5397TIP3    H237607   2.346   5.355   4.413 -0.4400  0.9454 -0.7962
 5398TIP3   OH237608   6.313   5.129   1.564  0.0868 -0.1288 -0.2781
 5398TIP3    H137609   6.271   5.188   1.626 -1.1437 -1.3699  0.0924
 5398TIP3    H237610   6.358   5.064   1.619 -2.1886 -2.0679 -0.6414
 5399TIP3   OH237611   3.428   3.916   0.919  0.8512 -0.0809  0.1225
 5399TIP3    H137612   3.439   3.822   0.935 -1.8482 -0.6021 -0.7692
 5399TIP3    H237613   3.460   3.929   0.830  0.0666 -0.4248 -0.2195
 5400TIP3   OH237614   6.724   4.052  11.992  1.0155 -0.1687 -0.3532
 5400TIP3    H137615   6.715   3.985  12.060 -1.3712 -1.4031 -1.8118
 5400TIP3    H237616   6.695   4.133  12.034 -0.0444 -0.8409  0.2308
 5401TIP3   OH237617   1.785   6.456  14.929  0.4563 -0.6738  0.5849
 5401TIP3    H137618   1.719   6.437  14.862  0.6428 -0.8022  0.4349
 5401TIP3    H237619   1.780   6.551  14.941 -0.1685 -0.7602  1.0103
 5402TIP3   OH237620   0.412   2.270   1.691  0.2914  0.1961  0.6198
 5402TIP3    H137621   0.380   2.360   1.686 -1.1928 -0.2707  1.2518
 5402TIP3    H237622   0.333   2.216   1.682  1.3092 -1.0683 -0.9342
 5403TIP3   OH237623   1.944   1.524   3.588 -0.1954  0.5893 -0.7118
 5403TIP3    H137624   1.916   1.462   3.521  0.2539 -0.8272  0.4049
 5403TIP3    H237625   1.930   1.479   3.671  1.5617  1.3980  0.0560
 5404TIP3   OH237626   5.256   2.464   3.544  0.5002  0.5733  0.1892
 5404TIP3    H137627   5.289   2.384   3.586 -2.0280  0.1267  1.4030
 5404TIP3    H237628   5.179   2.435   3.495  0.0088  2.1436  0.0233
 5405TIP3   OH237629   0.409   4.144  11.798 -0.8564 -0.0884 -0.0382
 5405TIP3    H137630   0.447   4.214  11.746  0.3037 -0.5045  0.2460
 5405TIP3    H237631   0.314   4.158  11.790 -0.6501  2.2024  0.9333
 5406TIP3   OH237632   2.937   5.699  11.725 -0.1497 -0.3715 -1.0046
 5406TIP3    H137633   2.907   5.616  11.688 -1.4788 -0.6014  0.5040
 5406TIP3    H237634   2.962   5.678  11.815 -0.8554  0.9091 -0.4848
 5407TIP3   OH237635   0.901   5.330   2.623  0.3056  0.3290  0.0216
 5407TIP3    H137636   0.979   5.309   2.675  1.7942  1.9690 -1.4608
 5407TIP3    H237637   0.846   5.382   2.682  1.2208  0.7744  0.4967
 5408TIP3   OH237638   5.443   4.035   3.470 -0.8026  0.0117  0.8832
 5408TIP3    H137639   5.499   4.031   3.547  0.1905 -2.6387  0.0827
 5408TIP3    H237640   5.390   3.956   3.475 -1.3837  0.2813 -0.6613
 5409TIP3   OH237641   0.370   1.623   1.093  0.1185  0.1172  0.1678
 5409TIP3    H137642   0.429   1.560   1.133  1.3836  1.3156  0.2132
 5409TIP3    H237643   0.314   1.653   1.164  1.3364  1.0845  0.7408
 5410TIP3   OH237644   2.293   6.727  12.527  0.3309 -0.2424 -0.0730
 5410TIP3    H137645   2.213   6.688  12.561 -1.0121  1.0836 -1.6286
 5410TIP3    H237646   2.351   6.734  12.603 -1.7311  0.5627  1.4516
 5411TIP3   OH237647   4.630   1.182  12.515  0.3117  0.0246 -0.7273
 5411TIP3    H137648   4.698   1.116  12.528  0.2019 -0.0994 -0.7928
 5411TIP3    H237649   4.649   1.249  12.581  0.9658  0.3654 -1.2518
 5412TIP3   OH237650   1.772   2.448   3.740 -0.6363 -0.3243 -0.0849
 5412TIP3    H137651   1.743   2.528   3.696 -0.5825 -1.0032 -1.3726
 5412TIP3    H237652   1.692   2.399   3.758 -0.7282  0.3237  1.3268
 5413TIP3   OH237653   1.770   3.715   4.698  0.0834  0.5186 -0.0606
 5413TIP3    H137654   1.768   3.795   4.752 -0.9909 -0.0189  0.6923
 5413TIP3    H237655   1.679   3.701   4.672  0.6873  1.2604 -2.7801
 5414TIP3   OH237656   1.960   5.161  12.021 -0.2181  0.2456  0.0938
 5414TIP3    H137657   1.990   5.249  12.042  0.1837  0.2529 -0.4963
 5414TIP3    H237658   1.865   5.165  12.034 -0.0642  0.4167  1.2571
 5415TIP3   OH237659   3.803   4.188   0.004 -0.3397  0.2570  0.1035
 5415TIP3    H137660   3.798   4.107   0.054  1.6443  0.7322  1.1016
 5415TIP3    H237661   3.818   4.160  -0.086 -2.1912 -0.5432  0.0269
 5416TIP3   OH237662   1.723   0.222  11.793 -0.0698  0.4661  0.0751
 5416TIP3    H137663   1.648   0.213  11.852  0.0414 -2.1294 -0.1075
 5416TIP3    H237664   1.696   0.176  11.713  0.4346  2.4693 -1.2944
 5417TIP3   OH237665   4.021   0.050  17.219 -0.3732  0.2625 -0.3747
 5417TIP3    H137666   3.997  -0.039  17.195 -3.9439  1.3622 -1.1312
 5417TIP3    H237667   4.102   0.067  17.170  1.1754 -2.9654  0.8884
 5418TIP3   OH237668   5.158   2.298  11.506  0.1502  0.1278 -0.2719
 5418TIP3    H137669   5.068   2.309  11.536  1.0273 -0.4874  2.8308
 5418TIP3    H237670   5.158   2.214  11.461 -0.7823  0.0327 -0.1138
 5419TIP3   OH237671   4.730   0.258   4.119  0.5203  0.4186  0.5581
 5419TIP3    H137672   4.694   0.176   4.084 -0.8715  0.1337  2.5475
 5419TIP3    H237673   4.665   0.324   4.097  0.9139  0.7161  0.2861
 5420TIP3   OH237674   4.138   3.369   5.187  0.7786 -0.5459 -0.5972
 5420TIP3    H137675   4.068   3.303   5.195  0.0167  0.5211  2.3225
 5420TIP3    H237676   4.156   3.395   5.277  2.6580  1.6212 -1.5573
 5421TIP3   OH237677   0.126   6.292  12.873  0.4223  0.3310  0.5761
 5421TIP3    H137678   0.052   6.263  12.819  0.6467  2.4541 -0.9538
 5421TIP3    H237679   0.164   6.211  12.907 -1.5479 -0.8925 -0.0207
 5422TIP3   OH237680   4.545   0.985   1.293 -0.0893 -0.5523  0.2207
 5422TIP3    H137681   4.618   0.927   1.272  0.2931 -0.3407  0.9455
 5422TIP3    H237682   4.581   1.073   1.284 -0.3717 -0.4423  0.1674
 5423TIP3   OH237683   5.849   4.189  16.544 -0.3520 -0.2180 -0.3521
 5423TIP3    H137684   5.837   4.272  16.498 -0.7458 -0.5957 -0.9365
 5423TIP3    H237685   5.876   4.214  16.632 -0.4666  0.5308 -0.5265
 5424TIP3   OH237686   1.914   0.611  16.010  0.2977 -0.7298 -0.1211
 5424TIP3    H137687   1.924   0.588  16.103 -0.2283  1.4136  0.4830
 5424TIP3    H237688   2.002   0.634  15.982  0.1304  0.6155  0.4136
 5425TIP3   OH237689   3.219   2.280   5.489  0.5121 -0.8906 -0.5080
 5425TIP3    H137690   3.213   2.346   5.557 -0.1725 -0.8343 -0.6217
 5425TIP3    H237691   3.246   2.329   5.411 -1.4546 -0.4885 -0.9582
 5426TIP3   OH237692   2.129   4.884  13.787 -0.3240 -0.0718 -0.4156
 5426TIP3    H137693   2.048   4.937  13.782 -0.5431 -0.2277  1.3917
 5426TIP3    H237694   2.115   4.814  13.723 -1.8325 -0.3612  0.1987
 5427TIP3   OH237695   1.381   0.282  11.567 -0.1061 -0.7754 -0.7244
 5427TIP3    H137696   1.372   0.227  11.489 -0.0404  1.2436 -2.1733
 5427TIP3    H237697   1.296   0.275  11.611 -0.5323 -1.0176 -1.5772
 5428TIP3   OH237698   2.309   5.369  15.320  0.1004  0.3934 -0.4301
 5428TIP3    H137699   2.335   5.436  15.256 -0.6638  0.2181 -0.9287
 5428TIP3    H237700   2.354   5.290  15.292  2.1844  1.0105  1.0008
 5429TIP3   OH237701   0.340   1.928  15.591 -0.2606  0.1617  0.4603
 5429TIP3    H137702   0.336   2.023  15.589  1.0909  0.1999 -1.2574
 5429TIP3    H237703   0.317   1.905  15.681 -1.0918  2.0729  0.7568
 5430TIP3   OH237704   6.156   0.308   6.184 -0.3304  0.2100  0.1037
 5430TIP3    H137705   6.195   0.276   6.266  0.5629  0.6047 -0.1599
 5430TIP3    H237706   6.152   0.403   6.194 -0.9223  0.1990 -0.0090
 5431TIP3   OH237707   3.112   4.410   5.041 -0.1510  0.0261 -0.5274
 5431TIP3    H137708   3.025   4.428   5.076  0.2333 -1.9269  1.5645
 5431TIP3    H237709   3.120   4.315   5.046  1.4068  0.0418 -2.4202
 5432TIP3   OH237710   1.159   3.112  13.025  0.0623 -0.1556 -0.3645
 5432TIP3    H137711   1.251   3.133  13.008 -0.5019  1.0273 -2.0036
 5432TIP3    H237712   1.136   3.047  12.959 -0.3871 -0.1935 -0.1769
 5433TIP3   OH237713   3.596   0.265  13.716 -0.0292 -0.8685 -0.3552
 5433TIP3    H137714   3.630   0.233  13.800 -0.7259 -3.1635 -0.9091
 5433TIP3    H237715   3.513   0.307  13.738  1.0246  0.8387  0.4272
 5434TIP3   OH237716   3.470   1.185  11.127  0.5522  0.1748  0.0989
 5434TIP3    H137717   3.430   1.231  11.054 -3.3523  0.3003  2.1686
 5434TIP3    H237718   3.430   1.097  11.124 -1.7107  1.0047  3.5342
 5435TIP3   OH237719   2.798   3.340   3.244  0.0790  0.2708  0.1473
 5435TIP3    H137720   2.707   3.320   3.265 -0.2813  1.4630 -0.2427
 5435TIP3    H237721   2.846   3.261   3.269 -0.8046  0.3124  2.0614
 5436TIP3   OH237722   3.616   2.958  12.843 -0.2864  0.3301 -0.2710
 5436TIP3    H137723   3.692   3.013  12.861  1.1906 -1.2180 -1.5253
 5436TIP3    H237724   3.548   3.019  12.815  1.1219  1.5815 -1.0570
 5437TIP3   OH237725   2.259   0.372   5.815  0.6508 -0.3134 -0.7247
 5437TIP3    H137726   2.254   0.458   5.856 -1.1872 -0.0110 -1.5379
 5437TIP3    H237727   2.297   0.389   5.729  1.5236 -0.5153 -0.3901
 5438TIP3   OH237728   4.750   3.879   1.288  0.0440 -0.0798 -0.1657
 5438TIP3    H137729   4.807   3.955   1.281 -1.0718  0.8960  1.1015
 5438TIP3    H237730   4.678   3.897   1.228 -0.5978  0.2199  0.6823
 5439TIP3   OH237731   6.384   0.193  16.254  0.4057  0.0846 -0.2547
 5439TIP3    H137732   6.404   0.169  16.163  0.8482 -0.8316  0.0783
 5439TIP3    H237733   6.307   0.141  16.276 -0.8555  1.6872 -0.6889
 5440TIP3   OH237734   6.614   3.862  16.354 -0.7382  0.1927 -0.8675
 5440TIP3    H137735   6.650   3.799  16.417  1.0577  1.6126 -0.4265
 5440TIP3    H237736   6.527   3.884  16.389 -0.2627  0.0286  0.4564
 5441TIP3   OH237737   3.244   0.866  12.751 -0.1446  0.1951 -0.6119
 5441TIP3    H137738   3.181   0.816  12.803 -0.2984  0.3014 -0.6961
 5441TIP3    H237739   3.315   0.886  12.812  0.4301 -1.0490 -0.8417
 5442TIP3   OH237740   2.519   6.423  12.585  0.4964  0.2458  0.1830
 5442TIP3    H137741   2.480   6.358  12.527 -0.3199  0.7723  0.1290
 5442TIP3    H237742   2.610   6.396  12.594  1.0192  0.9646 -2.5123
 5443TIP3   OH237743   0.098   5.754  16.529  0.7380  0.0363 -0.5347
 5443TIP3    H137744   0.139   5.678  16.571 -0.1557  0.3205  0.8755
 5443TIP3    H237745   0.171   5.799  16.486  1.3978 -1.1904 -0.7236
 5444TIP3   OH237746   0.654   3.607   0.135 -0.1168 -0.6296 -0.2534
 5444TIP3    H137747   0.643   3.665   0.059  0.7236 -0.3070 -0.1256
 5444TIP3    H237748   0.564   3.580   0.157 -0.6656  1.6851  0.5174
 5445TIP3   OH237749   4.738   4.621   3.025  0.2261  0.5649  0.4576
 5445TIP3    H137750   4.746   4.526   3.017 -1.9938  0.2885  1.0980
 5445TIP3    H237751   4.827   4.652   3.040  0.9652 -1.4185  0.2500
 5446TIP3   OH237752   5.189   1.042  16.807  0.4293 -0.7316 -0.2933
 5446TIP3    H137753   5.136   1.101  16.862 -0.1630 -0.3245 -1.2851
 5446TIP3    H237754   5.145   1.044  16.722  1.6603 -0.9263 -0.9396
 5447TIP3   OH237755   3.722   5.733  14.194  0.3496 -0.3211 -0.1981
 5447TIP3    H137756   3.761   5.730  14.107 -0.2194  0.4551 -0.4820
 5447TIP3    H237757   3.765   5.662  14.242  0.5831 -0.8190 -1.1380
 5448TIP3   OH237758   2.280   1.391   0.607 -0.0775  0.3017  0.4481
 5448TIP3    H137759   2.219   1.334   0.654 -1.5202  0.7624 -0.8212
 5448TIP3    H237760   2.312   1.337   0.535  0.6328  0.2384  0.8011
 5449TIP3   OH237761   3.151   1.125  16.124 -0.7507  0.1034  0.0804
 5449TIP3    H137762   3.215   1.124  16.195 -0.7877  2.3044  0.1695
 5449TIP3    H237763   3.198   1.161  16.049 -2.7571  5.4178  1.1292
 5450TIP3   OH237764   2.498   1.974   2.439 -0.4452 -0.4293  0.1971
 5450TIP3    H137765   2.517   2.067   2.440 -0.0662 -0.4957 -0.7547
 5450TIP3    H237766   2.454   1.958   2.523  0.8123  0.3224  1.0190
 5451TIP3   OH237767   4.675   6.742   6.545 -0.0460 -0.0913 -0.3179
 5451TIP3    H137768   4.700   6.729   6.454  0.6484 -0.9533 -0.0134
 5451TIP3    H237769   4.583   6.716   6.548 -0.9625  2.8154 -1.3780
 5452TIP3   OH237770   2.808   3.934  12.467  0.1309 -0.4058  0.5432
 5452TIP3    H137771   2.788   3.953  12.558 -0.9154  4.5496 -0.5476
 5452TIP3    H237772   2.726   3.900  12.431 -0.6072  1.1585  0.6752
 5453TIP3   OH237773   3.207   1.192  12.520  0.3196  0.2618  0.5379
 5453TIP3    H137774   3.262   1.228  12.590  0.8980  0.9687 -0.2675
 5453TIP3    H237775   3.131   1.156  12.566  1.3676 -0.5928  1.6505
 5454TIP3   OH237776   3.019   1.976  14.835 -0.3350 -0.1083 -0.0241
 5454TIP3    H137777   3.034   1.947  14.745 -1.3046 -1.9205  0.3755
 5454TIP3    H237778   2.924   1.973  14.846 -0.2643  0.7057  0.8577
 5455TIP3   OH237779   6.202   0.397  13.946  0.7080 -0.3386 -0.9534
 5455TIP3    H137780   6.161   0.479  13.919  3.2130  1.8407  1.5003
 5455TIP3    H237781   6.295   0.409  13.927  1.0807 -2.7237 -0.8009
 5456TIP3   OH237782   0.859   5.792   1.623 -0.4775  0.5036  0.3610
 5456TIP3    H137783   0.773   5.782   1.664 -1.3782 -2.0347 -1.9761
 5456TIP3    H237784   0.854   5.876   1.577 -1.6333  0.4961  0.4553
 5457TIP3   OH237785   4.169   4.003  14.287 -0.3170 -0.0404 -0.3882
 5457TIP3    H137786   4.129   3.996  14.374  0.9975 -2.3600  0.0746
 5457TIP3    H237787   4.232   3.931  14.284 -0.8392 -0.4536 -3.5331
 5458TIP3   OH237788   6.071   3.147  14.185 -0.3351  0.1896  0.4331
 5458TIP3    H137789   6.121   3.131  14.105 -0.3119 -0.2303  0.5274
 5458TIP3    H237790   6.134   3.131  14.256 -0.2783  0.8356  0.5285
 5459TIP3   OH237791   4.153   0.089  14.297  0.1464  0.1043 -0.1594
 5459TIP3    H137792   4.232   0.130  14.333  0.8381  0.3713 -1.9497
 5459TIP3    H237793   4.151   0.002  14.337  0.4972  0.6633  1.0865
 5460TIP3   OH237794   3.561   2.935  13.249  0.8492  0.2898  0.5151
 5460TIP3    H137795   3.598   2.925  13.336 -0.1655  1.5755  1.1065
 5460TIP3    H237796   3.637   2.948  13.192  1.4196  0.9717  1.4334
 5461TIP3   OH237797   6.766   2.385  14.669  0.5584 -0.4508 -0.0931
 5461TIP3    H137798   6.789   2.333  14.592  0.4629 -3.3189  1.7405
 5461TIP3    H237799   6.849   2.398  14.715  0.8926  2.6521 -1.4255
 5462TIP3   OH237800   2.253   4.848   0.967 -0.0281 -0.3437  0.1159
 5462TIP3    H137801   2.308   4.791   0.914 -1.1866 -0.5188 -0.9140
 5462TIP3    H237802   2.288   4.838   1.056  1.3699 -0.7120 -0.4598
 5463TIP3   OH237803   3.713   6.660  11.389 -0.3869  0.0992  0.2720
 5463TIP3    H137804   3.802   6.694  11.402 -0.8817  1.7482 -0.5034
 5463TIP3    H237805   3.726   6.578  11.341  0.7224  0.2975  0.2057
 5464TIP3   OH237806   0.541   4.879  13.553 -0.8189  0.3871 -0.3061
 5464TIP3    H137807   0.462   4.905  13.600 -1.8607  0.4350 -2.0463
 5464TIP3    H237808   0.564   4.955  13.499  0.5729  0.4704  0.3736
 5465TIP3   OH237809   1.527   5.957  15.316  0.1982  0.1310  0.2015
 5465TIP3    H137810   1.491   5.937  15.403  2.7195 -0.1160  1.2243
 5465TIP3    H237811   1.517   5.875  15.267  0.2111 -0.2221  0.7797
 5466TIP3   OH237812   0.685   2.625   1.580  0.1313  0.0457  0.4881
 5466TIP3    H137813   0.748   2.554   1.581  0.2630  0.1540  2.1764
 5466TIP3    H237814   0.738   2.704   1.572 -0.0022 -0.0194 -1.1873
 5467TIP3   OH237815   6.771   2.963   3.090  0.1529 -0.2832 -0.5451
 5467TIP3    H137816   6.761   3.058   3.088  0.8107 -0.2328 -2.9369
 5467TIP3    H237817   6.854   2.946   3.046 -0.9530 -2.0613 -2.0291
 5468TIP3   OH237818   1.775   5.595   1.936  0.2802 -0.3360 -0.0961
 5468TIP3    H137819   1.779   5.690   1.943  0.1837 -0.2698 -0.8455
 5468TIP3    H237820   1.805   5.576   1.847 -0.1231 -0.9728 -0.1036
 5469TIP3   OH237821   0.014   1.432  13.437 -0.3121  0.5044  0.4867
 5469TIP3    H137822   0.092   1.391  13.474  0.0426  1.2697  0.6029
 5469TIP3    H237823   0.047   1.491  13.369 -0.8625  0.1170 -0.1288
 5470TIP3   OH237824   6.013   3.665   2.221 -0.3312 -0.4543  0.0010
 5470TIP3    H137825   6.025   3.578   2.183 -1.5167 -0.9865  0.8086
 5470TIP3    H237826   6.093   3.683   2.269  0.0714 -0.9330 -0.4927
 5471TIP3   OH237827   0.598   4.655  10.944 -0.1909 -0.3073  0.5353
 5471TIP3    H137828   0.524   4.646  10.883  1.1056 -1.1039 -0.9355
 5471TIP3    H237829   0.569   4.610  11.024 -0.7300 -1.8776 -0.5346
 5472TIP3   OH237830   1.241   3.268   4.635  0.4536 -0.6959  0.0565
 5472TIP3    H137831   1.295   3.300   4.562  0.0112 -3.2895 -1.4704
 5472TIP3    H237832   1.303   3.241   4.702  0.8721  1.6839  0.6636
 5473TIP3   OH237833   6.076   6.110   4.964  0.2233  0.4835 -0.3157
 5473TIP3    H137834   6.152   6.051   4.961 -0.0202 -0.0326  2.2294
 5473TIP3    H237835   6.045   6.104   5.055 -1.5614  2.3401 -0.7678
 5474TIP3   OH237836   3.006   4.447   1.003 -0.1607 -0.6920 -0.1069
 5474TIP3    H137837   2.917   4.480   0.987 -0.5115 -2.3111 -1.5634
 5474TIP3    H237838   3.046   4.442   0.916  1.2893 -0.2396  0.5117
 5475TIP3   OH237839   6.580   5.487  13.327  0.4761 -0.2283  0.0939
 5475TIP3    H137840   6.576   5.522  13.238 -1.3704  2.3749  1.1604
 5475TIP3    H237841   6.634   5.549  13.376  3.0178 -2.6067  0.4232
 5476TIP3   OH237842   4.711   1.094  16.074 -0.3733  0.4449 -0.4297
 5476TIP3    H137843   4.674   1.005  16.074 -0.4220  0.4583 -1.6200
 5476TIP3    H237844   4.683   1.131  16.158 -2.3284  0.1415 -0.9196
 5477TIP3   OH237845   2.242   1.311  12.541  0.2717  0.0004  0.0816
 5477TIP3    H137846   2.161   1.262  12.557  0.9741 -1.3956 -0.5876
 5477TIP3    H237847   2.285   1.314  12.626 -0.1144  0.0765  0.2760
 5478TIP3   OH237848   1.768   6.286  14.464  0.3221  0.5786 -0.1670
 5478TIP3    H137849   1.722   6.304  14.546 -0.2332  1.8391 -0.7508
 5478TIP3    H237850   1.712   6.223  14.419 -0.3105  1.3087 -0.4067
 5479TIP3   OH237851   2.168   1.846  10.738  0.1327  0.5536 -0.6719
 5479TIP3    H137852   2.148   1.887  10.823  0.4994  0.2652 -0.4477
 5479TIP3    H237853   2.233   1.779  10.758  1.3755  1.5201 -1.4262
 5480TIP3   OH237854   4.961   5.910   5.107 -0.3416 -0.1634  0.1564
 5480TIP3    H137855   5.036   5.877   5.157 -0.6637 -0.3347  0.5174
 5480TIP3    H237856   4.888   5.908   5.168 -0.7890 -0.6149 -0.3970
 5481TIP3   OH237857   5.548   4.707   0.094  0.3453  0.0858  0.2244
 5481TIP3    H137858   5.467   4.722   0.142  0.7434  3.1914  0.0094
 5481TIP3    H237859   5.539   4.759   0.014  3.0492  1.5197  0.7928
 5482TIP3   OH237860   1.549   3.155   1.405  0.1549  0.6523  0.4171
 5482TIP3    H137861   1.547   3.240   1.448 -1.7466  1.9483 -2.0321
 5482TIP3    H237862   1.471   3.110   1.438 -0.8543  1.3334 -0.9421
 5483TIP3   OH237863   4.522   0.969   5.615  0.5809  0.8150 -0.1490
 5483TIP3    H137864   4.443   1.000   5.660 -0.3699  0.9193 -1.8353
 5483TIP3    H237865   4.591   1.027   5.647 -0.1878  1.2911  0.6929
 5484TIP3   OH237866   3.168   3.829  16.028 -0.4873 -0.4554 -1.1941
 5484TIP3    H137867   3.231   3.839  16.100  0.1553  0.6678 -1.9060
 5484TIP3    H237868   3.092   3.880  16.055 -1.9274 -3.3838  0.5663
 5485TIP3   OH237869   2.206   5.786  14.480  0.5290 -0.4224 -0.3916
 5485TIP3    H137870   2.162   5.828  14.406 -0.0190 -0.6774 -0.2107
 5485TIP3    H237871   2.138   5.734  14.523  0.4334  1.0898  1.3307
 5486TIP3   OH237872   0.948   0.382  12.566 -0.1381  0.2937  0.5707
 5486TIP3    H137873   0.882   0.409  12.629  1.8819 -0.0243  2.8943
 5486TIP3    H237874   0.898   0.343  12.494 -2.5864  2.3820  1.0672
 5487TIP3   OH237875   1.709   6.474   0.029  0.1250 -0.1368 -0.5444
 5487TIP3    H137876   1.670   6.561   0.033  0.0314 -0.2105  0.3738
 5487TIP3    H237877   1.787   6.484  -0.024  0.3681  0.6042 -0.0506
 5488TIP3   OH237878   6.456   0.397   3.061  0.4605 -0.0360  0.0252
 5488TIP3    H137879   6.519   0.427   2.995  0.2640  1.3288  0.4318
 5488TIP3    H237880   6.387   0.463   3.060 -0.1814 -0.6925  0.6868
 5489TIP3   OH237881   2.961   5.561   4.044  1.0411 -0.4430 -0.0034
 5489TIP3    H137882   3.024   5.537   4.113  0.6215 -1.0057  0.1866
 5489TIP3    H237883   2.896   5.491   4.046  0.3953  0.1533 -0.1907
 5490TIP3   OH237884   2.672   6.574   0.695  0.3761  0.1336  0.4713
 5490TIP3    H137885   2.626   6.654   0.720  0.0884 -0.2476  1.1955
 5490TIP3    H237886   2.664   6.517   0.772  1.4339 -0.2156  0.3273
 5491TIP3   OH237887   0.974   4.078   4.152  0.3236 -0.2561 -0.1011
 5491TIP3    H137888   0.980   4.158   4.204 -0.1747 -0.6887  0.6397
 5491TIP3    H237889   1.004   4.103   4.065 -1.0048  1.0513 -0.2129
 5492TIP3   OH237890   2.239   0.337  11.504 -0.1101 -0.3649 -0.2744
 5492TIP3    H137891   2.262   0.266  11.443  0.6724 -0.5245  0.2066
 5492TIP3    H237892   2.148   0.357  11.482 -0.4621 -1.7658 -0.1841
 5493TIP3   OH237893   4.182   0.960  10.690 -0.0620 -0.0431 -0.3297
 5493TIP3    H137894   4.110   0.901  10.714 -2.1913  1.8197 -1.8906
 5493TIP3    H237895   4.192   0.950  10.596  0.1653  1.4125 -0.4721
 5494TIP3   OH237896   3.323   4.298  15.136 -1.0328  0.2030 -0.0507
 5494TIP3    H137897   3.228   4.301  15.149 -1.0823 -0.2725 -0.2998
 5494TIP3    H237898   3.347   4.387  15.111 -1.5347  0.1120 -0.8477
 5495TIP3   OH237899   2.122   4.097   1.857 -0.1103  0.0044  0.1231
 5495TIP3    H137900   2.115   4.151   1.935  0.6662 -0.2050  0.3408
 5495TIP3    H237901   2.128   4.159   1.785  0.7177  0.2096  0.3653
 5496TIP3   OH237902   0.470   0.558   4.627 -0.6311  0.0801  0.1668
 5496TIP3    H137903   0.471   0.640   4.578 -0.3542 -0.3728 -0.5870
 5496TIP3    H237904   0.553   0.559   4.676  0.2518 -0.6051 -1.2805
 5497TIP3   OH237905   1.244   3.178  16.118 -0.2223  0.0358 -0.5695
 5497TIP3    H137906   1.151   3.169  16.097  0.3747 -1.4490 -2.7650
 5497TIP3    H237907   1.287   3.184  16.033  1.8652 -1.2422  0.3584
 5498TIP3   OH237908   2.365   4.943  16.066 -0.0058  0.1187 -0.2266
 5498TIP3    H137909   2.297   5.009  16.053 -1.0974 -1.0627 -0.6857
 5498TIP3    H237910   2.396   4.957  16.156 -1.1126  0.4580  0.1122
 5499TIP3   OH237911   4.637   0.643  17.023 -0.5869  0.1419 -0.8750
 5499TIP3    H137912   4.646   0.725  17.071 -2.9330  0.2180 -0.5050
 5499TIP3    H237913   4.628   0.576  17.091  3.7489 -0.8076 -1.1142
 5500TIP3   OH237914   6.443   4.550   1.353  0.1289 -0.4318 -0.0363
 5500TIP3    H137915   6.484   4.521   1.272  1.1454 -1.0198  0.6752
 5500TIP3    H237916   6.360   4.502   1.355  0.3445 -0.8355 -0.4605
 5501TIP3   OH237917   0.298   3.108   0.788  0.2136 -0.2904  0.1917
 5501TIP3    H137918   0.290   3.015   0.809  1.4190 -0.1144  1.5225
 5501TIP3    H237919   0.362   3.111   0.717 -0.8028 -0.5715 -0.7420
 5502TIP3   OH237920   0.674   3.113   1.472 -0.0408  0.4200 -0.2618
 5502TIP3    H137921   0.642   3.184   1.528  0.7746  0.9205 -0.4245
 5502TIP3    H237922   0.669   3.147   1.383  1.7259  0.8047 -0.2149
 5503TIP3   OH237923   1.370   1.983   2.655 -0.3158  0.4059  0.4784
 5503TIP3    H137924   1.458   1.946   2.664 -0.0731 -0.1030 -3.1919
 5503TIP3    H237925   1.312   1.908   2.668 -0.0104 -0.2318 -1.6613
 5504TIP3   OH237926   5.029   6.768  17.143  0.1320  0.2909 -0.1463
 5504TIP3    H137927   5.031   6.778  17.239 -0.3980 -0.8616 -0.0090
 5504TIP3    H237928   5.084   6.840  17.111 -0.1364  1.0295  0.9959
 5505TIP3   OH237929   1.344   2.384  15.296 -0.4586 -0.2176  0.0579
 5505TIP3    H137930   1.374   2.430  15.375  1.1533 -0.1943 -0.5626
 5505TIP3    H237931   1.251   2.369  15.312 -0.4132  0.8417  1.4586
 5506TIP3   OH237932   1.243   6.023   5.607 -0.0688 -0.3336 -0.2401
 5506TIP3    H137933   1.208   5.945   5.651  0.6654  0.0232  0.9989
 5506TIP3    H237934   1.180   6.092   5.628  2.1091  0.6932  3.3475
 5507TIP3   OH237935   1.389   1.991   1.422 -0.3641 -0.2840 -0.1203
 5507TIP3    H137936   1.348   2.074   1.399 -0.9680 -1.0789 -1.9834
 5507TIP3    H237937   1.404   1.947   1.339  2.1521 -1.0374  0.6790
 5508TIP3   OH237938   0.458   0.850   1.708 -0.5021 -0.0176  0.3096
 5508TIP3    H137939   0.421   0.823   1.792 -0.5553 -1.0511 -0.0308
 5508TIP3    H237940   0.530   0.789   1.693 -0.7708 -0.1218 -0.5979
 5509TIP3   OH237941   5.478   6.274  15.498  0.4200 -0.0461 -0.1202
 5509TIP3    H137942   5.478   6.258  15.404 -1.7616  0.5287 -0.2437
 5509TIP3    H237943   5.531   6.203  15.535  3.3286  1.0985 -1.9535
 5510TIP3   OH237944   1.525   1.816  14.760  0.5053  0.6855  0.0541
 5510TIP3    H137945   1.489   1.896  14.721  1.8940  1.7988  0.9690
 5510TIP3    H237946   1.527   1.835  14.854 -1.8018 -1.5357  0.6106
 5511TIP3   OH237947   5.023   6.708   2.551 -0.3622  0.5739  0.0812
 5511TIP3    H137948   5.075   6.783   2.581  3.0302 -1.9475  0.7825
 5511TIP3    H237949   5.065   6.680   2.470 -1.6190 -0.5935 -0.1910
 5512TIP3   OH237950   3.370   1.862   4.667 -0.6891  0.0325  0.0710
 5512TIP3    H137951   3.369   1.933   4.602 -1.4444  0.1449  0.2004
 5512TIP3    H237952   3.375   1.908   4.752  1.2686 -0.1339  0.0722
 5513TIP3   OH237953   5.942   5.772   0.066  0.2170 -0.0645 -0.2732
 5513TIP3    H137954   5.848   5.787   0.056  0.0728  0.1142  1.2008
 5513TIP3    H237955   5.950   5.679   0.084  0.0811  0.3373  2.0364
 5514TIP3   OH237956   1.670   0.500  10.964  0.2314  0.8095 -0.1861
 5514TIP3    H137957   1.765   0.496  10.952  0.1767  0.4108 -0.5263
 5514TIP3    H237958   1.636   0.513  10.875 -0.0241  1.0432 -0.0511
 5515TIP3   OH237959   1.131   0.874   5.153  0.3858 -0.0352 -0.2345
 5515TIP3    H137960   1.136   0.961   5.192 -0.5853  1.0620 -2.4651
 5515TIP3    H237961   1.063   0.830   5.203 -0.6149  1.2319 -0.4460
 5516TIP3   OH237962   4.630   5.374  16.794 -0.2143 -0.7515  0.1641
 5516TIP3    H137963   4.615   5.359  16.887 -0.7393  0.2183  0.2334
 5516TIP3    H237964   4.646   5.468  16.787 -1.7140 -0.5739 -0.9371
 5517TIP3   OH237965   5.054   0.193   1.840  0.1813 -0.4473 -0.4006
 5517TIP3    H137966   5.039   0.274   1.888 -0.2286 -0.1571 -1.0180
 5517TIP3    H237967   5.146   0.173   1.856 -0.0861 -0.6206  0.9157
 5518TIP3   OH237968   5.615   5.617   3.998  0.2928 -0.7151  0.0511
 5518TIP3    H137969   5.642   5.530   3.967 -0.1873 -1.5520  1.8954
 5518TIP3    H237970   5.688   5.647   4.051 -0.1482 -0.6352  0.6171
 5519TIP3   OH237971   5.289   4.428   4.353 -0.1760  0.6371  0.3232
 5519TIP3    H137972   5.289   4.385   4.267 -0.6089 -1.0444  1.1469
 5519TIP3    H237973   5.327   4.363   4.412  1.2504  2.2382  1.2017
 5520TIP3   OH237974   0.786   5.073   0.636 -0.9629 -0.3508 -0.2088
 5520TIP3    H137975   0.774   5.098   0.544  0.4394 -0.8634 -0.5573
 5520TIP3    H237976   0.747   4.986   0.642  0.6663 -1.1451 -0.8196
 5521TIP3   OH237977   5.056   0.800  14.349  0.1598 -0.2092  0.3997
 5521TIP3    H137978   4.992   0.730  14.339 -0.3183  0.2796 -0.0307
 5521TIP3    H237979   5.011   0.878  14.314  1.2921 -0.0330 -0.6880
 5522TIP3   OH237980   0.506   5.647  10.940  0.1855 -0.1971  0.3338
 5522TIP3    H137981   0.531   5.669  11.030 -0.5099 -0.1056  0.5077
 5522TIP3    H237982   0.550   5.713  10.886  2.5324 -1.6285  0.3882
 5523TIP3   OH237983   4.597   2.220  16.747 -0.0758  0.0357  0.3255
 5523TIP3    H137984   4.674   2.273  16.725 -0.8577  1.1468  0.2433
 5523TIP3    H237985   4.610   2.139  16.698  2.4410 -0.9426  2.5085
 5524TIP3   OH237986   3.457   5.520  17.188  0.1236  0.0428  0.0231
 5524TIP3    H137987   3.471   5.612  17.212  1.2578 -0.3443  0.8591
 5524TIP3    H237988   3.398   5.524  17.112  0.6907  1.4821 -0.3548
 5525TIP3   OH237989   6.322   5.525  16.603  0.7019  0.5437  0.6863
 5525TIP3    H137990   6.367   5.564  16.528  0.0441 -1.5458 -0.8665
 5525TIP3    H237991   6.258   5.591  16.630  1.0023  1.3537 -0.5504
 5526TIP3   OH237992   1.836   5.422  15.046  0.0182 -0.7617  0.0724
 5526TIP3    H137993   1.881   5.366  15.109 -1.5684  0.5372  2.3905
 5526TIP3    H237994   1.824   5.505  15.091 -0.7179  0.3498 -2.1133
 5527TIP3   OH237995   3.410   3.268  16.012 -0.4274 -0.0170  0.2250
 5527TIP3    H137996   3.323   3.291  16.046 -0.5530  1.2610 -0.9166
 5527TIP3    H237997   3.445   3.351  15.978  0.6606 -0.7972 -0.5905
 5528TIP3   OH237998   0.275   3.260  11.817  0.8603  0.4976 -0.2652
 5528TIP3    H137999   0.267   3.245  11.723 -0.8561  0.1539 -0.0833
 5528TIP3    H238000   0.196   3.221  11.855  0.3803  2.6399  1.0635
 5529TIP3   OH238001   2.483   5.419  14.647 -0.1226  0.0855 -0.1569
 5529TIP3    H138002   2.510   5.511  14.642  0.0053  0.0638  0.1170
 5529TIP3    H238003   2.559   5.370  14.618 -0.2492  0.0730 -0.4670
 5530TIP3   OH238004   1.562   1.348  15.769 -0.5048  0.0244 -0.5602
 5530TIP3    H138005   1.561   1.313  15.680 -2.0028  1.2692 -1.0563
 5530TIP3    H238006   1.585   1.441  15.758 -1.2359  0.3096  0.3035
 5531TIP3   OH238007   4.234   3.421  13.478 -0.5440 -0.1372 -0.1437
 5531TIP3    H138008   4.156   3.457  13.519  1.1151  1.8518  1.3825
 5531TIP3    H238009   4.267   3.357  13.541 -0.5379 -0.4435 -0.4565
 5532TIP3   OH238010   6.301   4.591   5.152  0.5370 -0.2676  0.2063
 5532TIP3    H138011   6.358   4.662   5.181 -2.3821  1.5080  1.7298
 5532TIP3    H238012   6.300   4.529   5.225 -1.4325  0.9348  1.2424
 5533TIP3   OH238013   3.045   1.444   4.885 -0.0030  0.3474  0.0480
 5533TIP3    H138014   3.049   1.484   4.972  0.8130 -1.3095  0.7930
 5533TIP3    H238015   3.106   1.496   4.832 -0.6528  1.4865  0.3978
 5534TIP3   OH238016   3.636   2.166  15.356 -0.2928  0.4886  0.1790
 5534TIP3    H138017   3.676   2.251  15.371 -0.6904  0.8419 -0.6911
 5534TIP3    H238018   3.698   2.103  15.391  0.1167  1.1289  0.6031
 5535TIP3   OH238019   3.498   2.156  15.701  0.7298 -0.5635  0.1361
 5535TIP3    H138020   3.441   2.171  15.777  2.0829  0.2041  1.0177
 5535TIP3    H238021   3.502   2.242  15.658 -1.3188 -1.3480 -1.7529
 5536TIP3   OH238022   6.358   4.264  17.027  0.1688  0.0940 -0.2428
 5536TIP3    H138023   6.381   4.323  17.098 -0.3441  0.2547 -0.2092
 5536TIP3    H238024   6.429   4.201  17.024  1.2724  1.3535 -0.9997
 5537TIP3   OH238025   2.285   3.125   1.142  0.1515  0.3892 -0.3775
 5537TIP3    H138026   2.227   3.103   1.216 -0.7481 -0.1863 -1.2473
 5537TIP3    H238027   2.225   3.146   1.071  1.0213  1.5228 -0.7869
 5538TIP3   OH238028   6.680   6.256  15.249  0.4826  0.1207  0.5164
 5538TIP3    H138029   6.611   6.252  15.182  1.5878 -1.2752 -0.5714
 5538TIP3    H238030   6.633   6.276  15.330 -0.8292  2.1598 -0.7099
 5539TIP3   OH238031   3.842   2.671  13.983 -0.3111 -0.5430 -0.2974
 5539TIP3    H138032   3.924   2.647  13.939 -0.5724  0.0623 -1.1287
 5539TIP3    H238033   3.807   2.588  14.014 -1.7062 -1.4096 -4.0192
 5540TIP3   OH238034   6.168   3.273   5.967  0.1355 -0.1106  0.2028
 5540TIP3    H138035   6.100   3.312   6.022 -0.5298 -3.1905  1.7024
 5540TIP3    H238036   6.226   3.229   6.030  1.5249 -0.4781 -1.3110
 5541TIP3   OH238037   3.183   0.530  12.569  0.1426 -0.3857 -0.7524
 5541TIP3    H138038   3.101   0.568  12.600  0.3542  0.0585 -0.7386
 5541TIP3    H238039   3.228   0.601  12.524  0.7452 -0.4896 -0.3275
 5542TIP3   OH238040   5.000   6.680  13.412  0.7446  0.2005  0.2221
 5542TIP3    H138041   4.925   6.697  13.468  0.8321  1.2989  0.0113
 5542TIP3    H238042   4.979   6.723  13.329  1.3630  0.0428 -0.0272
 5543TIP3   OH238043   3.214   3.531  12.271  0.3604  0.2298  0.4068
 5543TIP3    H138044   3.166   3.449  12.260  0.0416  0.5247 -0.3725
 5543TIP3    H238045   3.162   3.596  12.225  1.9074  0.4050 -1.1200
 5544TIP3   OH238046   3.709   2.968  16.868  0.4292  0.3216  0.3439
 5544TIP3    H138047   3.792   2.923  16.885 -0.7643 -2.1443 -0.1689
 5544TIP3    H238048   3.712   3.045  16.925  2.0867 -0.9628  2.0779
 5545TIP3   OH238049   1.500   0.404  16.805 -0.6340 -0.8218  0.0781
 5545TIP3    H138050   1.584   0.369  16.777 -0.3617 -0.1538  0.0475
 5545TIP3    H238051   1.451   0.416  16.723  0.0879  0.9388 -0.1227
 5546TIP3   OH238052   1.597   3.615  12.256 -0.2601 -0.3296  0.5913
 5546TIP3    H138053   1.547   3.691  12.287  2.0545  1.2636  0.5859
 5546TIP3    H238054   1.531   3.554  12.224 -2.1715  1.7997  0.3284
 5547TIP3   OH238055   0.979   6.402  10.627  0.3740 -0.1038 -0.1151
 5547TIP3    H138056   0.961   6.479  10.681 -0.3135  1.2194 -2.1563
 5547TIP3    H238057   0.943   6.328  10.676 -4.0918  1.5464 -0.6758
 5548TIP3   OH238058   1.613   2.320  15.116  0.4906 -0.1173  0.4436
 5548TIP3    H138059   1.640   2.287  15.030  1.8139 -1.1170  1.2339
 5548TIP3    H238060   1.517   2.316  15.114  0.5072 -0.1863 -0.9569
 5549TIP3   OH238061   3.707   6.420   2.668 -0.1743 -0.0209 -0.1563
 5549TIP3    H138062   3.765   6.347   2.690 -0.8515 -0.1455  1.2756
 5549TIP3    H238063   3.618   6.384   2.679 -0.5769  1.8938  3.9172
 5550TIP3   OH238064   6.537   0.066   5.658  0.0119  0.2713  0.2299
 5550TIP3    H138065   6.449   0.043   5.626 -0.0153  0.8392 -0.0971
 5550TIP3    H238066   6.528   0.068   5.753 -0.5093  1.0653  0.1653
 5551TIP3   OH238067   2.208   5.541   4.962 -0.0775  0.2545 -0.5463
 5551TIP3    H138068   2.148   5.538   4.887 -0.7625 -1.0776  0.0289
 5551TIP3    H238069   2.229   5.449   4.979 -2.2878  0.2552  2.7042
 5552TIP3   OH238070   0.674   2.563   3.769 -0.0378 -0.8255  0.4300
 5552TIP3    H138071   0.636   2.650   3.762 -0.3158 -0.9578  0.2777
 5552TIP3    H238072   0.742   2.560   3.702 -0.1140 -0.7729  0.3517
 5553TIP3   OH238073   3.789   1.119  12.971  0.1637  0.3909  0.5590
 5553TIP3    H138074   3.864   1.167  13.006  0.7115  0.2077 -0.3669
 5553TIP3    H238075   3.756   1.069  13.045  0.5507  0.9731  1.1339
 5554TIP3   OH238076   1.400   2.555   1.945  0.4358 -0.1446 -0.1258
 5554TIP3    H138077   1.414   2.541   2.038  0.2179  0.4395 -0.0061
 5554TIP3    H238078   1.484   2.590   1.913  0.0915  0.9263  0.1097
 5555TIP3   OH238079   4.699   6.057   1.768  0.0170 -0.2394  0.1443
 5555TIP3    H138080   4.677   6.144   1.802  0.9989 -0.1737  0.6435
 5555TIP3    H238081   4.762   6.075   1.698  0.0712 -0.5387  0.1165
 5556TIP3   OH238082   3.797   1.743   4.909  0.1566 -0.1539 -0.5113
 5556TIP3    H138083   3.871   1.682   4.916  0.1799  0.0652  1.5068
 5556TIP3    H238084   3.720   1.687   4.907  0.3277 -0.3500 -1.6025
 5557TIP3   OH238085   3.282   3.334  10.618 -0.1369 -0.3830 -0.1707
 5557TIP3    H138086   3.371   3.366  10.636  0.8902 -0.9931 -3.7483
 5557TIP3    H238087   3.294   3.241  10.598 -1.5798 -0.4810 -0.6119
 5558TIP3   OH238088   3.880   3.964   1.585  0.1451 -0.2007 -0.9304
 5558TIP3    H138089   3.808   4.009   1.629  1.4507  0.6209  0.4318
 5558TIP3    H238090   3.867   3.872   1.605 -0.8329 -0.1189 -1.1577
 5559TIP3   OH238091   3.361   6.421  12.936  0.0769 -0.0418  0.3701
 5559TIP3    H138092   3.403   6.370  12.866  0.6596  1.1454 -0.1577
 5559TIP3    H238093   3.302   6.359  12.978  2.0730 -1.6499  0.8790
 5560TIP3   OH238094   5.788   5.783   1.688  0.5037 -0.5427  0.0790
 5560TIP3    H138095   5.864   5.745   1.732  0.3193 -1.2463 -0.1935
 5560TIP3    H238096   5.713   5.751   1.739  0.4094  0.5900  0.6767
 5561TIP3   OH238097   2.410   3.348  14.640  0.2448  0.5603 -0.5579
 5561TIP3    H138098   2.496   3.319  14.672 -0.2766  1.0395  1.3466
 5561TIP3    H238099   2.416   3.340  14.545  2.0967 -0.2571 -0.4005
 5562TIP3   OH238100   6.354   0.728   4.135  0.7815  0.4529 -0.3912
 5562TIP3    H138101   6.445   0.753   4.151  0.4776  1.1801  0.2484
 5562TIP3    H238102   6.306   0.766   4.208  0.0854 -0.7164 -0.2357
 5563TIP3   OH238103   6.703   5.149  14.895 -0.6781  0.2101  0.4571
 5563TIP3    H138104   6.613   5.171  14.919 -0.4220  2.1141 -0.3096
 5563TIP3    H238105   6.704   5.151  14.799  0.4519  1.3218  0.4818
 5564TIP3   OH238106   1.424   3.167   0.490 -0.2273 -0.2210 -0.9570
 5564TIP3    H138107   1.438   3.257   0.518 -1.4734 -0.0910 -0.7424
 5564TIP3    H238108   1.337   3.167   0.450  0.0115 -1.1978 -1.4970
 5565TIP3   OH238109   4.950   3.170   2.125 -0.4588 -0.1322 -0.2902
 5565TIP3    H138110   4.889   3.136   2.059 -2.3998  3.0349 -0.2279
 5565TIP3    H238111   4.910   3.145   2.208  0.3148 -1.3461 -0.2822
 5566TIP3   OH238112   4.194   6.212  11.993  0.3474  0.0869  0.1048
 5566TIP3    H138113   4.183   6.156  12.070 -1.7684 -0.3628 -0.4803
 5566TIP3    H238114   4.232   6.154  11.926  1.1415  0.1858  0.4716
 5567TIP3   OH238115   3.977   3.159   3.802 -0.1764  0.6208  0.0476
 5567TIP3    H138116   4.047   3.119   3.751 -1.1268  0.1942 -0.9456
 5567TIP3    H238117   4.005   3.250   3.814  0.6936  0.3702 -0.0583
 5568TIP3   OH238118   3.739   1.009   2.360  0.2636 -0.0446 -0.2627
 5568TIP3    H138119   3.777   1.016   2.447  0.5067  1.5997 -0.4812
 5568TIP3    H238120   3.728   0.915   2.346  1.7354 -0.4117  0.8932
 5569TIP3   OH238121   6.722   0.571  11.962  0.0608  0.0011  0.1719
 5569TIP3    H138122   6.639   0.580  11.915  0.1928  0.8961  0.0960
 5569TIP3    H238123   6.740   0.477  11.961 -1.4131 -0.3129  0.9754
 5570TIP3   OH238124   2.793   6.439  12.206  0.4209  0.0784 -0.3847
 5570TIP3    H138125   2.819   6.525  12.173  1.4331  0.1781  0.6340
 5570TIP3    H238126   2.723   6.457  12.268 -0.6468 -0.0064 -1.5390
 5571TIP3   OH238127   1.838   6.442  16.532  0.1045 -0.1179 -0.5521
 5571TIP3    H138128   1.884   6.363  16.502  2.6345  0.6793  1.0038
 5571TIP3    H238129   1.859   6.508  16.466 -0.3861 -0.2419 -0.8337
 5572TIP3   OH238130   0.455   1.895   5.986  0.7221 -0.2858  0.7558
 5572TIP3    H138131   0.544   1.862   5.999  0.5701 -0.4833  1.3160
 5572TIP3    H238132   0.400   1.818   5.990  0.5678 -0.2296 -0.1225
 5573TIP3   OH238133   5.346   5.028  15.294  0.0330 -0.4493 -0.6390
 5573TIP3    H138134   5.346   4.950  15.349  1.4250  0.6033  0.9445
 5573TIP3    H238135   5.277   5.083  15.331  0.8309  0.1742 -0.0612
 5574TIP3   OH238136   2.229   3.593  11.362  0.0260  0.0165  0.3523
 5574TIP3    H138137   2.205   3.614  11.452  1.4393 -0.7001  0.9119
 5574TIP3    H238138   2.261   3.675  11.325  0.0545  0.1638  0.7081
 5575TIP3   OH238139   2.680   5.450   0.891  0.3274  0.0344  0.2760
 5575TIP3    H138140   2.622   5.388   0.936 -1.6797  1.1023 -0.7975
 5575TIP3    H238141   2.755   5.397   0.863 -0.2611 -1.4250  1.4267
 5576TIP3   OH238142   5.978   0.714   1.657  0.3089  0.0759  0.3672
 5576TIP3    H138143   6.035   0.790   1.643  1.4898 -0.7877  0.4555
 5576TIP3    H238144   6.017   0.667   1.730 -1.2586  0.1596  1.2787
 5577TIP3   OH238145   5.591   5.289  13.989 -0.2368  0.1106  0.6377
 5577TIP3    H138146   5.527   5.249  14.048 -0.3991  1.7407  1.6073
 5577TIP3    H238147   5.613   5.220  13.926 -0.6076 -1.4345  2.1685
 5578TIP3   OH238148   5.113   5.693  13.897  0.4914 -0.2585  0.0238
 5578TIP3    H138149   5.117   5.780  13.937  2.4774  0.3538 -1.4347
 5578TIP3    H238150   5.023   5.664  13.912 -0.5354  2.5206 -0.4321
 5579TIP3   OH238151   1.965   3.864  16.791  1.0518 -0.2090  0.0786
 5579TIP3    H138152   1.986   3.921  16.865  3.2383  1.0738 -1.4755
 5579TIP3    H238153   1.877   3.891  16.765  0.0646 -0.9847  2.4451
 5580TIP3   OH238154   6.352   3.014  14.149  0.9953  0.8464 -0.2793
 5580TIP3    H138155   6.303   3.078  14.096 -1.2066  0.7069  1.5230
 5580TIP3    H238156   6.374   3.061  14.229 -2.0905 -1.0731  1.7832
 5581TIP3   OH238157   3.291   1.646  15.247 -0.3956  0.4576  0.1438
 5581TIP3    H138158   3.377   1.659  15.286  0.1467  1.1442 -1.2313
 5581TIP3    H238159   3.300   1.680  15.158 -1.7229 -0.6494 -0.4303
 5582TIP3   OH238160   0.427   5.961   1.070 -0.4250 -0.4467  0.0408
 5582TIP3    H138161   0.464   5.881   1.033  0.4172  0.4148 -0.9995
 5582TIP3    H238162   0.500   6.023   1.070 -1.7697  1.1775 -1.7200
 5583TIP3   OH238163   0.208   5.055   6.085 -0.2578 -0.6767  0.0308
 5583TIP3    H138164   0.259   4.977   6.064 -0.0081 -0.9849  1.6639
 5583TIP3    H238165   0.176   5.039   6.174 -2.6502 -0.1753 -0.7281
 5584TIP3   OH238166   0.250   2.192   5.090  0.1270  0.4363 -0.3087
 5584TIP3    H138167   0.196   2.226   5.018 -0.9780  1.2230  0.8713
 5584TIP3    H238168   0.246   2.097   5.079  2.5328  0.5936 -3.1172
 5585TIP3   OH238169   4.396   4.532  10.768  0.2335  0.2829  0.3190
 5585TIP3    H138170   4.408   4.447  10.724 -0.5304  1.5192 -2.4125
 5585TIP3    H238171   4.318   4.520  10.822 -1.1939 -0.1482 -1.7601
 5586TIP3   OH238172   1.712   3.061   2.153  0.0739  0.2608 -0.3019
 5586TIP3    H138173   1.678   3.072   2.064  1.1599  0.0562 -0.7507
 5586TIP3    H238174   1.804   3.087   2.147  0.0840  0.5123  0.8255
 5587TIP3   OH238175   4.104   1.232  16.441 -0.5446 -0.0022 -0.2266
 5587TIP3    H138176   4.035   1.166  16.441 -0.3814 -0.1897  1.7682
 5587TIP3    H238177   4.058   1.316  16.432 -0.9333 -0.2206 -0.2518
 5588TIP3   OH238178   4.135   2.013  13.135  0.2448 -0.2692  0.6317
 5588TIP3    H138179   4.064   2.072  13.158 -0.8451 -0.9863 -0.8158
 5588TIP3    H238180   4.118   1.933  13.185 -1.0086 -1.0996 -1.0702
 5589TIP3   OH238181   6.450   2.377   5.245 -0.2012  0.3400 -0.1826
 5589TIP3    H138182   6.424   2.348   5.332 -0.7095 -0.8159 -0.7033
 5589TIP3    H238183   6.496   2.301   5.207  0.2958  0.9359 -0.7998
 5590TIP3   OH238184   2.586   0.357  10.645  0.2886  0.1317 -0.3943
 5590TIP3    H138185   2.579   0.415  10.570 -2.2385  0.3980  0.0144
 5590TIP3    H238186   2.676   0.368  10.676  0.7420  1.5117 -2.1510
 5591TIP3   OH238187   4.889   4.211   2.772  0.3576  0.1005 -0.3460
 5591TIP3    H138188   4.944   4.246   2.702  0.4252  0.2088 -0.2382
 5591TIP3    H238189   4.939   4.226   2.852  1.7275 -2.8877 -0.5840
 5592TIP3   OH238190   5.564   0.488   2.841  0.1680  0.6618 -0.3866
 5592TIP3    H138191   5.652   0.523   2.827 -0.1205  1.0526 -1.2855
 5592TIP3    H238192   5.535   0.530   2.922  1.3467 -0.5798  0.7021
 5593TIP3   OH238193   6.565   4.270   4.164  0.5117  0.1497  0.0122
 5593TIP3    H138194   6.515   4.265   4.083  0.5162  0.8232 -0.0360
 5593TIP3    H238195   6.553   4.184   4.205 -0.5500  0.2396 -0.0788
 5594TIP3   OH238196   6.161   0.410  12.173  0.1153 -0.1705  0.2733
 5594TIP3    H138197   6.189   0.328  12.214 -0.0723 -0.3866 -0.0308
 5594TIP3    H238198   6.212   0.415  12.092 -0.5859 -0.4624 -0.1801
 5595TIP3   OH238199   5.061   1.198  12.470  0.1959  0.1962  0.5347
 5595TIP3    H138200   5.035   1.260  12.538 -0.1957  0.3591  0.2399
 5595TIP3    H238201   4.997   1.210  12.400 -0.2034 -0.9397  0.7023
 5596TIP3   OH238202   1.909   6.647   1.930  0.2430  0.1519 -0.5481
 5596TIP3    H138203   1.894   6.560   1.894 -0.0400 -0.5784  1.2961
 5596TIP3    H238204   1.935   6.632   2.020 -1.2127  2.0277  0.2310
 5597TIP3   OH238205   4.528   1.853   1.804  0.0318  0.4220 -0.2802
 5597TIP3    H138206   4.529   1.761   1.829  1.8575  0.7990  1.1356
 5597TIP3    H238207   4.593   1.894   1.861  0.0244  2.3893 -1.6388
 5598TIP3   OH238208   1.964   2.216   3.078  0.0931 -0.4957  0.4060
 5598TIP3    H138209   2.033   2.160   3.114 -0.3401 -0.7470  0.8469
 5598TIP3    H238210   1.981   2.216   2.983 -0.6023 -2.3523  0.2516
 5599TIP3   OH238211   1.229   1.628   4.634  0.1816 -0.0223  0.1144
 5599TIP3    H138212   1.291   1.643   4.563 -1.4024 -0.2732 -1.3539
 5599TIP3    H238213   1.148   1.670   4.605 -0.6428 -0.5960  1.5232
 5600TIP3   OH238214   4.069   2.452  15.367 -0.4019  0.2441 -0.4730
 5600TIP3    H138215   3.989   2.419  15.408  1.4256 -2.0590  1.3865
 5600TIP3    H238216   4.082   2.395  15.291 -0.1168  0.1073 -0.3231
 5601TIP3   OH238217   5.073   3.792   1.776 -0.6243  0.4211 -0.5809
 5601TIP3    H138218   5.124   3.710   1.777 -1.6974 -0.2505 -0.1242
 5601TIP3    H238219   5.138   3.861   1.787  0.7037 -0.1516 -4.0369
 5602TIP3   OH238220   6.476   0.162  11.792 -0.1572 -0.4882  0.3216
 5602TIP3    H138221   6.569   0.178  11.812 -0.3317 -0.4378  1.1007
 5602TIP3    H238222   6.445   0.245  11.756  0.6407 -1.1636 -1.9830
 5603TIP3   OH238223   4.888   5.171  15.544  0.1901 -0.1973 -0.1222
 5603TIP3    H138224   4.904   5.136  15.631  0.5455 -1.3704 -0.6426
 5603TIP3    H238225   4.819   5.116  15.507 -1.5072  1.6470  0.1984
 5604TIP3   OH238226   6.055   2.785   2.409  0.3100  0.7833 -0.0604
 5604TIP3    H138227   6.104   2.861   2.377  0.8577 -0.0336 -1.1870
 5604TIP3    H238228   5.973   2.786   2.358  0.0452  0.9758  0.3678
 5605TIP3   OH238229   1.908   2.578   1.729  0.2067  0.0620 -0.3039
 5605TIP3    H138230   1.896   2.514   1.659 -0.1901  0.4648 -0.6045
 5605TIP3    H238231   1.821   2.615   1.743  0.0694 -0.7145  1.0823
 5606TIP3   OH238232   0.990   6.021   2.076  0.0762  0.2631 -0.1983
 5606TIP3    H138233   0.956   5.934   2.096 -0.2132  0.3156 -0.4594
 5606TIP3    H238234   0.954   6.077   2.145  0.4834  0.1239  0.1237
 5607TIP3   OH238235   6.117   2.092  16.039 -0.0941 -0.8544  0.6755
 5607TIP3    H138236   6.133   2.028  15.970  0.2265  2.6758 -2.7122
 5607TIP3    H238237   6.022   2.095  16.048 -0.1950 -0.7142 -0.3174
 5608TIP3   OH238238   1.987   5.299   4.420 -0.5913  0.3179  0.1989
 5608TIP3    H138239   1.986   5.245   4.341  2.1795  0.9957 -0.3445
 5608TIP3    H238240   1.941   5.246   4.485  1.0042 -2.1889 -0.6340
 5609TIP3   OH238241   3.247   1.735  15.555  0.0585 -0.1040  0.0039
 5609TIP3    H138242   3.264   1.729  15.461 -1.2121 -0.5430 -0.1986
 5609TIP3    H238243   3.173   1.676  15.570 -0.1428  0.4415  1.1786
 5610TIP3   OH238244   4.154   2.532  10.523 -0.0694  0.0557 -0.4036
 5610TIP3    H138245   4.178   2.550  10.432  0.0192  2.8134  0.1233
 5610TIP3    H238246   4.118   2.615  10.555  1.3447 -0.4178  2.5425
 5611TIP3   OH238247   4.663   3.971  14.997  0.0880 -0.1281 -0.0786
 5611TIP3    H138248   4.570   3.990  15.013 -0.5449 -1.1012 -2.3735
 5611TIP3    H238249   4.668   3.876  14.996  0.6770 -0.0845 -2.2759
 5612TIP3   OH238250   0.939   1.127  11.999  0.1359 -0.3545  0.5799
 5612TIP3    H138251   0.996   1.202  12.017  1.4319 -1.5721  1.6271
 5612TIP3    H238252   0.991   1.051  12.024 -1.9106 -1.5097  1.3846
 5613TIP3   OH238253   3.831   3.567   1.226 -0.5938  0.0412  0.3011
 5613TIP3    H138254   3.848   3.561   1.320 -2.8420  0.3806  0.7641
 5613TIP3    H238255   3.847   3.660   1.206  1.0083 -0.2607  0.0844
 5614TIP3   OH238256   2.098   3.215   2.297  0.4075  0.1764  0.0517
 5614TIP3    H138257   2.039   3.183   2.229 -0.3059  0.2411  0.6383
 5614TIP3    H238258   2.080   3.160   2.373 -1.5801  2.5742  1.4031
 5615TIP3   OH238259   5.657   2.261  11.408  0.1810  0.0874 -0.7242
 5615TIP3    H138260   5.658   2.226  11.319 -1.5161 -1.1932 -0.2553
 5615TIP3    H238261   5.597   2.335  11.405  0.2123  0.1157 -0.6702
 5616TIP3   OH238262   3.317   1.163   3.972  0.1068 -0.3755 -0.2884
 5616TIP3    H138263   3.412   1.165   3.973  0.1091  0.4349  2.1367
 5616TIP3    H238264   3.291   1.196   4.058 -2.3669 -0.6306 -0.8760
 5617TIP3   OH238265   5.669   0.907   5.726  0.8813 -0.2149 -0.2144
 5617TIP3    H138266   5.642   0.816   5.713  2.0166 -0.9326  2.0564
 5617TIP3    H238267   5.753   0.914   5.681  0.6893 -0.2089 -0.5784
 5618TIP3   OH238268   6.586   1.229  11.111 -0.3212 -0.6545  0.0587
 5618TIP3    H138269   6.497   1.212  11.139 -0.8186 -1.2976 -1.8291
 5618TIP3    H238270   6.581   1.236  11.015  1.3046  1.3678  0.0607
 5619TIP3   OH238271   3.486   2.597   5.251 -0.0705  0.4803  0.1246
 5619TIP3    H138272   3.571   2.593   5.207  0.2672  0.7840  0.7412
 5619TIP3    H238273   3.435   2.659   5.199  0.4518  1.1280  0.3822
 5620TIP3   OH238274   0.363   4.690  16.390 -0.1213 -0.4493 -0.4534
 5620TIP3    H138275   0.296   4.756  16.410 -2.8383 -2.7093 -1.6084
 5620TIP3    H238276   0.362   4.632  16.467 -0.3320 -1.1437 -0.9771
 5621TIP3   OH238277   2.539   1.221   1.646 -0.5867 -0.7946  0.1961
 5621TIP3    H138278   2.572   1.196   1.560 -0.7825 -0.9067  0.1526
 5621TIP3    H238279   2.584   1.163   1.707 -0.3036 -0.5858  0.1889
 5622TIP3   OH238280   6.090   1.343   2.470  0.0757  0.1785  0.6422
 5622TIP3    H138281   5.995   1.334   2.472  0.1587 -1.1843 -0.6466
 5622TIP3    H238282   6.122   1.263   2.511  0.6777 -0.1032 -0.3597
 5623TIP3   OH238283   5.653   4.218   5.890 -0.4283 -0.4113 -0.0133
 5623TIP3    H138284   5.584   4.169   5.846 -0.2020 -1.6165  0.9204
 5623TIP3    H238285   5.716   4.238   5.821 -1.2547 -0.1291 -0.6898
 5624TIP3   OH238286   4.596   4.748  11.465 -0.2592  0.3820 -0.4016
 5624TIP3    H138287   4.570   4.792  11.384 -1.0080  0.5292 -0.0905
 5624TIP3    H238288   4.661   4.805  11.505  0.2268  0.2302 -0.9808
 5625TIP3   OH238289   6.287   2.908  12.349 -0.1359 -0.5423 -0.2015
 5625TIP3    H138290   6.204   2.955  12.358  0.5358  0.5605  0.2446
 5625TIP3    H238291   6.275   2.855  12.270 -2.0470 -2.0451  1.0530
 5626TIP3   OH238292   3.197   3.179   1.168  0.9664 -0.4015  0.0744
 5626TIP3    H138293   3.291   3.193   1.153  0.9997  0.7561  1.2199
 5626TIP3    H238294   3.192   3.091   1.206  1.6957 -0.1386  0.8086
 5627TIP3   OH238295   4.783   6.668   0.967  0.1043 -0.2642 -0.1705
 5627TIP3    H138296   4.738   6.747   1.000 -0.1978  0.0447 -1.2862
 5627TIP3    H238297   4.834   6.700   0.893  0.0230 -1.1203 -0.5891
 5628TIP3   OH238298   5.322   0.372   1.969  0.0643 -0.2559  0.2207
 5628TIP3    H138299   5.266   0.330   2.034  0.2596 -0.6076  0.1613
 5628TIP3    H238300   5.402   0.319   1.968 -0.3325 -0.8441 -1.0333
 5629TIP3   OH238301   4.581   0.297   4.886  0.5376 -0.1380  0.3691
 5629TIP3    H138302   4.606   0.218   4.934 -1.6509  0.2008  2.1121
 5629TIP3    H238303   4.502   0.273   4.839  0.9900  0.4381 -0.7188
 5630TIP3   OH238304   3.634   0.467   1.248  0.0778 -0.0547  0.0447
 5630TIP3    H138305   3.660   0.559   1.249  2.4442 -0.6710 -1.6136
 5630TIP3    H238306   3.541   0.468   1.272  0.0318  2.7590 -0.1084
 5631TIP3   OH238307   0.433   5.854   0.039 -0.2352 -0.1328  0.1794
 5631TIP3    H138308   0.464   5.921  -0.022  1.7155  0.4880  1.7909
 5631TIP3    H238309   0.376   5.900   0.100 -2.2289 -0.7632 -1.1741
 5632TIP3   OH238310   0.256   6.123   4.671  0.1169  0.1870  1.2893
 5632TIP3    H138311   0.321   6.091   4.733  0.7232 -0.9416  0.1033
 5632TIP3    H238312   0.186   6.160   4.725 -0.0326 -2.0692  2.6611
 5633TIP3   OH238313   4.598   1.193   4.707  0.0731 -0.1516 -0.0707
 5633TIP3    H138314   4.607   1.099   4.724  0.1341 -0.2562 -0.6530
 5633TIP3    H238315   4.564   1.230   4.789 -1.9820 -0.9971 -0.5220
 5634TIP3   OH238316   3.853   5.066   5.801  0.0980 -0.3048  0.2472
 5634TIP3    H138317   3.946   5.083   5.815  0.1425  0.8989 -1.4200
 5634TIP3    H238318   3.813   5.153   5.794 -0.9428 -0.8225 -0.4338
 5635TIP3   OH238319   5.867   5.496  11.100 -0.4193  0.2263 -0.4843
 5635TIP3    H138320   5.803   5.496  11.029 -0.8358 -0.8522 -0.1164
 5635TIP3    H238321   5.902   5.585  11.101 -2.5152  1.0788 -0.1394
 5636TIP3   OH238322   3.112   5.597   0.787 -0.3871  0.2805  0.1629
 5636TIP3    H138323   3.060   5.570   0.862 -0.5482  0.9190  0.2865
 5636TIP3    H238324   3.079   5.684   0.765  2.1302  1.6703  1.6442
 5637TIP3   OH238325   1.842   1.655  16.005  0.0535 -0.3056  0.2067
 5637TIP3    H138326   1.818   1.722  15.942  0.1396 -0.5056 -0.0372
 5637TIP3    H238327   1.778   1.664  16.075 -0.3052 -0.3819 -0.1155
 5638TIP3   OH238328   0.080   1.029  11.284  0.8355 -0.0446 -0.1502
 5638TIP3    H138329   0.080   1.124  11.280 -1.8389 -0.0079 -0.1543
 5638TIP3    H238330   0.079   1.009  11.378  3.2222 -0.1072 -0.1245
 5639TIP3   OH238331   3.234   0.234  11.809 -0.0114  0.0907 -0.0770
 5639TIP3    H138332   3.295   0.248  11.882 -0.7894  2.1282  0.2079
 5639TIP3    H238333   3.205   0.143  11.819  0.3751  0.1557  1.7941
 5640TIP3   OH238334   1.551   4.961   1.711 -0.3508 -0.0236 -0.0983
 5640TIP3    H138335   1.530   4.912   1.790  1.4191 -1.1334 -0.2922
 5640TIP3    H238336   1.500   4.919   1.642 -0.2912 -0.3898  0.0810
 5641TIP3   OH238337   3.808   1.607  17.004 -0.7188 -0.2796 -0.3825
 5641TIP3    H138338   3.826   1.700  17.010  1.0691 -0.6122 -0.3925
 5641TIP3    H238339   3.894   1.566  16.995 -1.5925 -1.7965 -2.2044
 5642TIP3   OH238340   1.736   1.109   0.193  0.4358  0.2053 -0.5411
 5642TIP3    H138341   1.764   1.200   0.209 -2.4629  0.6999  1.9507
 5642TIP3    H238342   1.661   1.118   0.135  0.2618 -0.6420 -0.4392
 5643TIP3   OH238343   2.710   4.083  13.335  0.4123  0.4235  0.3750
 5643TIP3    H138344   2.627   4.129  13.348 -0.2615 -0.8511  0.7068
 5643TIP3    H238345   2.775   4.140  13.375 -0.4369  0.9772  1.0012
 5644TIP3   OH238346   3.509   4.326   0.045 -0.0609 -0.4119  0.5530
 5644TIP3    H138347   3.580   4.262   0.043  0.1919 -0.0825 -1.3308
 5644TIP3    H238348   3.507   4.364  -0.043 -1.0063  1.3059  1.2801
 5645TIP3   OH238349   6.749   5.217   0.001  0.1690 -0.0983  0.2222
 5645TIP3    H138350   6.725   5.141   0.054  2.3308  0.7433  2.5034
 5645TIP3    H238351   6.743   5.291   0.061 -1.0630  1.4604 -1.7523
 5646TIP3   OH238352   0.366   4.531   1.522 -0.9598 -0.2855 -0.1538
 5646TIP3    H138353   0.443   4.540   1.466 -0.4244  0.0966  0.6392
 5646TIP3    H238354   0.401   4.504   1.607 -1.8128 -1.3458 -0.1298
 5647TIP3   OH238355   5.577   2.137  16.794 -0.6075 -0.3620  0.1816
 5647TIP3    H138356   5.552   2.095  16.711 -0.2246 -1.2412  0.5081
 5647TIP3    H238357   5.507   2.200  16.811 -1.3692 -1.1152 -0.1381
 5648TIP3   OH238358   5.471   4.147   1.837 -0.3324  0.3503  0.1107
 5648TIP3    H138359   5.509   4.070   1.795 -1.2967 -0.4876  0.7762
 5648TIP3    H238360   5.533   4.168   1.908  0.6573  1.0389 -0.9386
 5649TIP3   OH238361   4.355   4.215   2.092  0.2587 -0.1949  0.5499
 5649TIP3    H138362   4.344   4.130   2.135 -1.6397  0.5524  1.5599
 5649TIP3    H238363   4.417   4.262   2.147 -1.6196  0.4884  2.1296
 5650TIP3   OH238364   1.230   1.912  12.292 -0.3006 -0.7560  0.5666
 5650TIP3    H138365   1.198   1.845  12.352  1.0455 -1.0157  1.0112
 5650TIP3    H238366   1.265   1.980  12.349 -0.2619 -0.3811  0.0941
 5651TIP3   OH238367   1.436   5.557  14.274 -0.0269  0.0794 -0.2597
 5651TIP3    H138368   1.442   5.583  14.182 -1.2228 -0.8626 -0.6204
 5651TIP3    H238369   1.368   5.614  14.310  1.4267  1.4192  0.4068
 5652TIP3   OH238370   1.358   4.348  12.305  0.1427  0.2012 -0.5781
 5652TIP3    H138371   1.277   4.376  12.348  0.2739 -0.2164 -0.0566
 5652TIP3    H238372   1.426   4.406  12.341  0.3607 -0.5786  0.2627
 5653TIP3   OH238373   2.638   0.636   4.457  0.1070 -0.7813 -0.5952
 5653TIP3    H138374   2.575   0.578   4.500  0.5763 -1.8948 -1.3912
 5653TIP3    H238375   2.603   0.724   4.472  0.0616 -1.1539  1.7432
 5654TIP3   OH238376   6.188   6.477  10.743 -0.4685 -0.0485 -0.3006
 5654TIP3    H138377   6.151   6.565  10.745 -0.9653 -0.2505 -0.5898
 5654TIP3    H238378   6.158   6.440  10.660 -0.4306 -0.5656 -0.0891
 5655TIP3   OH238379   0.669   1.182  11.373  0.3763 -0.0028 -0.4722
 5655TIP3    H138380   0.686   1.092  11.403 -0.1868 -0.1921 -0.7257
 5655TIP3    H238381   0.576   1.183  11.352  0.2698  0.7862  0.0236
 5656TIP3   OH238382   5.285   4.893  13.140  0.4028 -0.3922  0.5065
 5656TIP3    H138383   5.228   4.824  13.175  0.0904 -2.0168 -3.0491
 5656TIP3    H238384   5.368   4.849  13.124  0.7921  0.5279  0.0012
 5657TIP3   OH238385   4.116   3.847  12.933 -0.0158 -0.8930  0.5618
 5657TIP3    H138386   4.178   3.780  12.904  0.2644 -2.0768  3.6690
 5657TIP3    H238387   4.032   3.819  12.898  0.4594 -1.7398  0.0936
 5658TIP3   OH238388   2.135   2.051   0.141  0.7588 -0.0788  0.2735
 5658TIP3    H138389   2.180   2.095   0.212 -2.0623  2.3142  0.6527
 5658TIP3    H238390   2.043   2.075   0.151  0.1720 -0.2626 -3.7322
 5659TIP3   OH238391   0.278   2.470   1.846  0.2282  0.8322  0.2369
 5659TIP3    H138392   0.360   2.518   1.860  2.3547 -2.6945  0.6505
 5659TIP3    H238393   0.225   2.528   1.792  2.5763  3.6497  0.8122
 5660TIP3   OH238394   5.142   4.523  12.065  0.2694 -0.1907 -0.0008
 5660TIP3    H138395   5.161   4.484  12.150 -0.5855  0.2993  0.4266
 5660TIP3    H238396   5.217   4.500  12.010  0.5499 -1.0118  0.7143
 5661TIP3   OH238397   0.807   6.139   5.516  0.5056  0.2115  0.7796
 5661TIP3    H138398   0.875   6.098   5.464 -1.4742  0.5427 -2.2369
 5661TIP3    H238399   0.828   6.233   5.514  0.7988  0.1549  1.1623
 5662TIP3   OH238400   5.715   5.409   3.882  0.5392  0.2576 -0.0967
 5662TIP3    H138401   5.806   5.415   3.912  0.8246 -1.2007 -0.6621
 5662TIP3    H238402   5.721   5.383   3.790 -0.4936 -2.8050  0.6433
 5663TIP3   OH238403   6.722   2.676  16.337  0.0284 -0.4182  0.4668
 5663TIP3    H138404   6.722   2.764  16.374 -1.1047 -0.0110 -0.4793
 5663TIP3    H238405   6.634   2.666  16.300 -0.1563 -2.2693  1.3482
 5664TIP3   OH238406   0.882   6.087  14.142 -0.4485  0.1238 -0.0993
 5664TIP3    H138407   0.932   6.012  14.173 -2.1807 -1.0899 -0.1487
 5664TIP3    H238408   0.933   6.163  14.169  0.4057 -1.0302  1.6093
 5665TIP3   OH238409   0.791   4.268  16.758 -0.2798  0.4882  0.1547
 5665TIP3    H138410   0.867   4.325  16.766  1.0846 -0.6826 -3.2523
 5665TIP3    H238411   0.818   4.185  16.799 -1.3681  1.4513  2.8936
 5666TIP3   OH238412   2.882   0.901   5.268  0.0171  0.7423  0.1304
 5666TIP3    H138413   2.809   0.937   5.319 -0.0093  1.6538 -0.5263
 5666TIP3    H238414   2.857   0.811   5.249 -1.2723  1.2607 -0.6839
 5667TIP3   OH238415   5.385   3.644   0.002 -0.5449 -0.1130 -0.5943
 5667TIP3    H138416   5.446   3.572  -0.014 -0.3078  0.1252 -0.7690
 5667TIP3    H238417   5.413   3.681   0.086 -0.3045  0.1401 -0.7832
 5668TIP3   OH238418   0.504   4.751   5.496  0.5922 -0.0981 -0.2521
 5668TIP3    H138419   0.595   4.778   5.509  0.5070  0.5925 -1.0379
 5668TIP3    H238420   0.490   4.758   5.402 -0.2972 -0.1384 -0.1304
 5669TIP3   OH238421   6.382   2.095   2.418 -0.7413 -0.3196  0.3279
 5669TIP3    H138422   6.432   2.056   2.490 -1.5880 -1.0537  0.5283
 5669TIP3    H238423   6.421   2.059   2.339  1.7815  2.3545  0.2840
 5670TIP3   OH238424   3.262   5.676  12.348  0.1989 -0.0646 -0.4665
 5670TIP3    H138425   3.287   5.666  12.440 -0.8112 -0.1518 -0.1940
 5670TIP3    H238426   3.183   5.730  12.350 -1.5084 -2.4425 -1.0441
 5671TIP3   OH238427   4.548   3.860  12.415  0.0873 -0.5024  0.6759
 5671TIP3    H138428   4.595   3.943  12.402  1.0875 -0.7258  2.5707
 5671TIP3    H238429   4.617   3.794  12.415 -1.0004 -1.7820 -3.9881
 5672TIP3   OH238430   5.583   5.204   4.028  0.6325 -0.9126  0.1230
 5672TIP3    H138431   5.640   5.270   3.990  0.6233 -0.6795  0.5099
 5672TIP3    H238432   5.569   5.233   4.118 -0.6985 -0.5614 -0.1783
 5673TIP3   OH238433   6.140   4.112   1.955  0.0095 -0.4232 -0.0911
 5673TIP3    H138434   6.044   4.110   1.952 -0.0222 -1.5357  1.1082
 5673TIP3    H238435   6.160   4.185   2.012 -0.1779 -1.2890  1.1012
 5674TIP3   OH238436   6.781   5.957  14.860 -0.0423 -0.1821 -0.2809
 5674TIP3    H138437   6.804   6.009  14.937 -0.9778  0.5814 -0.5195
 5674TIP3    H238438   6.730   5.884  14.895  2.1403 -1.5547  0.1808
 5675TIP3   OH238439   5.696   2.000  16.253  0.1761  0.3190  0.0123
 5675TIP3    H138440   5.631   2.065  16.279  0.6084  0.2161  1.3765
 5675TIP3    H238441   5.744   1.980  16.334  0.7041 -0.9531 -0.6011
 5676TIP3   OH238442   2.854   2.881  11.097  1.1753 -0.0740 -0.3807
 5676TIP3    H138443   2.873   2.871  11.004  4.4893 -1.5502  0.3789
 5676TIP3    H238444   2.825   2.794  11.125 -0.1174  0.4431 -0.0954
 5677TIP3   OH238445   2.798   3.386  11.533 -0.1424 -0.2636 -0.1406
 5677TIP3    H138446   2.884   3.348  11.549 -0.5998 -1.4239 -0.3768
 5677TIP3    H238447   2.750   3.373  11.615 -0.0459  0.5406  0.0521
 5678TIP3   OH238448   5.109   6.206  13.507  0.1775  0.4814 -0.0652
 5678TIP3    H138449   5.040   6.259  13.467 -0.0951 -1.6205 -2.5061
 5678TIP3    H238450   5.061   6.138  13.554  0.5594  1.0961  1.2253
 5679TIP3   OH238451   1.885   1.389  14.261 -0.1750  1.0864  0.3234
 5679TIP3    H138452   1.930   1.361  14.181 -0.9716 -0.9603  0.5800
 5679TIP3    H238453   1.795   1.408  14.232 -0.1019  1.6773  0.4830
 5680TIP3   OH238454   2.455   1.441   5.785  0.5345  0.3658 -0.0254
 5680TIP3    H138455   2.513   1.512   5.815 -2.2988  3.0879 -0.7383
 5680TIP3    H238456   2.406   1.480   5.713 -0.1070 -2.8392 -1.3872
 5681TIP3   OH238457   0.752   2.751  11.528 -0.4675 -0.1535  0.0057
 5681TIP3    H138458   0.682   2.733  11.465 -0.7182  0.2052  0.1791
 5681TIP3    H238459   0.714   2.817  11.587 -0.4004 -0.8349  0.8139
 5682TIP3   OH238460   0.550   5.944  16.853  0.5086 -0.2192  0.0992
 5682TIP3    H138461   0.483   5.876  16.867  0.7580 -0.3431  0.6875
 5682TIP3    H238462   0.633   5.901  16.873  0.4528  1.0079  3.1354
 5683TIP3   OH238463   5.383   3.285  17.022 -0.6475  0.2456 -0.2170
 5683TIP3    H138464   5.454   3.233  17.060 -1.1883  0.8499  1.7068
 5683TIP3    H238465   5.424   3.369  16.999 -0.4365  0.0936 -0.3875
 5684TIP3   OH238466   3.054   3.588   6.571  0.7993 -0.7310  0.6351
 5684TIP3    H138467   3.144   3.559   6.583  0.2871 -1.2143  3.4730
 5684TIP3    H238468   3.008   3.510   6.538  1.3129 -0.5832 -0.4631
 5685TIP3   OH238469   6.271   0.024  12.540  0.3579 -0.1810 -0.2161
 5685TIP3    H138470   6.202   0.021  12.474 -0.8379  0.0254  1.0040
 5685TIP3    H238471   6.296  -0.067  12.554  0.3787 -0.2498 -0.7055
 5686TIP3   OH238472   5.182   4.973  11.732 -0.2400 -0.4219  0.0660
 5686TIP3    H138473   5.197   5.025  11.653  1.0419 -0.1938  0.4609
 5686TIP3    H238474   5.231   5.017  11.800  0.0746 -1.6060  0.6206
 5687TIP3   OH238475   4.065   6.239   3.273 -0.1862  0.0723  0.3114
 5687TIP3    H138476   4.106   6.300   3.212 -1.2897  0.3184 -0.1836
 5687TIP3    H238477   4.011   6.294   3.329 -0.7543 -0.3932  0.2182
 5688TIP3   OH238478   5.006   0.569   5.147  0.0608 -0.3819  0.1535
 5688TIP3    H138479   4.987   0.548   5.238  2.4483 -0.2661  0.7267
 5688TIP3    H238480   5.024   0.484   5.106 -2.1379 -0.5521 -0.5256
 5689TIP3   OH238481   6.520   5.358   3.036 -0.6170 -0.2474  0.2070
 5689TIP3    H138482   6.468   5.309   2.973 -0.3541 -0.6267  0.2852
 5689TIP3    H238483   6.608   5.319   3.031 -0.5573 -0.1804  0.6934
 5690TIP3   OH238484   3.241   4.563  12.520  0.0646  0.4217  0.1823
 5690TIP3    H138485   3.307   4.494  12.517 -1.1393 -0.7103 -2.0358
 5690TIP3    H238486   3.285   4.637  12.561  2.0361 -0.9969  0.6943
 5691TIP3   OH238487   6.594   0.845  17.154 -0.2809  0.0726 -0.1286
 5691TIP3    H138488   6.504   0.824  17.177 -0.7831 -0.0873 -2.1526
 5691TIP3    H238489   6.602   0.822  17.062  1.5216  1.0913 -0.2666
 5692TIP3   OH238490   2.629   0.981  15.829 -0.0149  0.8369  0.1258
 5692TIP3    H138491   2.640   0.903  15.883  0.0752  0.9475  0.2681
 5692TIP3    H238492   2.697   1.041  15.859 -1.8049  2.0263  1.8946
 5693TIP3   OH238493   4.865   0.580   5.896 -0.0058  0.1354  0.1535
 5693TIP3    H138494   4.901   0.628   5.821 -0.3412 -1.0546 -0.7784
 5693TIP3    H238495   4.772   0.572   5.876  0.4070 -2.8584 -0.8228
 5694TIP3   OH238496   6.233   0.813  15.570  0.7242 -0.4586 -0.1862
 5694TIP3    H138497   6.218   0.898  15.611  2.7177 -1.1940  2.1602
 5694TIP3    H238498   6.173   0.754  15.616  2.7582 -1.2281  1.5127
 5695TIP3   OH238499   5.293   5.973   3.187  0.5300 -0.5955  0.4266
 5695TIP3    H138500   5.236   6.017   3.250  0.9188 -1.0507  1.0976
 5695TIP3    H238501   5.253   5.992   3.102  0.0006  0.0146  0.8085
 5696TIP3   OH238502   5.022   2.738   4.261 -0.2089  0.0350  0.2488
 5696TIP3    H138503   5.089   2.733   4.193  0.4579 -0.6684  0.9569
 5696TIP3    H238504   4.942   2.708   4.218  0.0157  0.4278 -0.4638
 5697TIP3   OH238505   4.596   1.294   2.778  0.0680  0.1436 -0.0654
 5697TIP3    H138506   4.552   1.363   2.827  0.1190  0.5724 -0.6218
 5697TIP3    H238507   4.583   1.317   2.686  2.5130  0.9490 -0.2474
 5698TIP3   OH238508   4.137   1.499   3.797 -0.1075 -0.0034  0.8324
 5698TIP3    H138509   4.048   1.475   3.824 -1.1149  2.4845 -0.0376
 5698TIP3    H238510   4.139   1.480   3.703 -0.2809  1.3883  0.5284
 5699TIP3   OH238511   2.821   4.196  12.968  0.2952 -0.1363 -0.2379
 5699TIP3    H138512   2.829   4.113  13.013  0.3865 -0.3455 -0.6362
 5699TIP3    H238513   2.874   4.257  13.020 -0.0995 -0.2292  0.2784
 5700TIP3   OH238514   3.767   2.186  14.935  0.2813 -0.2420  0.1835
 5700TIP3    H138515   3.724   2.204  15.019 -0.1724  1.7540 -0.4515
 5700TIP3    H238516   3.860   2.182  14.957  0.0073 -2.1340  1.1547
 5701TIP3   OH238517   3.477   5.738  13.184 -0.4287  0.0200 -0.3982
 5701TIP3    H138518   3.555   5.686  13.163  1.3733  1.2498  2.8658
 5701TIP3    H238519   3.483   5.814  13.126  0.1219 -0.5297 -1.0652
 5702TIP3   OH238520   2.161   4.444  15.271  0.6176 -0.1900  0.0869
 5702TIP3    H138521   2.097   4.512  15.294  0.5420 -0.1098 -0.3555
 5702TIP3    H238522   2.185   4.405  15.355 -0.4474 -0.6070  0.2044
 5703TIP3   OH238523   5.654   1.960  10.870 -0.0100 -0.2764  0.8432
 5703TIP3    H138524   5.697   1.884  10.832  0.3769 -0.1405  1.0010
 5703TIP3    H238525   5.718   2.031  10.860 -0.1810 -0.0811  1.1131
 5704TIP3   OH238526   6.321   0.297  15.926  0.0890 -0.9575  0.6908
 5704TIP3    H138527   6.403   0.342  15.948 -0.3326 -0.3955  1.1249
 5704TIP3    H238528   6.349   0.214  15.888  0.9163  0.2653 -1.4516
 5705TIP3   OH238529   3.649   4.395  15.182  0.3217  0.3961  0.6502
 5705TIP3    H138530   3.687   4.365  15.265  1.2221  0.6735  0.3464
 5705TIP3    H238531   3.555   4.381  15.192  0.6637 -2.1112  0.6876
 5706TIP3   OH238532   6.266   1.676   1.284 -0.1298  0.0480  0.2559
 5706TIP3    H138533   6.239   1.642   1.370 -2.3149  0.4460 -0.2453
 5706TIP3    H238534   6.299   1.764   1.303 -1.1730  0.3680  0.6246
 5707TIP3   OH238535   3.567   5.737  15.227 -0.1176 -0.4002 -0.5918
 5707TIP3    H138536   3.561   5.772  15.139 -0.0615  2.1494  0.3801
 5707TIP3    H238537   3.643   5.678  15.225  0.0430 -0.1557 -2.1454
 5708TIP3   OH238538   5.879   5.179  15.893  0.4839  0.5307 -0.1476
 5708TIP3    H138539   5.938   5.109  15.922  0.3688  0.5257  0.0725
 5708TIP3    H238540   5.924   5.219  15.818  0.7262  0.4681 -0.0339
 5709TIP3   OH238541   6.626   5.913  12.305  0.0399 -0.3515  0.1158
 5709TIP3    H138542   6.691   5.923  12.235  0.6096  0.5305  0.7583
 5709TIP3    H238543   6.551   5.873  12.261  0.4678 -0.0172 -0.9604
 5710TIP3   OH238544   4.850   2.541  12.671  0.3661 -0.0014  0.7881
 5710TIP3    H138545   4.802   2.578  12.745  0.2625  0.3323  0.5546
 5710TIP3    H238546   4.808   2.578  12.594  0.0271 -0.8987  0.5369
 5711TIP3   OH238547   3.712   2.332   6.370  0.2589 -0.4787 -0.5198
 5711TIP3    H138548   3.733   2.266   6.303  1.5307 -0.8463  0.2291
 5711TIP3    H238549   3.660   2.285   6.435 -0.3856 -0.2921 -0.8993
 5712TIP3   OH238550   3.927   5.753  15.301 -0.7123  0.3818  0.1403
 5712TIP3    H138551   3.934   5.721  15.212 -2.7772 -2.3966  0.9281
 5712TIP3    H238552   4.005   5.808  15.313 -0.2592  0.5525 -3.2277
 5713TIP3   OH238553   0.446   0.101   2.072 -0.4789  0.0919  0.2626
 5713TIP3    H138554   0.360   0.062   2.057 -1.1407  1.6868 -0.1030
 5713TIP3    H238555   0.506   0.045   2.022 -1.1075 -1.8305  1.6203
 5714TIP3   OH238556   0.905   0.838  13.012 -0.1863  0.2205 -0.0830
 5714TIP3    H138557   0.839   0.783  13.055  1.4297  0.4803  2.8229
 5714TIP3    H238558   0.928   0.790  12.933 -3.0243 -0.4175 -0.5852
 5715TIP3   OH238559   3.439   1.061  16.010 -0.3378  0.3370  0.1447
 5715TIP3    H138560   3.399   1.139  15.972  1.8773  0.8281 -1.2545
 5715TIP3    H238561   3.444   0.998  15.938  1.1944  0.2151  0.3363
 5716TIP3   OH238562   5.054   2.718   2.846 -0.1393 -0.3472 -0.4776
 5716TIP3    H138563   5.048   2.782   2.775  2.5445 -1.3508 -1.6862
 5716TIP3    H238564   5.084   2.768   2.921  1.0642  0.0024 -1.1793
 5717TIP3   OH238565   6.448   3.595   0.042  0.2484  0.0699 -0.2853
 5717TIP3    H138566   6.455   3.691   0.039 -0.2480  0.1036 -0.3178
 5717TIP3    H238567   6.460   3.574   0.135 -0.0331  0.1895 -0.2229
 5718TIP3   OH238568   2.644   4.988  16.638  0.2829  0.6584  0.1311
 5718TIP3    H138569   2.591   4.931  16.692 -0.7332  1.1223 -0.3669
 5718TIP3    H238570   2.718   5.013  16.694  0.3500 -0.5564  0.5806
 5719TIP3   OH238571   4.275   4.324  12.300 -0.2308 -0.3926  0.2688
 5719TIP3    H138572   4.206   4.279  12.252 -0.4844  0.6170 -0.2977
 5719TIP3    H238573   4.356   4.302  12.253 -0.3935  0.0194 -0.1950
 5720TIP3   OH238574   3.975   6.197  13.201  0.3061 -0.2935  0.0586
 5720TIP3    H138575   4.045   6.196  13.266  0.2766  0.2573  0.1036
 5720TIP3    H238576   4.003   6.261  13.135 -1.7707  2.6488  1.8947
 5721TIP3   OH238577   2.834   6.612  12.759  0.5069  0.4165 -0.6861
 5721TIP3    H138578   2.928   6.602  12.772  0.3726  1.2267  1.2208
 5721TIP3    H238579   2.824   6.702  12.726  0.6659 -0.9268 -4.5906
 5722TIP3   OH238580   5.311   4.120  11.569 -0.3059 -0.0400  0.0413
 5722TIP3    H138581   5.305   4.059  11.496  0.2488 -1.5486  1.2358
 5722TIP3    H238582   5.404   4.128  11.587 -0.4752 -0.1801  1.0014
 5723TIP3   OH238583   6.033   6.293  16.334 -0.0113  0.0224  0.0529
 5723TIP3    H138584   6.007   6.380  16.303 -0.8802 -1.3113 -3.1307
 5723TIP3    H238585   6.018   6.235  16.259  1.8602 -2.6573  1.6558
 5724TIP3   OH238586   6.008   1.878  15.127 -0.3076 -0.0457 -0.8932
 5724TIP3    H138587   5.952   1.851  15.054  0.5008 -0.1939 -1.4610
 5724TIP3    H238588   6.075   1.810  15.131  0.7200  0.9448 -1.1969
 5725TIP3   OH238589   6.235   2.313  16.570 -0.8833  0.0622 -0.1905
 5725TIP3    H138590   6.175   2.238  16.570 -0.6469 -0.1248  0.1484
 5725TIP3    H238591   6.321   2.275  16.588 -0.3340  0.0566 -2.5750
 5726TIP3   OH238592   5.179   5.962  13.988  0.3166  0.8252 -0.5744
 5726TIP3    H138593   5.272   5.956  13.967 -0.1386  2.1094 -3.0786
 5726TIP3    H238594   5.156   6.053  13.973 -1.3117  0.5832  0.2562
 5727TIP3   OH238595   3.572   2.434  16.133  0.0026 -0.6237 -0.4318
 5727TIP3    H138596   3.660   2.470  16.145 -0.4542 -0.3074  2.1895
 5727TIP3    H238597   3.561   2.373  16.206 -1.4965 -1.6206 -1.4531
 5728TIP3   OH238598   2.598   4.326  10.871 -0.4257  0.2682  0.0024
 5728TIP3    H138599   2.663   4.342  10.802 -1.2080  0.5158 -0.6766
 5728TIP3    H238600   2.617   4.236  10.900  0.2189  0.3340 -0.1927
 5729TIP3   OH238601   0.475   2.209   4.869  0.1504 -0.0349  0.0060
 5729TIP3    H138602   0.474   2.114   4.884 -0.1271 -0.0084  0.1767
 5729TIP3    H238603   0.494   2.246   4.956 -4.0434  0.2175  0.9481
 5730TIP3   OH238604   4.028   4.861   6.821 -0.0238  0.2380 -0.5516
 5730TIP3    H138605   4.083   4.782   6.825  0.0784  0.3181 -0.3872
 5730TIP3    H238606   4.090   4.932   6.803 -0.0538  0.3509 -0.2088
 5731TIP3   OH238607   3.988   6.410   2.025 -0.2644  0.6094  0.0074
 5731TIP3    H138608   4.029   6.350   1.962  1.7366  1.9991 -0.0594
 5731TIP3    H238609   3.996   6.365   2.109 -0.0400  0.1712 -0.2452
 5732TIP3   OH238610   4.975   6.307  15.150 -0.4490  0.3395  0.6154
 5732TIP3    H138611   4.961   6.392  15.109  0.4812  0.2006  0.0081
 5732TIP3    H238612   5.070   6.300  15.158 -0.5797  0.0669  2.1667
 5733TIP3   OH238613   6.364   5.500  14.767  0.1540  0.2076  0.3590
 5733TIP3    H138614   6.330   5.506  14.677 -1.1640 -1.4449  0.7237
 5733TIP3    H238615   6.297   5.452  14.815 -0.4266  3.3454  2.9011
 5734TIP3   OH238616   4.577   1.082   0.391 -0.4058 -0.4622  0.5109
 5734TIP3    H138617   4.607   1.170   0.367 -1.6463 -0.4999 -1.2692
 5734TIP3    H238618   4.643   1.051   0.453  1.2154  0.8940 -0.4719
 5735TIP3   OH238619   5.512   5.817  14.682  0.0243  0.2292  0.1204
 5735TIP3    H138620   5.446   5.760  14.723 -0.2509  0.4510 -0.0125
 5735TIP3    H238621   5.591   5.803  14.735 -0.5082  1.0347  1.1571
 5736TIP3   OH238622   3.042   4.673  12.209  1.0210 -0.9562 -0.3092
 5736TIP3    H138623   3.126   4.671  12.163  0.2250 -0.5110 -1.8000
 5736TIP3    H238624   2.976   4.674  12.140 -0.1865  0.9618  0.8079
 5737TIP3   OH238625   3.855   0.106  13.244 -0.0998  0.0339 -0.1570
 5737TIP3    H138626   3.904   0.162  13.304  1.2409  1.9255 -2.8563
 5737TIP3    H238627   3.764   0.134  13.253  0.1665  0.6506  0.6429
 5738TIP3   OH238628   0.082   4.438   1.551  0.0625 -0.3253  0.0987
 5738TIP3    H138629   0.040   4.497   1.488  0.1185 -0.9136 -0.4933
 5738TIP3    H238630   0.174   4.464   1.550 -0.4626  1.8557  2.3807
 5739TIP3   OH238631   4.615   5.025   2.240 -0.3238  0.5300 -0.0221
 5739TIP3    H138632   4.658   4.982   2.166 -1.2189  1.1254 -0.9074
 5739TIP3    H238633   4.561   4.956   2.279  0.7198  0.0255  0.5255
 5740TIP3   OH238634   0.295   2.955  16.063  0.1842  0.3238  0.1252
 5740TIP3    H138635   0.263   2.974  16.151  1.8011 -1.2476  1.0812
 5740TIP3    H238636   0.267   2.865  16.046  2.3846 -0.4022  0.2315
 5741TIP3   OH238637   5.929   1.088   2.309  0.3448  0.7127  0.2353
 5741TIP3    H138638   5.927   1.058   2.400  0.3739  1.0211  0.3388
 5741TIP3    H238639   5.843   1.067   2.275  0.7891 -0.6493 -0.0715
 5742TIP3   OH238640   6.633   4.228  14.476 -0.9373  0.1014 -0.0784
 5742TIP3    H138641   6.556   4.285  14.478 -0.3945  0.8112  1.1344
 5742TIP3    H238642   6.694   4.268  14.538  0.5753 -0.2282 -1.3330
 5743TIP3   OH238643   0.930   3.796   3.395  0.1696  0.1943  0.0542
 5743TIP3    H138644   0.891   3.808   3.482 -1.1258  0.6146 -0.5730
 5743TIP3    H238645   1.024   3.808   3.409 -0.1100  1.0592  1.2560
 5744TIP3   OH238646   2.143   1.168   4.381 -0.3037  0.4777 -0.3961
 5744TIP3    H138647   2.117   1.210   4.463 -1.2176 -0.0659 -0.4037
 5744TIP3    H238648   2.231   1.202   4.363 -0.2261  0.8286  0.6485
 5745TIP3   OH238649   4.961   3.712   1.160 -0.1973  0.1021  0.1311
 5745TIP3    H138650   4.945   3.788   1.215 -0.6249 -0.1623  0.3799
 5745TIP3    H238651   5.056   3.712   1.146  0.1512 -0.7271  2.2088
 5746TIP3   OH238652   2.514   0.129  16.492 -0.1340  0.2155  0.1492
 5746TIP3    H138653   2.446   0.094  16.434  0.6139  0.3959 -0.8550
 5746TIP3    H238654   2.505   0.224  16.483  0.6370  0.2344 -0.4499
 5747TIP3   OH238655   5.112   3.042  15.024 -0.4786  0.1620  0.1963
 5747TIP3    H138656   5.021   3.071  15.020 -0.4359  0.3365  0.4361
 5747TIP3    H238657   5.107   2.946  15.024 -0.5082  0.0995 -3.1998
 5748TIP3   OH238658   6.778   5.250  16.367  0.0869  0.0491 -0.0213
 5748TIP3    H138659   6.745   5.332  16.405 -2.7510 -0.8395 -0.4127
 5748TIP3    H238660   6.838   5.216  16.434 -1.2808  0.7887  1.6364
 5749TIP3   OH238661   5.737   2.527  15.075 -0.0710  0.0232  0.3164
 5749TIP3    H138662   5.801   2.570  15.018 -0.9662 -1.4227 -1.8514
 5749TIP3    H238663   5.657   2.577  15.063  0.1367  0.6854  1.5781
 5750TIP3   OH238664   4.599   1.619   1.107  0.1285  0.1906 -0.3746
 5750TIP3    H138665   4.579   1.665   1.026 -1.7811  1.1904  0.6273
 5750TIP3    H238666   4.550   1.537   1.101 -0.8210  0.7066  0.1806
 5751TIP3   OH238667   6.690   3.341  14.833  0.1837 -0.4610  0.9801
 5751TIP3    H138668   6.684   3.246  14.844 -1.2844 -0.5248 -0.1769
 5751TIP3    H238669   6.618   3.375  14.885  1.2502  0.1010  2.1202
 5752TIP3   OH238670   1.722   0.249  16.137 -0.8312 -0.0030 -0.2312
 5752TIP3    H138671   1.641   0.287  16.103 -0.5095  1.8114  1.0101
 5752TIP3    H238672   1.786   0.262  16.066 -1.3031 -0.3238 -0.7190
 5753TIP3   OH238673   6.283   4.383  13.067 -0.3663  0.4446  0.1546
 5753TIP3    H138674   6.364   4.334  13.050  0.8094  2.2469  0.3892
 5753TIP3    H238675   6.294   4.418  13.155 -2.4188 -1.1554  1.0892
 5754TIP3   OH238676   5.462   5.119   1.233 -0.2153  0.1616 -0.2112
 5754TIP3    H138677   5.517   5.136   1.310 -0.0277 -3.3696  0.4974
 5754TIP3    H238678   5.373   5.131   1.265 -0.0391  1.8357 -0.3000
 5755TIP3   OH238679   4.524   0.979   2.476 -0.5446 -0.3658  0.0614
 5755TIP3    H138680   4.467   0.905   2.455  0.1522 -0.5869 -1.0542
 5755TIP3    H238681   4.463   1.053   2.486 -0.9739 -0.3916 -2.0931
 5756TIP3   OH238682   5.114   1.836  16.628 -0.0107 -0.0899 -0.2711
 5756TIP3    H138683   5.109   1.929  16.608  3.7287  0.8241  2.4643
 5756TIP3    H238684   5.144   1.796  16.547 -0.4310  1.2558 -1.1050
 5757TIP3   OH238685   1.183   1.684   5.190  0.2337 -0.0745  0.1637
 5757TIP3    H138686   1.219   1.603   5.153  0.0282  0.4461 -1.2076
 5757TIP3    H238687   1.239   1.703   5.265 -0.8503 -2.5003  1.6522
 5758TIP3   OH238688   6.067   6.235  15.343 -0.1810  0.4562 -0.4260
 5758TIP3    H138689   6.112   6.173  15.286 -1.2412 -1.3340  0.6581
 5758TIP3    H238690   6.123   6.313  15.342  0.3721  0.0891 -3.0412
 5759TIP3   OH238691   1.844   0.366  15.077  0.1548 -0.4758 -0.5018
 5759TIP3    H138692   1.899   0.332  15.007  0.9454 -0.3679  0.0690
 5759TIP3    H238693   1.789   0.292  15.103  0.2676 -0.6760 -0.8366
 5760TIP3   OH238694   3.568   4.641  11.969  0.1228 -0.2285 -0.0596
 5760TIP3    H138695   3.573   4.577  11.898  0.0341  1.0006 -1.1821
 5760TIP3    H238696   3.552   4.725  11.926 -0.0457  0.5261  1.4180
 5761TIP3   OH238697   1.685   3.974  15.510  0.0066 -0.6809  0.0555
 5761TIP3    H138698   1.616   3.941  15.453 -1.1733 -0.0416  1.0759
 5761TIP3    H238699   1.697   4.065  15.485 -4.3776  1.2964  4.2960
 5762TIP3   OH238700   2.384   4.754  17.049  0.6261 -0.3354  0.0502
 5762TIP3    H138701   2.353   4.700  16.977 -0.7447 -0.1384  0.4854
 5762TIP3    H238702   2.350   4.842  17.029  3.8779  0.6892 -1.3202
 5763TIP3   OH238703   0.189   5.925  10.485 -0.1994  0.1102  0.3609
 5763TIP3    H138704   0.256   5.857  10.481  0.0711  0.4644 -2.2473
 5763TIP3    H238705   0.220   5.987  10.551  1.6242 -0.1910 -0.1956
 5764TIP3   OH238706   1.449   0.504  14.910  0.0785  0.6235  0.3524
 5764TIP3    H138707   1.528   0.558  14.914 -0.7571  1.7457  2.3850
 5764TIP3    H238708   1.384   0.559  14.866  0.1862 -0.0121 -0.6196
 5765TIP3   OH238709   1.203   4.733  10.893  0.2892  0.6863 -0.0309
 5765TIP3    H138710   1.237   4.714  10.805  1.6554 -0.2297  0.6655
 5765TIP3    H238711   1.110   4.712  10.888  0.6278 -0.6695 -0.8895
 5766TIP3   OH238712   1.880   4.690  12.837  0.2934  0.0261 -1.0293
 5766TIP3    H138713   1.849   4.612  12.791 -0.8760 -0.1440 -0.0049
 5766TIP3    H238714   1.913   4.656  12.921  0.1734  0.5786 -0.7565
 5767TIP3   OH238715   5.233   4.842  13.455  0.2920 -0.5082  0.3313
 5767TIP3    H138716   5.194   4.812  13.373  0.5614 -1.4068  0.5306
 5767TIP3    H238717   5.318   4.798  13.459  0.7897  0.4567  0.5214
 5768TIP3   OH238718   5.371   1.960  11.990  0.0016  0.4893 -0.4356
 5768TIP3    H138719   5.397   1.937  12.079  0.1253  1.4054 -0.2358
 5768TIP3    H238720   5.447   1.936  11.936 -0.4724 -1.0539 -0.4402
 5769TIP3   OH238721   4.774   0.343   3.501  0.5545 -0.7572 -0.1686
 5769TIP3    H138722   4.685   0.310   3.497 -0.5273  2.1424 -0.8626
 5769TIP3    H238723   4.811   0.321   3.415 -0.8626  1.6946 -1.4429
 5770TIP3   OH238724   0.096   3.276   4.203 -0.0680 -0.3287  0.0800
 5770TIP3    H138725   0.183   3.277   4.242 -0.8639  0.8017  1.9319
 5770TIP3    H238726   0.045   3.335   4.258 -2.1122 -1.2953 -0.7175
 5771TIP3   OH238727   1.379   0.406   3.375 -0.0430 -0.1028 -0.5112
 5771TIP3    H138728   1.437   0.333   3.397 -0.9039 -0.6400 -0.0056
 5771TIP3    H238729   1.372   0.455   3.457  0.0699  0.2247 -0.6983
 5772TIP3   OH238730   3.467   0.271  15.895  0.4291  0.5524 -0.2339
 5772TIP3    H138731   3.491   0.354  15.938 -2.0611  1.2936 -0.2407
 5772TIP3    H238732   3.375   0.257  15.918 -0.1772 -0.4596 -3.0730
 5773TIP3   OH238733   3.966   6.282   2.295  0.0732  0.1658  0.6174
 5773TIP3    H138734   3.960   6.219   2.223  0.8876 -0.7071  1.2914
 5773TIP3    H238735   3.876   6.295   2.323 -0.2110  0.2099 -0.2986
 5774TIP3   OH238736   6.427   0.638  16.987  0.4279  0.0098 -0.4307
 5774TIP3    H138737   6.382   0.564  16.947 -0.5274  1.3265 -1.8448
 5774TIP3    H238738   6.485   0.672  16.919  1.9015 -0.2921  0.6596
 5775TIP3   OH238739   2.775   1.722   4.392  0.1871 -0.2627 -0.1644
 5775TIP3    H138740   2.832   1.752   4.462 -1.8824  1.1148  0.9997
 5775TIP3    H238741   2.833   1.676   4.331  2.6485  1.8613  0.4935
 5776TIP3   OH238742   1.315   4.668  15.529 -0.2566 -0.0060 -0.1156
 5776TIP3    H138743   1.318   4.636  15.619 -2.1725 -0.0801 -0.0438
 5776TIP3    H238744   1.380   4.616  15.483 -0.0481 -0.7611  0.9967
 5777TIP3   OH238745   2.259   2.425  15.498  0.7446 -0.1098 -0.3755
 5777TIP3    H138746   2.298   2.394  15.416  1.5203 -0.9250  0.2941
 5777TIP3    H238747   2.177   2.466  15.471  0.3367 -1.5688 -1.4311
 5778TIP3   OH238748   6.110   5.970   0.211 -0.5002 -0.2793  0.0152
 5778TIP3    H138749   6.194   5.945   0.172  0.3034  0.5238  1.1722
 5778TIP3    H238750   6.045   5.921   0.161  0.6175 -0.5568 -1.2122
 5779TIP3   OH238751   1.562   1.578   6.498 -0.4405  0.1231 -0.6996
 5779TIP3    H138752   1.541   1.661   6.542 -3.0294 -1.2567  0.8196
 5779TIP3    H238753   1.628   1.538   6.554 -0.2184  0.5307 -0.6681
 5780TIP3   OH238754   5.133   1.742  17.211 -0.2918 -0.0003  0.2462
 5780TIP3    H138755   5.227   1.755  17.222 -0.3620  0.4610  0.3034
 5780TIP3    H238756   5.108   1.683  17.282 -0.0189 -0.2526  0.1336
 5781TIP3   OH238757   4.419   1.237   1.587 -0.2348  0.5599 -0.2872
 5781TIP3    H138758   4.450   1.178   1.655 -0.1648 -1.2911 -1.8931
 5781TIP3    H238759   4.338   1.274   1.622 -0.8201 -1.2646  0.3093
 5782TIP3   OH238760   2.498   5.153  15.214  0.3582 -0.5417  0.8184
 5782TIP3    H138761   2.442   5.088  15.171  0.2763 -0.2837  0.5342
 5782TIP3    H238762   2.539   5.201  15.142 -0.6290  0.6284  1.0036
 5783TIP3   OH238763   1.309   4.548   3.703  0.2292  0.2791  0.3047
 5783TIP3    H138764   1.316   4.552   3.799  0.2731 -0.4237  0.3370
 5783TIP3    H238765   1.346   4.463   3.681  3.1232  1.7396 -0.6189
 5784TIP3   OH238766   4.722   1.069   0.629 -0.4402 -0.2579  0.1335
 5784TIP3    H138767   4.765   1.128   0.692 -0.3401 -0.4093  0.2083
 5784TIP3    H238768   4.677   1.005   0.684 -2.3866  1.0428  0.0852
 5785TIP3   OH238769   5.096   3.798  11.503  0.0679 -1.1729 -0.4916
 5785TIP3    H138770   5.056   3.832  11.583  1.2328 -0.5988 -0.1276
 5785TIP3    H238771   5.154   3.727  11.534  0.5376 -0.9354 -0.8145
 5786TIP3   OH238772   3.947   2.665   4.980  0.1685  0.1667  0.0251
 5786TIP3    H138773   3.911   2.735   4.925 -0.2075 -0.9242 -1.1508
 5786TIP3    H238774   3.882   2.652   5.048  0.6999  1.6287  0.8188
 5787TIP3   OH238775   4.761   3.599  15.184  0.1940 -0.3848 -0.0398
 5787TIP3    H138776   4.710   3.671  15.220  1.9186 -0.0557  1.8638
 5787TIP3    H238777   4.700   3.526  15.179 -0.8096  0.3900  0.8528
 5788TIP3   OH238778   3.109   0.863   5.835 -0.1217  0.7984  0.3504
 5788TIP3    H138779   3.062   0.794   5.881  1.9004 -2.1465 -1.8577
 5788TIP3    H238780   3.052   0.885   5.761  1.0589 -1.4350 -1.2578
 5789TIP3   OH238781   5.735   2.257  14.045 -0.0685  0.6062 -0.3763
 5789TIP3    H138782   5.662   2.264  14.107 -0.2558 -1.7901 -0.2616
 5789TIP3    H238783   5.786   2.183  14.077  1.9147  1.6821 -0.9920
 5790TIP3   OH238784   2.440   6.441  14.550 -0.0753 -0.4474  0.4256
 5790TIP3    H138785   2.395   6.477  14.474 -2.8093 -0.0239  2.1388
 5790TIP3    H238786   2.508   6.505  14.570 -1.9151  1.5115  0.6704
 5791TIP3   OH238787   3.590   1.023  10.910  0.2110 -1.2470 -0.3199
 5791TIP3    H138788   3.572   0.957  10.844  0.6565 -1.3537 -0.3368
 5791TIP3    H238789   3.529   1.004  10.981  0.1395 -1.4953 -0.4488
 5792TIP3   OH238790   5.109   3.375   5.359  0.2245  0.1503 -0.2396
 5792TIP3    H138791   5.109   3.280   5.348 -0.4864  0.2005 -0.6957
 5792TIP3    H238792   5.187   3.393   5.412 -0.5004 -0.8443  1.1946
 5793TIP3   OH238793   5.602   3.318  13.137 -0.2111  0.7564  0.0919
 5793TIP3    H138794   5.696   3.333  13.129 -0.2875  0.5106 -1.3422
 5793TIP3    H238795   5.563   3.376  13.072 -1.0942  1.2947  1.0975
 5794TIP3   OH238796   1.069   4.589  10.662 -0.1897  0.2125  0.7338
 5794TIP3    H138797   1.154   4.634  10.654 -0.1895 -0.2738 -2.1761
 5794TIP3    H238798   1.091   4.504  10.700  0.6972 -0.0996 -0.4480
 5795TIP3   OH238799   3.840   5.052   4.172  0.0890  0.2767  0.6030
 5795TIP3    H138800   3.755   5.033   4.132  0.0557 -2.0083  1.6752
 5795TIP3    H238801   3.836   5.010   4.258  2.2047  0.3829  0.7838
 5796TIP3   OH238802   6.375   4.806   4.104  0.2838  0.6583 -0.3269
 5796TIP3    H138803   6.325   4.881   4.072  0.9423  1.2543  0.0236
 5796TIP3    H238804   6.310   4.752   4.149 -0.2282  0.9350 -0.7241
 5797TIP3   OH238805   3.559   3.377   5.820 -0.3906  0.3981 -0.2960
 5797TIP3    H138806   3.577   3.355   5.729  1.1023  1.5176 -0.2866
 5797TIP3    H238807   3.545   3.293   5.864 -1.9541 -0.1003 -1.7130
 5798TIP3   OH238808   1.760   5.350   0.844  0.3160 -0.3578  0.0173
 5798TIP3    H138809   1.700   5.335   0.917  0.1214 -0.3389 -0.1378
 5798TIP3    H238810   1.797   5.437   0.861  0.9760 -0.7486  0.5865
 5799TIP3   OH238811   0.281   3.971  15.033  0.3059  0.0152  0.2844
 5799TIP3    H138812   0.335   3.898  15.065  0.4304 -1.0924 -2.3051
 5799TIP3    H238813   0.343   4.042  15.018  0.4231  0.1199  1.1959
 5800TIP3   OH238814   2.584   5.109  14.690 -0.5405  0.2008 -1.0987
 5800TIP3    H138815   2.637   5.035  14.661  1.2781  1.4572 -1.0583
 5800TIP3    H238816   2.617   5.183  14.640 -0.2981  1.5604  1.0263
 5801TIP3   OH238817   5.992   3.773   2.700 -0.3118  0.2145 -0.6775
 5801TIP3    H138818   5.906   3.737   2.679  0.3041 -0.2099 -2.5216
 5801TIP3    H238819   6.019   3.820   2.621  0.5826  1.4882  0.3514
 5802TIP3   OH238820   1.505   4.799   0.512  0.0235 -0.0564 -0.0981
 5802TIP3    H138821   1.416   4.764   0.525  0.3208 -0.9210 -0.3494
 5802TIP3    H238822   1.562   4.738   0.558  0.5579  0.0630 -0.5929
 5803TIP3   OH238823   2.817   3.457  14.225 -0.1961  0.5017 -0.0078
 5803TIP3    H138824   2.796   3.535  14.173  0.1610  1.2930  1.0009
 5803TIP3    H238825   2.902   3.477  14.264  0.6142 -1.0435 -0.9443
 5804TIP3   OH238826   2.283   2.493   0.928  0.0757  0.3578  0.9991
 5804TIP3    H138827   2.296   2.573   0.876  0.0986  0.6480  1.4529
 5804TIP3    H238828   2.237   2.434   0.869  0.5241  0.5169  0.4811
 5805TIP3   OH238829   0.240   4.916  13.588  0.3602  0.3212 -0.3312
 5805TIP3    H138830   0.157   4.931  13.544  0.8611  1.1164 -1.0029
 5805TIP3    H238831   0.218   4.859  13.662 -0.8072  0.6965 -0.3927
 5806TIP3   OH238832   5.201   0.940   0.115  0.2310 -0.3555  0.5862
 5806TIP3    H138833   5.209   0.960   0.022  0.4901 -3.1227 -0.0383
 5806TIP3    H238834   5.290   0.916   0.141 -0.0823 -0.8064  1.2375
 5807TIP3   OH238835   3.658   0.199   1.426 -0.1080  0.0227  0.1061
 5807TIP3    H138836   3.642   0.216   1.333  0.0651  2.0148  0.4074
 5807TIP3    H238837   3.608   0.267   1.472  1.7126  0.5658  1.3638
 5808TIP3   OH238838   5.631   3.681   0.571  0.0983 -0.1620 -0.4596
 5808TIP3    H138839   5.567   3.611   0.561  0.6999 -0.5020 -2.2204
 5808TIP3    H238840   5.582   3.753   0.610 -0.2392 -1.9167  2.5143
 5809TIP3   OH238841   5.553   2.671  12.258 -0.2475 -0.2770  0.3022
 5809TIP3    H138842   5.636   2.669  12.307 -0.2611 -1.8428  0.2643
 5809TIP3    H238843   5.492   2.620  12.310 -0.7617 -0.4602 -0.4685
 5810TIP3   OH238844   2.108   1.213   3.759  0.3734 -0.2451  0.1182
 5810TIP3    H138845   2.098   1.135   3.814  1.9904  1.1466  2.5001
 5810TIP3    H238846   2.144   1.180   3.677 -0.6738 -2.2087  0.4077
 5811TIP3   OH238847   5.459   4.934   0.588  0.2249  0.8756 -0.2698
 5811TIP3    H138848   5.410   4.860   0.550  0.7195 -1.5187  3.5068
 5811TIP3    H238849   5.549   4.903   0.593  0.7136  2.3071  0.0551
 5812TIP3   OH238850   2.966   1.767   3.677 -0.5519  0.2612  0.1695
 5812TIP3    H138851   3.007   1.853   3.675  0.3098 -0.1056  1.5071
 5812TIP3    H238852   3.023   1.714   3.732 -1.9022 -0.7433  0.6444
 5813TIP3   OH238853   3.948   3.748  16.646  0.0769  0.1999  0.2871
 5813TIP3    H138854   3.905   3.777  16.566  0.3365  0.9976  0.4387
 5813TIP3    H238855   3.893   3.780  16.717 -1.5462 -2.6724  0.4056
 5814TIP3   OH238856   1.216   4.332   3.903  0.2702 -0.4269 -0.1126
 5814TIP3    H138857   1.130   4.347   3.865 -0.7670 -4.3138  0.5369
 5814TIP3    H238858   1.260   4.272   3.843  1.2669 -1.0735  1.2203
 5815TIP3   OH238859   5.242   5.901  15.229 -0.7317  0.5060  0.4393
 5815TIP3    H138860   5.150   5.880  15.210 -1.2855  0.8714  2.4716
 5815TIP3    H238861   5.242   5.921  15.323  1.6378 -0.5410  0.6990
 5816TIP3   OH238862   1.797   6.634   2.311  0.2602 -0.1790  0.3693
 5816TIP3    H138863   1.748   6.573   2.366  2.3747 -2.1338  0.1636
 5816TIP3    H238864   1.879   6.588   2.291  1.2371  2.1061 -1.1054
 5817TIP3   OH238865   2.233   0.851  15.945  0.1182 -0.4950 -0.6071
 5817TIP3    H138866   2.187   0.780  15.988  0.9658 -0.8825 -0.3332
 5817TIP3    H238867   2.291   0.887  16.012 -0.4471  0.5893 -0.6793
 5818TIP3   OH238868   6.598   4.998   0.919  0.3815  0.0531  0.4179
 5818TIP3    H138869   6.576   5.065   0.855  1.4890  1.4398  1.4519
 5818TIP3    H238870   6.536   5.010   0.990  1.1296  0.5389  0.9891
 5819TIP3   OH238871   1.548   5.930  11.576 -0.1429 -0.8337 -0.5136
 5819TIP3    H138872   1.544   5.834  11.570 -0.5355 -0.7598 -1.5460
 5819TIP3    H238873   1.613   5.947  11.644  1.0243 -1.8363 -1.3562
 5820TIP3   OH238874   0.130   4.971  12.235 -0.4640 -0.1241 -0.6524
 5820TIP3    H138875   0.130   5.065  12.252  0.8357 -0.0981 -0.7926
 5820TIP3    H238876   0.065   4.936  12.296 -1.4092  0.9337 -1.0387
 5821TIP3   OH238877   3.641   2.256   2.451  0.4409 -0.2093 -0.0288
 5821TIP3    H138878   3.613   2.171   2.485 -0.0497 -0.1002 -0.1544
 5821TIP3    H238879   3.634   2.316   2.525 -4.4766  0.9044 -1.2269
 5822TIP3   OH238880   6.442   6.050  16.313 -0.6290 -0.2821  0.4369
 5822TIP3    H138881   6.525   6.080  16.277 -0.6343 -0.6639  0.1112
 5822TIP3    H238882   6.395   6.131  16.335  0.6899 -0.0724  2.6415
 5823TIP3   OH238883   6.746   1.932   1.210  0.2141  0.3133  0.2464
 5823TIP3    H138884   6.712   1.845   1.189  0.7904  0.0328  0.4725
 5823TIP3    H238885   6.674   1.992   1.187 -0.4354 -0.2745  0.7341
 5824TIP3   OH238886   5.789   4.087  14.994 -0.0146  0.1859  0.3948
 5824TIP3    H138887   5.821   4.001  14.970 -3.3905 -0.4086 -2.3887
 5824TIP3    H238888   5.799   4.091  15.089 -0.1456 -3.4407  0.6064
 5825TIP3   OH238889   1.128   5.398   1.718 -0.0876 -0.0786 -0.0423
 5825TIP3    H138890   1.185   5.438   1.653  0.6791 -0.7539  0.1946
 5825TIP3    H238891   1.064   5.465   1.740  0.2080  0.4579 -0.8150
 5826TIP3   OH238892   5.995   6.581  15.350 -0.5813 -0.5586  0.7456
 5826TIP3    H138893   5.902   6.589  15.368 -0.9998 -2.5859 -0.3920
 5826TIP3    H238894   6.003   6.590  15.255  0.1504 -2.1459  0.6379
 5827TIP3   OH238895   6.672   0.214   1.260 -0.5512 -0.0016  0.0219
 5827TIP3    H138896   6.589   0.244   1.297  0.4543 -0.8224  3.1038
 5827TIP3    H238897   6.665   0.119   1.258  0.2423 -0.0723  0.1415
 5828TIP3   OH238898   5.514   4.570  15.371 -0.2442 -1.1326 -0.2228
 5828TIP3    H138899   5.586   4.573  15.308 -0.6921  1.0465 -0.6723
 5828TIP3    H238900   5.436   4.584  15.318 -0.6651  0.2332  0.7396
 5829TIP3   OH238901   2.964   5.332   1.758  0.6412  0.6313 -0.4931
 5829TIP3    H138902   3.054   5.326   1.728  0.5422 -1.2427 -0.4966
 5829TIP3    H238903   2.924   5.250   1.729 -1.1034  1.5126 -0.6306
 5830TIP3   OH238904   4.221   6.034   5.482  0.3040 -0.7156 -0.1523
 5830TIP3    H138905   4.127   6.048   5.474  0.6360  0.7903 -2.0037
 5830TIP3    H238906   4.260   6.112   5.442  2.3409 -1.0580  1.0772
 5831TIP3   OH238907   5.529   6.031   1.480 -0.0458  0.0042  0.2163
 5831TIP3    H138908   5.487   6.117   1.479  0.0956  0.0997  1.5610
 5831TIP3    H238909   5.623   6.051   1.488  0.0430 -0.2657 -0.1373
 5832TIP3   OH238910   5.197   2.570  11.537  0.6150 -0.0845  0.2549
 5832TIP3    H138911   5.241   2.485  11.537 -0.7759 -0.9155 -3.4954
 5832TIP3    H238912   5.158   2.577  11.624  1.1017 -3.1109  0.7754
 5833TIP3   OH238913   5.132   4.620  16.128 -0.5092  0.3315  0.4675
 5833TIP3    H138914   5.145   4.714  16.123 -0.5159  0.3294  0.4117
 5833TIP3    H238915   5.108   4.603  16.219  1.0972  0.1883  0.8849
 5834TIP3   OH238916   0.212   4.658  14.010  0.3127  0.1427  0.6601
 5834TIP3    H138917   0.245   4.713  13.939 -1.1968 -0.4456 -0.5281
 5834TIP3    H238918   0.159   4.717  14.064  0.1326  0.2369  0.3770
 5835TIP3   OH238919   4.471   2.446  15.113 -0.5067 -0.6847 -0.4317
 5835TIP3    H138920   4.562   2.475  15.111 -0.3205 -1.0035  1.8230
 5835TIP3    H238921   4.469   2.367  15.061  0.2617 -0.0177 -1.4867
 5836TIP3   OH238922   2.579   4.648   2.888  0.2165  0.3233 -0.3146
 5836TIP3    H138923   2.667   4.649   2.927  0.8737 -0.7027 -1.6941
 5836TIP3    H238924   2.591   4.603   2.804 -1.7456 -0.3554 -0.2628
 5837TIP3   OH238925   5.836   4.983  11.854 -0.2302  0.0597  0.2395
 5837TIP3    H138926   5.917   4.955  11.812 -0.5722  0.2027 -0.5269
 5837TIP3    H238927   5.823   4.920  11.925  0.3539 -0.1851  0.1359
 5838TIP3   OH238928   3.139   6.299   3.011 -0.3935 -0.3077 -0.1939
 5838TIP3    H138929   3.218   6.341   2.976 -0.3959  0.6493  0.9234
 5838TIP3    H238930   3.162   6.206   3.015  0.2605 -0.1912 -0.9801
 5839TIP3   OH238931   2.033   0.113   3.759  0.0884 -0.7904 -0.5354
 5839TIP3    H138932   2.116   0.103   3.805 -0.5857 -0.4011  0.7895
 5839TIP3    H238933   2.025   0.033   3.706  0.6664 -1.4369  0.3523
 5840TIP3   OH238934   1.165   1.148   2.330 -0.0057 -0.3840  0.3708
 5840TIP3    H138935   1.167   1.056   2.305  1.4022 -0.7742  1.7805
 5840TIP3    H238936   1.133   1.148   2.420  2.1333  0.2734  1.1636
 5841TIP3   OH238937   4.344   4.677   3.067 -0.0468 -1.0457  0.0045
 5841TIP3    H138938   4.253   4.697   3.045  0.0356  0.7265  1.2144
 5841TIP3    H238939   4.355   4.585   3.042 -1.7422 -0.8616 -1.5005
 5842TIP3   OH238940   6.131   4.712  12.048 -0.1736  0.2451 -0.1474
 5842TIP3    H138941   6.141   4.619  12.030 -1.4741 -0.0883  0.8305
 5842TIP3    H238942   6.065   4.717  12.116  0.5644  1.8396  0.4825
 5843TIP3   OH238943   4.504   2.353   2.397  0.2520 -0.8405 -0.0848
 5843TIP3    H138944   4.465   2.372   2.482  0.4841 -1.5104  0.1740
 5843TIP3    H238945   4.430   2.349   2.337  0.1249  0.0853 -0.0021
 5844TIP3   OH238946   2.247   4.711   1.513  0.4684  0.9917  0.5245
 5844TIP3    H138947   2.315   4.778   1.516 -0.8142  2.3458  0.0418
 5844TIP3    H238948   2.190   4.738   1.441 -0.6951 -0.0073  1.0508
 5845TIP3   OH238949   0.015   1.563  14.332  0.0828  0.5607  0.0576
 5845TIP3    H138950  -0.062   1.581  14.385  0.0331  2.8906 -0.7407
 5845TIP3    H238951   0.081   1.624  14.365  0.2546  1.5617 -2.0847
 5846TIP3   OH238952   2.810   6.577   2.597 -0.2544  0.1649 -0.2063
 5846TIP3    H138953   2.893   6.531   2.605 -0.2653  0.0886 -0.5546
 5846TIP3    H238954   2.745   6.515   2.629  0.0144  0.8598  1.7834
 5847TIP3   OH238955   1.148   1.904   4.814 -0.4623 -0.0875 -0.1988
 5847TIP3    H138956   1.076   1.863   4.766 -2.4900  2.9522  0.1513
 5847TIP3    H238957   1.134   1.879   4.905  0.6157 -1.8474 -0.4861
 5848TIP3   OH238958   1.846   0.887   0.805  0.1468 -0.1275  0.2060
 5848TIP3    H138959   1.777   0.822   0.789  2.6174 -2.5910 -0.8616
 5848TIP3    H238960   1.827   0.957   0.742 -1.8985 -0.3316  0.5611
 5849TIP3   OH238961   2.679   3.989   1.686 -0.3392  0.2588  0.6028
 5849TIP3    H138962   2.685   3.915   1.746  0.4697 -0.1029  0.0800
 5849TIP3    H238963   2.764   3.992   1.643 -0.3401  1.5508  0.6791
 5850TIP3   OH238964   2.640   3.939   6.133 -0.5294 -0.2958  0.2726
 5850TIP3    H138965   2.697   3.906   6.204 -0.0892  1.0420  0.5606
 5850TIP3    H238966   2.652   4.034   6.136 -1.4318 -0.1459 -0.8350
 5851TIP3   OH238967   4.257   0.924   4.413 -0.4082 -0.7538 -0.2279
 5851TIP3    H138968   4.344   0.963   4.411 -0.9809  0.4925 -1.0600
 5851TIP3    H238969   4.230   0.930   4.505  0.7327 -1.9680  0.2109
 5852TIP3   OH238970   6.478   6.009  15.297  0.2635 -0.0747  0.0846
 5852TIP3    H138971   6.465   5.917  15.273  3.1142 -0.6491  0.5463
 5852TIP3    H238972   6.503   6.006  15.389 -0.6465  1.2751  0.3900
 5853TIP3   OH238973   5.422   2.118  10.850 -0.3830 -0.3440  0.2410
 5853TIP3    H138974   5.398   2.154  10.764  2.1526 -0.1106 -0.4230
 5853TIP3    H238975   5.509   2.080  10.836  1.0026  1.5882  3.1906
 5854TIP3   OH238976   4.689   2.820   1.765 -0.1035  0.0541 -0.2051
 5854TIP3    H138977   4.769   2.829   1.713 -0.0479  1.7963  0.1530
 5854TIP3    H238978   4.719   2.783   1.848  0.5500  1.9627  0.4302
 5855TIP3   OH238979   2.607   1.402   2.964  0.2479 -0.0065 -0.4449
 5855TIP3    H138980   2.562   1.485   2.980  0.5305 -0.0040  0.3384
 5855TIP3    H238981   2.657   1.386   3.043 -0.3988 -1.3017 -0.2826
 5856TIP3   OH238982   1.699   0.299   4.362  0.7368 -0.3231 -0.2469
 5856TIP3    H138983   1.677   0.232   4.297  1.2094 -0.1090 -0.6354
 5856TIP3    H238984   1.618   0.347   4.376  0.8431  0.2069 -1.3610
 5857TIP3   OH238985   0.989   2.087  14.723  0.3699 -0.4290  0.0365
 5857TIP3    H138986   0.913   2.121  14.677  1.1778  0.6766 -0.5194
 5857TIP3    H238987   1.058   2.151  14.705  1.2803 -1.1280  0.9790
 5858TIP3   OH238988   6.552   2.460  16.633  0.1437 -0.0654 -0.3576
 5858TIP3    H138989   6.527   2.429  16.721  0.1977 -0.7342 -0.5739
 5858TIP3    H238990   6.573   2.553  16.645 -2.5195  0.5482 -0.1672
 5859TIP3   OH238991   5.038   5.885   4.140 -0.3188 -0.2155 -0.4194
 5859TIP3    H138992   5.085   5.805   4.164  1.9174  1.1476 -0.2054
 5859TIP3    H238993   5.093   5.956   4.171 -1.9932  1.4470 -1.1643
 5860TIP3   OH238994   1.184   6.004   3.005 -0.0416  0.2281 -0.3657
 5860TIP3    H138995   1.181   6.019   2.911  0.6593 -0.0383 -0.4321
 5860TIP3    H238996   1.101   6.041   3.038 -0.9073 -0.9031 -1.2502
 5861TIP3   OH238997   6.459   3.321  12.860  0.5144  0.2904  0.1998
 5861TIP3    H138998   6.506   3.239  12.847 -0.4810 -0.3230  0.3619
 5861TIP3    H238999   6.470   3.340  12.953  0.1006 -0.0779  0.3283
 5862TIP3   OH239000   1.840   1.230   3.624 -0.5738  0.3169  0.6050
 5862TIP3    H139001   1.859   1.137   3.615 -1.6926  0.2201 -0.8806
 5862TIP3    H239002   1.890   1.257   3.701 -0.0050 -1.4384  0.8750
 5863TIP3   OH239003   1.647   4.425   1.981  0.4208  0.3388  0.3068
 5863TIP3    H139004   1.695   4.448   1.901  1.2499 -1.8929  0.1216
 5863TIP3    H239005   1.570   4.377   1.949  0.6662 -0.4082  0.8128
 5864TIP3   OH239006   3.817   2.072  12.268  0.4057  0.3667 -0.3325
 5864TIP3    H139007   3.835   2.004  12.333 -1.7271  0.1589  0.0910
 5864TIP3    H239008   3.874   2.144  12.292 -0.8046  0.5414  2.1979
 5865TIP3   OH239009   6.510   3.910   2.273 -0.0606 -0.1064  0.8846
 5865TIP3    H139010   6.517   3.980   2.209  0.9890 -1.3078 -0.3348
 5865TIP3    H239011   6.570   3.934   2.343  0.7116 -0.0566  0.2059
 5866TIP3   OH239012   5.654   6.400  10.415  0.1422 -0.7429  0.8565
 5866TIP3    H139013   5.668   6.477  10.361 -1.4228 -0.8247  0.3228
 5866TIP3    H239014   5.576   6.420  10.468 -0.5720 -2.1211  0.3705
 5867TIP3   OH239015   1.556   2.459   2.391 -0.5281  0.1105 -0.0959
 5867TIP3    H139016   1.581   2.479   2.480  0.1613 -0.3153 -0.1925
 5867TIP3    H239017   1.608   2.382   2.368 -0.3007  0.5447 -1.0499
 5868TIP3   OH239018   5.906   0.102  14.566  0.0258 -0.3633 -0.6699
 5868TIP3    H139019   5.933   0.014  14.540 -1.4809 -0.8914 -0.4885
 5868TIP3    H239020   5.826   0.118  14.516 -0.8167  0.1059  0.8039
 5869TIP3   OH239021   0.182   5.075   5.230 -0.2180  0.2809 -0.7355
 5869TIP3    H139022   0.169   5.013   5.300 -2.3156  0.1417 -1.2172
 5869TIP3    H239023   0.155   5.160   5.267  0.4736  0.5222 -0.7802
 5870TIP3   OH239024   6.710   1.577   5.451 -0.0342  0.2857  0.3001
 5870TIP3    H139025   6.730   1.602   5.361  1.5658  0.0538  0.5830
 5870TIP3    H239026   6.709   1.660   5.499  1.3013  0.2059  0.4800
 5871TIP3   OH239027   3.209   2.624   3.308  0.0512 -0.2690  0.4218
 5871TIP3    H139028   3.267   2.639   3.383 -1.4972 -0.4462  1.6903
 5871TIP3    H239029   3.199   2.710   3.268  2.5819 -0.5418 -0.8799
 5872TIP3   OH239030   5.544   3.631   6.141 -0.2121 -0.0986 -0.4271
 5872TIP3    H139031   5.572   3.631   6.232 -0.7739 -0.0794 -0.2498
 5872TIP3    H239032   5.530   3.724   6.121 -1.1750 -0.1902 -0.1895
 5873TIP3   OH239033   3.059   0.548   5.339 -0.2952  0.5642 -0.1077
 5873TIP3    H139034   3.135   0.600   5.313  0.4540 -0.2859  0.3549
 5873TIP3    H239035   3.007   0.541   5.259 -0.3796  1.9484 -0.2022
 5874TIP3   OH239036   2.425   3.446  12.608 -0.2751  0.2323  0.0899
 5874TIP3    H139037   2.509   3.453  12.653 -0.1348 -1.1149  0.0613
 5874TIP3    H239038   2.439   3.489  12.524  0.4663 -0.2288 -0.0245
 5875TIP3   OH239039   0.816   5.267   5.237  0.2423 -0.2149 -0.5959
 5875TIP3    H139040   0.825   5.183   5.192  2.3281 -0.8200  0.9087
 5875TIP3    H239041   0.874   5.261   5.313 -0.9867  1.8915  0.5700
 5876TIP3   OH239042   6.312   6.557  16.520 -0.4665 -0.2816  0.3019
 5876TIP3    H139043   6.314   6.461  16.521  0.6304 -0.2676  0.2078
 5876TIP3    H239044   6.339   6.580  16.431 -1.1017  0.1174  0.2115
 5877TIP3   OH239045   2.701   5.423  15.893  0.6356 -0.5024  0.5587
 5877TIP3    H139046   2.660   5.375  15.964  0.1707 -0.8401  0.0661
 5877TIP3    H239047   2.650   5.400  15.815 -1.1751  2.7145  0.6927
 5878TIP3   OH239048   6.527   5.220   2.099  0.5276 -0.7985  0.0753
 5878TIP3    H139049   6.607   5.171   2.086  0.1543 -1.1604 -0.8751
 5878TIP3    H239050   6.503   5.204   2.191  1.0922 -1.3485  0.1241
 5879TIP3   OH239051   1.491   2.122  11.054 -0.0828 -0.1984  0.7739
 5879TIP3    H139052   1.540   2.198  11.085  1.6961 -0.4028 -1.4301
 5879TIP3    H239053   1.401   2.152  11.049 -0.2482  0.2754  4.6416
 5880TIP3   OH239054   0.972   3.024  16.426  0.3423  0.4094 -0.5300
 5880TIP3    H139055   0.990   2.931  16.439 -0.5406  0.2140 -0.6349
 5880TIP3    H239056   0.941   3.030  16.335 -0.3889  0.6716 -0.2711
 5881TIP3   OH239057   1.046   2.245  12.141  0.1156 -0.0137 -0.2599
 5881TIP3    H139058   1.050   2.332  12.182 -1.3569  0.2848 -0.7142
 5881TIP3    H239059   1.044   2.264  12.047 -2.5431 -0.4214 -0.3118
 5882TIP3   OH239060   0.587   3.731   5.404  0.2656  0.3519 -0.4105
 5882TIP3    H139061   0.547   3.719   5.318 -2.1820 -0.1254  0.7468
 5882TIP3    H239062   0.547   3.811   5.438 -2.8710 -2.2799  2.4424
 5883TIP3   OH239063   3.377   3.993  11.522 -0.5031 -0.2757 -0.0574
 5883TIP3    H139064   3.417   4.075  11.551  0.5573 -1.1730  1.1204
 5883TIP3    H239065   3.356   4.007  11.430  1.2519  0.7222 -0.3273
 5884TIP3   OH239066   5.124   4.504  12.810 -0.0293 -0.1022 -0.3207
 5884TIP3    H139067   5.062   4.574  12.826  2.0647  2.0666 -1.3651
 5884TIP3    H239068   5.207   4.549  12.795  1.4178 -2.8287 -0.7691
 5885TIP3   OH239069   4.762   4.789   0.800  0.2403  0.5015 -0.0946
 5885TIP3    H139070   4.758   4.751   0.713 -0.5193 -0.7147  0.4619
 5885TIP3    H239071   4.843   4.753   0.838  0.2086  0.4862 -0.0417
 5886TIP3   OH239072   6.451   1.963   4.907  0.1142  0.5645 -0.4981
 5886TIP3    H139073   6.445   1.967   5.002 -0.3514  0.2094 -0.5120
 5886TIP3    H239074   6.519   1.898   4.889 -0.6560 -0.2677 -0.4224
 5887TIP3   OH239075   5.712   5.404  14.233 -0.3040 -0.1908  0.5727
 5887TIP3    H139076   5.660   5.346  14.178  1.1948 -0.3774 -0.6670
 5887TIP3    H239077   5.739   5.349  14.307 -0.0834 -0.6743  0.1333
 5888TIP3   OH239078   4.254   0.607   4.608  0.3646  0.0476 -0.0596
 5888TIP3    H139079   4.317   0.541   4.581 -0.7644 -1.7776  1.6277
 5888TIP3    H239080   4.177   0.591   4.553 -0.1766 -0.5579  0.8505
 5889TIP3   OH239081   4.501   2.035  13.910 -0.3854 -0.3056 -0.2514
 5889TIP3    H139082   4.492   2.124  13.942  0.7379 -0.9787  2.1173
 5889TIP3    H239083   4.424   1.989  13.945  0.4420 -0.8705  0.8564
 5890TIP3   OH239084   0.990   0.554  12.313  0.2229  0.2083  0.0465
 5890TIP3    H139085   1.027   0.500  12.383 -0.0422 -1.0220 -0.7382
 5890TIP3    H239086   0.899   0.527  12.308 -0.3861  2.0620  0.8695
 5891TIP3   OH239087   0.097   3.761  13.129 -0.0686  0.3505  0.1907
 5891TIP3    H139088   0.092   3.803  13.216  0.0517 -0.1398  0.4355
 5891TIP3    H239089   0.050   3.822  13.071  0.2409  0.9025  0.5134
 5892TIP3   OH239090   3.525   1.400   1.104  0.0604 -0.0382 -0.6681
 5892TIP3    H139091   3.525   1.490   1.138  0.5327 -0.3813  0.2402
 5892TIP3    H239092   3.533   1.411   1.009 -0.1776  0.8858 -0.5886
 5893TIP3   OH239093   5.065   1.157   1.309 -0.3786 -0.2517  0.6072
 5893TIP3    H139094   5.025   1.218   1.371 -0.9089  0.0495 -0.0268
 5893TIP3    H239095   5.116   1.212   1.250  2.0197 -0.7329  2.1411
 5894TIP3   OH239096   5.126   2.840   0.974  0.4163  0.5192 -0.2980
 5894TIP3    H139097   5.032   2.855   0.981  0.6508  0.8813  2.5448
 5894TIP3    H239098   5.163   2.928   0.961  0.4320  0.4967 -0.4031
 5895TIP3   OH239099   5.102   2.360   5.424 -0.0231  0.3545 -0.3507
 5895TIP3    H139100   5.086   2.436   5.481  0.0243  0.0726  0.0398
 5895TIP3    H239101   5.135   2.398   5.343  0.6395  0.7099  0.0804
 5896TIP3   OH239102   3.547   1.273  13.984 -0.2618 -0.1010  0.2233
 5896TIP3    H139103   3.479   1.219  13.945  0.5183 -2.6119  2.1852
 5896TIP3    H239104   3.546   1.250  14.077  2.2640  0.8758  0.5363
 5897TIP3   OH239105   0.880   4.629   3.847  0.5679 -0.2455  0.2333
 5897TIP3    H139106   0.786   4.614   3.857  0.4995  1.0545  1.7143
 5897TIP3    H239107   0.887   4.698   3.781  0.5234 -0.7619 -0.3202
 5898TIP3   OH239108   2.366   3.753  14.087  0.1142 -0.4707 -0.7577
 5898TIP3    H139109   2.420   3.831  14.101  0.6895 -1.0611  0.3686
 5898TIP3    H239110   2.330   3.734  14.174 -2.4828  0.3206 -1.6032
 5899TIP3   OH239111   2.733   2.631  13.465  0.4184 -1.3568 -0.0817
 5899TIP3    H139112   2.825   2.636  13.489 -0.0341  1.6391  1.2543
 5899TIP3    H239113   2.734   2.597  13.375  2.9055 -0.2624 -0.5244
 5900TIP3   OH239114   4.049   0.858  14.240 -0.4691 -0.6310 -0.5043
 5900TIP3    H139115   4.124   0.807  14.209  0.2426  0.2713 -0.3049
 5900TIP3    H239116   4.018   0.904  14.162 -0.9654 -1.1746 -0.6337
 5901TIP3   OH239117   0.569   5.656   2.908 -0.2221 -0.0692 -0.4943
 5901TIP3    H139118   0.630   5.603   2.856  0.3419  0.3819 -0.2926
 5901TIP3    H239119   0.599   5.746   2.896  0.9506 -0.0924  1.9432
 5902TIP3   OH239120   0.538   0.924  11.721  0.0676  0.5604  0.6690
 5902TIP3    H139121   0.529   1.019  11.729  0.9169  0.5465  1.8814
 5902TIP3    H239122   0.576   0.911  11.634 -0.8721  1.2655  0.1410
 5903TIP3   OH239123   2.906   5.935   1.502  0.6432 -0.2613  0.2373
 5903TIP3    H139124   2.950   5.850   1.501 -0.0104 -0.6043  0.0245
 5903TIP3    H239125   2.821   5.917   1.541  0.6724  0.3847  0.5979
 5904TIP3   OH239126   3.959   3.222  10.508 -0.0278  0.5017 -0.1659
 5904TIP3    H139127   3.935   3.233  10.416 -0.8882  0.7973  0.0826
 5904TIP3    H239128   3.932   3.133  10.530  1.1501  0.0590 -0.4783
 5905TIP3   OH239129   2.096   3.418  14.657 -0.0781  0.2121 -0.4777
 5905TIP3    H139130   2.066   3.437  14.568 -0.0822 -2.0966 -0.9989
 5905TIP3    H239131   2.191   3.406  14.648 -0.7374 -6.1608 -1.4307
 5906TIP3   OH239132   4.094   2.227  14.851 -0.5687  0.5158 -0.1407
 5906TIP3    H139133   4.114   2.263  14.937 -1.6585  1.2294 -0.1742
 5906TIP3    H239134   4.081   2.304  14.795  1.2732  0.0603 -1.2227
 5907TIP3   OH239135   5.443   2.525  14.288  0.6872 -0.4401 -0.3436
 5907TIP3    H139136   5.506   2.594  14.270  0.3908  0.1570  0.8267
 5907TIP3    H239137   5.494   2.445  14.290  1.3938  0.0194  0.4235
 5908TIP3   OH239138   3.142   0.034   2.506  0.0159 -0.1225 -0.1265
 5908TIP3    H139139   3.218   0.083   2.537  0.2048 -1.0492  0.9266
 5908TIP3    H239140   3.090   0.019   2.585 -1.8917  1.5705 -1.0346
 5909TIP3   OH239141   2.383   2.332   3.215 -0.1422  0.0315  0.2088
 5909TIP3    H139142   2.414   2.357   3.302 -2.1013 -3.2518  1.9531
 5909TIP3    H239143   2.340   2.411   3.182  1.7551  1.7294  1.6400
 5910TIP3   OH239144   3.292   5.949   5.434  0.1050  0.0013 -0.0805
 5910TIP3    H139145   3.264   5.915   5.350  0.7831  2.3195 -1.2768
 5910TIP3    H239146   3.338   6.031   5.414  1.1265  0.1116  2.4376
 5911TIP3   OH239147   1.615   0.290   0.425  0.8160 -0.0998 -0.6628
 5911TIP3    H139148   1.525   0.262   0.407 -0.4796  3.4891 -0.1983
 5911TIP3    H239149   1.665   0.208   0.431 -2.3654 -2.1660 -1.0415
 5912TIP3   OH239150   1.716   0.290  16.663 -0.4128  0.3807  0.0326
 5912TIP3    H139151   1.719   0.289  16.568 -2.0053 -1.6183 -0.0621
 5912TIP3    H239152   1.770   0.215  16.690 -1.2911 -0.0728  0.5911
 5913TIP3   OH239153   5.756   4.661  13.482  0.4426 -0.4717  0.2702
 5913TIP3    H139154   5.676   4.692  13.524 -1.2883 -0.1163 -3.0718
 5913TIP3    H239155   5.812   4.738  13.477 -0.9936  0.5115 -1.6321
 5914TIP3   OH239156   3.769   3.537   2.280 -1.0624  0.3049 -0.1191
 5914TIP3    H139157   3.779   3.626   2.312  0.0838 -0.0892  0.6297
 5914TIP3    H239158   3.753   3.485   2.359 -3.0336  0.0139 -0.6624
 5915TIP3   OH239159   0.613   3.375  11.462  0.9854  0.4674 -0.0208
 5915TIP3    H139160   0.557   3.434  11.512  0.5776 -0.3468  0.4852
 5915TIP3    H239161   0.693   3.425  11.448  1.2474  0.5726  1.7605
 5916TIP3   OH239162   0.318   6.215  16.039  0.3903  0.5090 -0.4324
 5916TIP3    H139163   0.392   6.157  16.057 -0.8369 -1.4122 -1.3988
 5916TIP3    H239164   0.343   6.261  15.959  0.6365  0.0277 -0.6322
 5917TIP3   OH239165   6.678   6.236  12.727 -0.0209 -0.2041 -0.2584
 5917TIP3    H139166   6.618   6.181  12.677  0.8121  0.2686 -1.7979
 5917TIP3    H239167   6.636   6.322  12.731 -1.5873 -0.9982  2.6199
 5918TIP3   OH239168   3.691   6.480   0.768 -0.7514 -0.2071  0.7545
 5918TIP3    H139169   3.666   6.439   0.685 -0.0697  0.2719  0.3056
 5918TIP3    H239170   3.608   6.503   0.810 -1.0964 -0.2007  0.0732
 5919TIP3   OH239171   2.930   3.971  16.035 -0.1151  0.0113  0.5223
 5919TIP3    H139172   2.958   4.032  15.967  0.8362 -0.1188  0.7847
 5919TIP3    H239173   2.878   4.024  16.095  0.3027  0.4555  0.4935
 5920TIP3   OH239174   5.804   2.356   0.947  0.4076 -0.0726  0.2429
 5920TIP3    H139175   5.830   2.268   0.920 -0.3754 -0.6861  1.4301
 5920TIP3    H239176   5.746   2.341   1.022  1.6342  1.5360  1.5222
 5921TIP3   OH239177   1.238   5.762  12.772 -0.0611  0.0719 -0.3440
 5921TIP3    H139178   1.211   5.843  12.814 -1.3499 -0.2946 -0.4174
 5921TIP3    H239179   1.158   5.730  12.730  0.7051 -0.6508 -1.2641
 5922TIP3   OH239180   3.045   5.216   0.620 -0.5478  0.0522  0.2229
 5922TIP3    H139181   3.052   5.302   0.578 -1.0532  0.0257  0.0897
 5922TIP3    H239182   2.976   5.171   0.573 -1.2096  0.0689  1.1524
 5923TIP3   OH239183   3.842   2.209   1.030  0.5228 -0.0301  0.2972
 5923TIP3    H139184   3.750   2.234   1.019  0.4540  0.0227  0.9795
 5923TIP3    H239185   3.850   2.185   1.122  0.5739 -2.5903 -0.3507
 5924TIP3   OH239186   2.339   4.078  12.253  0.3495  0.0674 -0.2629
 5924TIP3    H139187   2.294   4.101  12.172  0.3975 -0.6914 -0.5147
 5924TIP3    H239188   2.269   4.047  12.311  0.4750 -0.5759 -0.4550
 5925TIP3   OH239189   1.906   2.823  17.180 -0.2296  0.2826  0.3102
 5925TIP3    H139190   1.841   2.779  17.125 -0.7134  1.1048  0.2139
 5925TIP3    H239191   1.930   2.902  17.130 -1.9696  1.9580  2.0617
 5926TIP3   OH239192   5.479   2.830  13.873 -0.8310  0.3820  0.3222
 5926TIP3    H139193   5.498   2.829  13.780 -1.2678  1.7732  0.2096
 5926TIP3    H239194   5.417   2.759  13.886 -0.8703  0.2733 -0.4727
 5927TIP3   OH239195   4.031   6.560   2.316  0.5893 -0.3760  0.1289
 5927TIP3    H139196   3.996   6.471   2.314  0.7279 -0.4375  0.4704
 5927TIP3    H239197   4.120   6.550   2.351  0.7965 -0.1697 -0.3392
 5928TIP3   OH239198   5.835   6.285   3.305 -0.0641  0.1507  0.6947
 5928TIP3    H139199   5.840   6.283   3.401 -0.7464  0.9925  0.7605
 5928TIP3    H239200   5.866   6.373   3.282  1.0983 -0.4124  0.0702
 5929TIP3   OH239201   4.612   0.648  13.762  0.3802  0.8067 -0.4003
 5929TIP3    H139202   4.563   0.721  13.801 -0.0031  0.7195 -0.7134
 5929TIP3    H239203   4.619   0.672  13.669 -1.6715 -0.5932 -0.9544
 5930TIP3   OH239204   6.540   3.113  13.403 -0.6240  0.1959 -0.0987
 5930TIP3    H139205   6.618   3.152  13.363 -0.3340 -0.9710 -0.6807
 5930TIP3    H239206   6.468   3.142  13.347 -0.3456 -0.5400 -0.8511
 5931TIP3   OH239207   3.072   3.055   2.971  0.4375 -0.1027  0.5058
 5931TIP3    H139208   3.138   3.062   2.902 -0.8717 -2.1993 -1.0348
 5931TIP3    H239209   3.114   3.002   3.039  1.2185  0.6993  0.6492
 5932TIP3   OH239210   4.274   0.867  13.723  0.3479 -0.4400  0.4993
 5932TIP3    H139211   4.355   0.830  13.689  0.0489 -0.1392 -0.5629
 5932TIP3    H239212   4.285   0.962  13.711 -0.9886 -0.5191 -1.5518
 5933TIP3   OH239213   6.015   4.215   1.456  0.4337  0.3479  0.5392
 5933TIP3    H139214   6.095   4.185   1.501  1.9880  1.1077 -1.6244
 5933TIP3    H239215   6.009   4.159   1.378 -0.7473  0.7707  0.3186
 5934TIP3   OH239216   0.378   2.780  14.400  0.0113  0.6666 -0.0419
 5934TIP3    H139217   0.466   2.791  14.363  0.6355  0.1356  1.2560
 5934TIP3    H239218   0.371   2.849  14.466 -0.7689  1.0567 -0.5210
 5935TIP3   OH239219   1.674   5.125  12.405  0.3436  0.6532 -0.4860
 5935TIP3    H139220   1.690   5.041  12.363  0.1245  0.4955 -0.2555
 5935TIP3    H239221   1.757   5.172  12.398  0.6789  0.1414  0.0199
 5936TIP3   OH239222   3.604   6.042  13.609  0.0002  0.2342 -0.5831
 5936TIP3    H139223   3.512   6.056  13.586 -1.0054 -2.6210  1.4407
 5936TIP3    H239224   3.637   5.981  13.543  0.4492  1.1972 -1.2644
 5937TIP3   OH239225   3.011   2.797   5.107  0.0022  0.3512 -0.6195
 5937TIP3    H139226   3.002   2.891   5.126  2.8690  0.7370 -0.9205
 5937TIP3    H239227   2.979   2.787   5.018 -2.3933  0.6405  0.1898
 5938TIP3   OH239228   0.049   5.661   3.743 -0.6658 -0.1137 -0.2873
 5938TIP3    H139229  -0.027   5.704   3.783 -0.4382 -2.2496  2.6181
 5938TIP3    H239230   0.012   5.583   3.702 -0.1692 -0.7276  0.4279
 5939TIP3   OH239231   5.782   2.344   4.567  0.3280 -0.2062 -0.3326
 5939TIP3    H139232   5.855   2.295   4.606 -0.7526 -1.7777 -0.2638
 5939TIP3    H239233   5.703   2.301   4.600 -0.6335 -0.1236 -2.4514
 5940TIP3   OH239234   2.254   4.253  16.724  0.2292 -0.7606 -0.4866
 5940TIP3    H139235   2.287   4.269  16.812 -0.3631  1.3797 -0.6349
 5940TIP3    H239236   2.159   4.255  16.733  0.1644 -0.6269 -1.1665
 5941TIP3   OH239237   2.404   1.039   2.632  0.2843 -0.3575 -0.5000
 5941TIP3    H139238   2.459   0.965   2.658  0.5884  0.0974  0.1755
 5941TIP3    H239239   2.315   1.010   2.650  0.3391 -0.9017 -1.0941
 5942TIP3   OH239240   3.252   2.043  11.648 -0.7807  0.2695  0.1272
 5942TIP3    H139241   3.256   2.026  11.742 -0.6654  0.4077  0.1482
 5942TIP3    H239242   3.158   2.042  11.628 -0.7368 -1.3658 -0.0556
 5943TIP3   OH239243   5.762   6.405   0.144 -0.0305 -0.3830 -0.6157
 5943TIP3    H139244   5.835   6.354   0.110 -1.3914 -3.6414  1.1500
 5943TIP3    H239245   5.693   6.395   0.079 -0.5079 -1.3627  0.0275
 5944TIP3   OH239246   6.097   2.484  14.278 -0.4782  0.0886  0.2062
 5944TIP3    H139247   6.188   2.454  14.274 -0.7884 -0.7042 -1.6805
 5944TIP3    H239248   6.082   2.528  14.195 -2.6311 -2.3063 -0.7602
 5945TIP3   OH239249   6.061   2.138  16.781  0.2748  0.6930 -0.5035
 5945TIP3    H139250   6.032   2.091  16.859 -0.1782  0.2813 -0.9096
 5945TIP3    H239251   6.155   2.121  16.775  0.5709  1.7993  0.6700
 5946TIP3   OH239252   4.216   0.617   3.735  0.1687 -0.4102 -0.1627
 5946TIP3    H139253   4.186   0.535   3.695 -0.3925 -1.2482  1.9345
 5946TIP3    H239254   4.253   0.591   3.819 -2.1187  1.7357  1.5690
 5947TIP3   OH239255   6.768   0.287   2.168 -0.7239  0.0140  0.6115
 5947TIP3    H139256   6.701   0.349   2.197 -2.5836 -0.4679 -2.5202
 5947TIP3    H239257   6.739   0.258   2.082  3.9777  0.5584 -1.3417
 5948TIP3   OH239258   2.264   0.809  13.034  0.3656  0.5266  0.0962
 5948TIP3    H139259   2.293   0.897  13.056  2.2932 -0.0553 -0.0091
 5948TIP3    H239260   2.257   0.809  12.939  1.1855  0.3267  0.0345
 5949TIP3   OH239261   6.751   5.053   5.918 -0.1227  0.2404  0.0487
 5949TIP3    H139262   6.830   5.041   5.970 -0.0270 -0.5326 -0.2798
 5949TIP3    H239263   6.783   5.077   5.831 -0.2532 -0.2260 -0.1244
 5950TIP3   OH239264   2.101   4.480  17.138  0.0208  0.2472 -0.9114
 5950TIP3    H139265   2.159   4.544  17.179 -0.7036 -0.8367  1.9664
 5950TIP3    H239266   2.016   4.525  17.134  0.0155  0.2396 -0.8901
 5951TIP3   OH239267   1.140   2.476  12.722  0.0670 -0.1781  0.4198
 5951TIP3    H139268   1.066   2.441  12.772 -0.2252  1.6539  1.3204
 5951TIP3    H239269   1.206   2.496  12.788  0.0309  1.4078  0.0033
 5952TIP3   OH239270   0.818   1.627  16.032  0.4509  0.2206  0.6278
 5952TIP3    H139271   0.831   1.536  16.006 -0.3435  0.1764  0.3982
 5952TIP3    H239272   0.762   1.622  16.109 -0.1104  0.5551  0.2393
 5953TIP3   OH239273   5.370   4.434   6.423 -0.0147  0.3562  0.0254
 5953TIP3    H139274   5.389   4.514   6.375  2.5177  1.2701  2.4532
 5953TIP3    H239275   5.303   4.459   6.487 -0.0764  0.2383  0.0085
 5954TIP3   OH239276   1.701   5.983   4.518  0.0425 -0.1370 -0.3883
 5954TIP3    H139277   1.707   5.968   4.612 -1.3102  2.0983  0.0781
 5954TIP3    H239278   1.734   5.902   4.479  1.3040 -0.8033  1.9908
 5955TIP3   OH239279   3.878   1.289  10.869 -0.5706 -0.0670  0.0086
 5955TIP3    H139280   3.863   1.200  10.898  0.8609 -0.5081 -0.5622
 5955TIP3    H239281   3.831   1.343  10.932 -1.8467 -1.2382  0.0753
 5956TIP3   OH239282   1.458   0.370   2.616 -0.5358  0.2074  0.3001
 5956TIP3    H139283   1.491   0.370   2.526 -2.0144  0.2303 -0.2605
 5956TIP3    H239284   1.464   0.461   2.643 -1.4756  0.4614 -0.3138
 5957TIP3   OH239285   2.021   2.568   4.878  0.1963  0.2054  0.3009
 5957TIP3    H139286   1.998   2.655   4.845 -0.1270  0.1522  0.3801
 5957TIP3    H239287   2.025   2.513   4.799  1.8229  0.5982  0.0962
 5958TIP3   OH239288   0.932   0.495   5.103 -0.1235  0.8843 -0.2236
 5958TIP3    H139289   0.868   0.560   5.075  1.8313  3.1667  0.4888
 5958TIP3    H239290   0.969   0.461   5.021 -3.3198 -1.6912 -0.7245
 5959TIP3   OH239291   0.320   0.328  14.457  0.1731  0.1083  0.7187
 5959TIP3    H139292   0.331   0.296  14.367  3.6129  1.4408  0.5832
 5959TIP3    H239293   0.274   0.412  14.447  0.3197  0.1318  0.2078
 5960TIP3   OH239294   3.033   3.435   4.957  0.0571 -0.1693 -0.5901
 5960TIP3    H139295   2.997   3.426   4.869 -0.8716 -0.8220 -0.1565
 5960TIP3    H239296   3.043   3.345   4.988  0.2090  0.0597  0.0358
 5961TIP3   OH239297   2.316   2.553   4.443 -0.7724 -0.0760  0.1127
 5961TIP3    H139298   2.289   2.462   4.444 -0.2338 -0.2292  1.9605
 5961TIP3    H239299   2.280   2.590   4.524  0.6280  0.8687  0.3257
 5962TIP3   OH239300   6.677   1.692   3.130 -0.0211 -0.5291 -0.0486
 5962TIP3    H139301   6.709   1.699   3.220 -0.1599  0.1507 -0.0473
 5962TIP3    H239302   6.626   1.772   3.117  1.3470  0.1629 -1.2848
 5963TIP3   OH239303   2.453   0.386   2.520 -0.4530 -0.4338 -0.7298
 5963TIP3    H139304   2.506   0.309   2.539  0.0062  0.5397  2.1190
 5963TIP3    H239305   2.363   0.353   2.516 -0.3051 -1.0726  0.8875
 5964TIP3   OH239306   3.174   2.015  16.777  0.0670  0.0933  0.0884
 5964TIP3    H139307   3.175   2.096  16.827  1.1250  0.2487 -0.1762
 5964TIP3    H239308   3.194   2.041  16.687 -2.3949 -0.1140 -0.5565
 5965TIP3   OH239309   6.487   2.198  16.559 -0.5806 -0.6823  0.7345
 5965TIP3    H139310   6.550   2.270  16.551 -1.0569 -0.3714 -0.2687
 5965TIP3    H239311   6.515   2.134  16.494  0.2407 -1.7232  2.0846
 5966TIP3   OH239312   4.318   2.467   0.993 -0.0094  0.5345 -0.2485
 5966TIP3    H139313   4.392   2.416   0.960 -1.2194 -1.0216 -0.6565
 5966TIP3    H239314   4.304   2.535   0.927  0.0061 -0.2047 -1.0259
 5967TIP3   OH239315   3.350   1.729  14.097  0.0109  0.3019  0.7485
 5967TIP3    H139316   3.390   1.670  14.161  1.0696 -0.0323 -0.2087
 5967TIP3    H239317   3.423   1.760  14.044 -0.7952  0.9715  0.0144
 5968TIP3   OH239318   0.878   0.820   2.555 -0.8341 -0.1576 -1.1086
 5968TIP3    H139319   0.811   0.780   2.610 -0.3918 -2.1164 -1.9566
 5968TIP3    H239320   0.956   0.766   2.568  0.7769  2.3298  0.2117
 5969TIP3   OH239321   5.244   4.361  12.995 -0.0118 -0.1986  0.1211
 5969TIP3    H139322   5.165   4.350  13.046  0.3016  0.9289  0.8569
 5969TIP3    H239323   5.217   4.415  12.920  0.2666  1.0480  0.9037
 5970TIP3   OH239324   3.706   4.839  13.324 -0.2031 -0.0622  0.5689
 5970TIP3    H139325   3.769   4.771  13.300 -0.1777  0.6617 -1.4649
 5970TIP3    H239326   3.741   4.878  13.404  1.8479  0.2535 -0.4760
 5971TIP3   OH239327   3.255   6.109   2.710  0.0630  0.2886  0.3431
 5971TIP3    H139328   3.268   6.073   2.622  0.2388 -1.4425  1.0670
 5971TIP3    H239329   3.160   6.120   2.717 -0.0710 -0.8776  0.4392
 5972TIP3   OH239330   1.665   1.101   5.619 -0.1289 -0.1134  0.4063
 5972TIP3    H139331   1.732   1.033   5.625  0.0251 -0.1874 -1.6414
 5972TIP3    H239332   1.643   1.105   5.526 -3.4291 -0.5016  1.1019
 5973TIP3   OH239333   1.794   0.602   5.850  0.3014  0.2616  0.7508
 5973TIP3    H139334   1.857   0.539   5.886  0.3278 -0.1633 -0.0323
 5973TIP3    H239335   1.815   0.606   5.757  0.0891  1.1956  0.7394
 5974TIP3   OH239336   2.728   0.979  15.082  0.5341  0.8707  0.1799
 5974TIP3    H139337   2.788   0.964  15.155 -1.7375 -3.3023  1.3324
 5974TIP3    H239338   2.664   1.041  15.116 -0.3382 -0.8176  1.6881
 5975TIP3   OH239339   0.759   3.612  11.436 -0.0233  0.5328  0.0966
 5975TIP3    H139340   0.837   3.655  11.399  0.4418  0.3964  0.9140
 5975TIP3    H239341   0.692   3.623  11.368  1.0849 -0.5601 -1.2112
 5976TIP3   OH239342   0.832   1.963   4.237 -0.2477  1.1194  0.1723
 5976TIP3    H139343   0.763   1.898   4.221 -0.2109  1.1660 -0.1812
 5976TIP3    H239344   0.848   1.958   4.331 -0.1793  0.5489  0.1348
 5977TIP3   OH239345   3.200   4.545   4.652  0.2563  0.1372 -0.0960
 5977TIP3    H139346   3.272   4.604   4.630  1.4831 -1.5527 -0.7000
 5977TIP3    H239347   3.159   4.585   4.728  0.8080  1.9849 -0.7498
 5978TIP3   OH239348   5.906   0.966   0.909  0.1891 -0.1330 -0.5038
 5978TIP3    H139349   5.818   0.929   0.910 -1.3238  3.3123  0.6069
 5978TIP3    H239350   5.964   0.891   0.916 -2.7123 -2.3425  0.5846
 5979TIP3   OH239351   5.155   6.122   4.847 -0.0759 -0.1863 -0.0849
 5979TIP3    H139352   5.096   6.083   4.911  0.9033 -0.5497  0.6115
 5979TIP3    H239353   5.099   6.146   4.774 -0.8774 -1.7554  0.0012
 5980TIP3   OH239354   3.854   1.690  15.380  0.3012 -0.1352  0.1893
 5980TIP3    H139355   3.918   1.658  15.316 -0.5808 -0.5565 -0.4932
 5980TIP3    H239356   3.769   1.678  15.337 -0.2028  0.9590  0.8566
 5981TIP3   OH239357   6.677   2.015  11.456  0.0696  0.2542  0.6621
 5981TIP3    H139358   6.641   1.926  11.463 -0.0695  0.4641  2.9850
 5981TIP3    H239359   6.604   2.072  11.478  1.0147  0.8058  2.4049
 5982TIP3   OH239360   6.311   4.104   5.003 -0.8142 -0.3056 -0.2698
 5982TIP3    H139361   6.217   4.097   4.986 -0.4141  1.7478 -3.6010
 5982TIP3    H239362   6.353   4.070   4.924  1.3683 -4.0938  2.3640
 5983TIP3   OH239363   5.774   5.671   2.953  0.5435 -0.2090 -0.1518
 5983TIP3    H139364   5.800   5.724   2.878  0.8928  0.8947  0.7348
 5983TIP3    H239365   5.828   5.592   2.946  1.2584  0.3041 -0.5407
 5984TIP3   OH239366   6.429   2.365   1.255 -0.2368 -0.8546 -0.7501
 5984TIP3    H139367   6.414   2.413   1.337 -0.6540 -0.8034 -0.8590
 5984TIP3    H239368   6.363   2.399   1.195 -0.6160 -1.6579 -0.7918
 5985TIP3   OH239369   2.360   1.358  12.314 -0.4945 -0.6171 -0.3910
 5985TIP3    H139370   2.360   1.453  12.300 -0.5421 -0.6678 -0.7611
 5985TIP3    H239371   2.301   1.344  12.387  2.0974 -0.0461  1.8846
 5986TIP3   OH239372   0.996   0.929  16.441  0.4998 -0.6208 -0.4523
 5986TIP3    H139373   1.012   0.835  16.449 -0.6862 -0.7106  1.1327
 5986TIP3    H239374   0.929   0.937  16.374  1.3267 -0.8187 -1.3150
 5987TIP3   OH239375   0.117   3.493  14.960 -0.5215  0.1913 -0.1718
 5987TIP3    H139376   0.061   3.437  14.906 -1.1787  1.6257 -0.9986
 5987TIP3    H239377   0.200   3.447  14.963 -1.1814 -1.0526 -0.4734
 5988TIP3   OH239378   1.558   0.138   4.174  0.6302  0.6851  0.5913
 5988TIP3    H139379   1.491   0.200   4.144 -1.4572 -0.2928  3.0276
 5988TIP3    H239380   1.555   0.067   4.110 -0.3972  0.8451  0.4498
 5989TIP3   OH239381   0.838   6.645  14.669 -0.3645  0.1353  0.7085
 5989TIP3    H139382   0.799   6.703  14.734 -1.2009  0.4316 -0.0507
 5989TIP3    H239383   0.910   6.696  14.630 -1.1074  0.6805  0.0301
 5990TIP3   OH239384   6.282   2.901  16.110 -0.3682  0.4322  0.1826
 5990TIP3    H139385   6.268   2.822  16.059  1.1912  0.7155 -0.6813
 5990TIP3    H239386   6.258   2.973  16.051 -0.2452  0.6854  0.4379
 5991TIP3   OH239387   2.559   1.991   3.474  0.3554 -0.3120  0.3041
 5991TIP3    H139388   2.583   2.070   3.523 -0.6867 -0.7252  1.5064
 5991TIP3    H239389   2.538   1.927   3.541 -2.5667 -0.4363 -0.6501
 5992TIP3   OH239390   1.154   4.834   2.541  0.1069 -0.5384  0.1201
 5992TIP3    H139391   1.174   4.798   2.454  3.1460  0.8082  0.1906
 5992TIP3    H239392   1.100   4.767   2.583  1.1088 -2.5574 -1.7279
 5993TIP3   OH239393   4.542   5.985  11.310 -0.3815  0.0060 -0.3062
 5993TIP3    H139394   4.567   6.069  11.271  1.5160 -1.2965 -2.0900
 5993TIP3    H239395   4.447   5.980  11.300 -0.4405  1.7196 -0.6490
 5994TIP3   OH239396   5.314   0.313  11.396  0.1689  0.6259 -0.6013
 5994TIP3    H139397   5.320   0.354  11.310  0.3182  0.3985 -0.7028
 5994TIP3    H239398   5.348   0.224  11.382 -0.9043  0.2026 -0.5704
 5995TIP3   OH239399   5.446   5.479  16.513 -0.1384 -0.2338  0.5879
 5995TIP3    H139400   5.369   5.502  16.460  0.2544  2.4172  1.1322
 5995TIP3    H239401   5.409   5.438  16.591 -0.9881  0.4963  0.5793
 5996TIP3   OH239402   3.121   1.518  12.387 -0.2193  0.1077 -0.0989
 5996TIP3    H139403   3.151   1.436  12.348 -1.5928 -0.3511 -0.2434
 5996TIP3    H239404   3.194   1.578  12.376  1.0223 -1.2631  0.5395
 5997TIP3   OH239405   3.425   2.645   2.287  0.0986  0.3047  0.7466
 5997TIP3    H139406   3.392   2.727   2.325 -0.5854  0.8824 -1.0477
 5997TIP3    H239407   3.509   2.631   2.330 -0.1001  1.5864  1.5807
 5998TIP3   OH239408   0.821   2.962   2.859  0.4768  0.6587  0.2448
 5998TIP3    H139409   0.743   2.907   2.855  1.5527 -1.0615  1.9801
 5998TIP3    H239410   0.797   3.032   2.921  0.3246  0.0943  0.8315
 5999TIP3   OH239411   3.258   0.228   5.042  0.4817 -0.2088 -0.4895
 5999TIP3    H139412   3.228   0.308   4.999  0.5558  0.6951  1.1199
 5999TIP3    H239413   3.275   0.167   4.970 -1.2455  0.6370 -1.6367
 6000TIP3   OH239414   6.296   1.570  17.215  0.5984 -0.0415  0.2250
 6000TIP3    H139415   6.341   1.506  17.160 -0.2097 -0.8565  0.4952
 6000TIP3    H239416   6.366   1.617  17.259  1.2795  0.9982 -1.9198
 6001TIP3   OH239417   6.358   3.767   0.963  0.0996 -0.7104 -0.0029
 6001TIP3    H139418   6.378   3.696   0.902  0.3781 -1.1209  0.5603
 6001TIP3    H239419   6.413   3.749   1.040 -0.7546 -0.5838  0.6445
 6002TIP3   OH239420   3.653   0.071   2.589  0.1612 -0.7368  0.3906
 6002TIP3    H139421   3.704   0.149   2.566 -0.2872 -1.2301 -2.3568
 6002TIP3    H239422   3.680   0.051   2.679  1.6322  1.5058  0.4915
 6003TIP3   OH239423   5.332   6.759   2.147  0.0919 -0.1561 -0.4683
 6003TIP3    H139424   5.391   6.761   2.222 -0.2833  0.4129 -0.1800
 6003TIP3    H239425   5.335   6.669   2.116  0.2542 -0.3940  0.2303
 6004TIP3   OH239426   0.237   2.746  11.073 -0.3832 -0.2038 -0.0954
 6004TIP3    H139427   0.326   2.781  11.066 -0.7724  0.5944 -1.1394
 6004TIP3    H239428   0.238   2.669  11.016 -0.1449 -0.6311  0.4864
 6005TIP3   OH239429   2.961   6.155  12.381 -0.2836  0.0766  0.1405
 6005TIP3    H139430   2.878   6.165  12.335 -0.1559 -1.2981 -0.4320
 6005TIP3    H239431   3.021   6.215  12.337 -0.6501  0.1423 -0.2717
 6006TIP3   OH239432   0.499   2.596  16.670  0.3549 -0.0757 -0.0833
 6006TIP3    H139433   0.578   2.612  16.721  0.1846  3.5101 -0.8139
 6006TIP3    H239434   0.427   2.617  16.729 -0.0322 -1.2990 -0.0955
 6007TIP3   OH239435   0.876   2.744   2.626  0.7856 -0.7914  0.6306
 6007TIP3    H139436   0.821   2.672   2.656  0.8324 -0.7940  0.7109
 6007TIP3    H239437   0.855   2.817   2.684  0.9460 -0.8247  0.7314
 6008TIP3   OH239438   4.295   6.245   2.973  0.0046 -0.2963  0.3431
 6008TIP3    H139439   4.268   6.332   3.004 -0.1612  0.1786 -1.1208
 6008TIP3    H239440   4.390   6.244   2.984  0.3507  1.1067 -2.1695
 6009TIP3   OH239441   0.269   0.871  14.538  0.1106  0.1564 -0.2727
 6009TIP3    H139442   0.188   0.920  14.548 -0.8372 -1.8669  2.3580
 6009TIP3    H239443   0.335   0.937  14.515 -1.4749  2.3872  1.4821
 6010TIP3   OH239444   3.067   5.636  14.783 -0.4508 -0.3187  0.1929
 6010TIP3    H139445   2.990   5.692  14.795 -0.0602  0.1127  0.6865
 6010TIP3    H239446   3.054   5.564  14.845 -0.8163 -0.6339 -0.2457
 6011TIP3   OH239447   2.128   6.334   1.310  0.6236 -0.0473  0.2461
 6011TIP3    H139448   2.142   6.429   1.306 -1.4493  0.3026  0.5054
 6011TIP3    H239449   2.176   6.300   1.235 -0.5708  1.5008 -1.2839
 6012TIP3   OH239450   3.754   5.617   0.246 -0.2829  0.3418  0.1502
 6012TIP3    H139451   3.711   5.693   0.285  0.8558  0.4460  1.2326
 6012TIP3    H239452   3.697   5.592   0.174 -1.2015  1.5974  0.4199
 6013TIP3   OH239453   2.621   4.576  17.025  0.7876  0.0949  0.2761
 6013TIP3    H139454   2.538   4.550  16.986  2.6505 -0.8720 -3.2462
 6013TIP3    H239455   2.608   4.667  17.051 -1.1246  0.1646 -0.8653
 6014TIP3   OH239456   1.693   0.852  12.760  0.1733 -0.1863  0.1050
 6014TIP3    H139457   1.618   0.882  12.710  1.2728  1.0317 -0.8458
 6014TIP3    H239458   1.656   0.812  12.839 -1.4397  0.7887 -0.1518
 6015TIP3   OH239459   5.700   3.568  16.368 -0.2667  0.8777  0.2028
 6015TIP3    H139460   5.762   3.575  16.295  0.4927 -1.8931  0.5429
 6015TIP3    H239461   5.627   3.624  16.341  0.7266  1.2163 -1.9402
 6016TIP3   OH239462   3.622   4.297   5.045  0.1872  0.0473  0.1410
 6016TIP3    H139463   3.651   4.269   4.959  0.0465 -0.0094  0.1103
 6016TIP3    H239464   3.531   4.324   5.032 -0.2217 -1.1277  0.5109
 6017TIP3   OH239465   3.547   2.431  14.046 -0.9600 -0.0406 -0.5609
 6017TIP3    H139466   3.572   2.495  14.113 -1.3480 -0.2162 -0.2429
 6017TIP3    H239467   3.455   2.411  14.065 -0.9383 -0.4416 -0.8644
 6018TIP3   OH239468   2.158   1.027   0.535 -0.1046 -0.1259  0.0070
 6018TIP3    H139469   2.204   0.972   0.598 -0.3979 -0.5778 -0.1727
 6018TIP3    H239470   2.119   0.966   0.473  1.9913  0.3902 -1.9044
 6019TIP3   OH239471   3.372   3.568   0.309 -0.2509  0.2216 -0.2533
 6019TIP3    H139472   3.451   3.546   0.359 -0.5486 -1.4551 -0.4842
 6019TIP3    H239473   3.302   3.520   0.352 -1.1494  1.6535 -0.0914
 6020TIP3   OH239474   1.787   5.912   2.500  0.2050  0.4932  0.5089
 6020TIP3    H139475   1.814   5.827   2.467 -0.3067  1.0520 -1.4495
 6020TIP3    H239476   1.753   5.895   2.588  2.1665 -0.9660  1.0035
 6021TIP3   OH239477   3.254   2.832   1.775 -0.5732  0.1673 -0.0076
 6021TIP3    H139478   3.282   2.891   1.705 -0.0627 -1.0841 -0.8713
 6021TIP3    H239479   3.335   2.795   1.811 -0.8766  0.1280  0.6588
 6022TIP3   OH239480   3.228   0.839   5.520  0.1932  0.5391 -0.2240
 6022TIP3    H139481   3.300   0.894   5.552 -1.0865  1.0478  1.8762
 6022TIP3    H239482   3.155   0.900   5.510 -0.6442 -0.4087  0.0882
 6023TIP3   OH239483   5.903   0.709  15.964 -0.2683  0.3467  0.2149
 6023TIP3    H139484   5.874   0.794  15.997 -0.3831 -0.1894  1.5423
 6023TIP3    H239485   5.956   0.673  16.035  2.7859  0.8378 -1.7185
 6024TIP3   OH239486   1.707   3.416   5.603  0.3695  0.2234  0.5896
 6024TIP3    H139487   1.690   3.372   5.686  1.1001  0.9011  1.0969
 6024TIP3    H239488   1.776   3.364   5.561  1.0887  0.7662  1.0979
 6025TIP3   OH239489   1.324   1.873  12.002 -0.5760  0.1093  0.4399
 6025TIP3    H139490   1.331   1.965  11.977  2.0479 -0.0889  0.2648
 6025TIP3    H239491   1.304   1.874  12.095 -1.8367  0.8445  0.1673
 6026TIP3   OH239492   5.721   4.134   1.283 -0.2661 -0.3245 -0.4909
 6026TIP3    H139493   5.639   4.144   1.332 -0.4959 -0.4915 -0.8407
 6026TIP3    H239494   5.726   4.040   1.263  0.0683 -0.3336 -0.3690
 6027TIP3   OH239495   5.347   3.436  11.838 -0.1378 -0.0908 -0.0386
 6027TIP3    H139496   5.317   3.346  11.848 -0.7616  0.0752 -0.3841
 6027TIP3    H239497   5.436   3.428  11.805  0.2728 -0.5925  1.1684
 6028TIP3   OH239498   5.603   1.416   0.626  0.4415  0.0472 -0.0339
 6028TIP3    H139499   5.662   1.346   0.599 -2.1208 -1.3566 -2.1847
 6028TIP3    H239500   5.545   1.429   0.551 -2.7929  0.5338  2.4462
 6029TIP3   OH239501   1.676   1.320  15.221 -0.5476  0.3248  0.0030
 6029TIP3    H139502   1.604   1.350  15.166 -0.0564 -1.4354 -1.6484
 6029TIP3    H239503   1.667   1.225  15.223  0.3106  0.2667  1.7835
 6030TIP3   OH239504   0.237   0.598   4.122 -0.2498  0.2127  0.9231
 6030TIP3    H139505   0.182   0.666   4.160 -1.3581 -0.3096  0.2579
 6030TIP3    H239506   0.228   0.609   4.028  1.4837  0.6826  0.7893
 6031TIP3   OH239507   6.477   3.984  16.999  0.2306 -0.4304 -0.3574
 6031TIP3    H139508   6.497   3.895  16.970  0.6540  0.1618 -1.9040
 6031TIP3    H239509   6.406   4.013  16.941  0.2684  0.3351 -0.0269
 6032TIP3   OH239510   5.404   5.284  11.070  0.0358 -1.0796  0.3711
 6032TIP3    H139511   5.440   5.347  11.133  0.0173 -2.2045  1.5464
 6032TIP3    H239512   5.434   5.199  11.103  1.1042 -1.6119 -1.8592
 6033TIP3   OH239513   0.492   1.522  12.703  0.0961 -0.4583  0.3116
 6033TIP3    H139514   0.440   1.446  12.732  0.4426 -0.4771  0.8970
 6033TIP3    H239515   0.430   1.595  12.706  0.2321 -0.3701  1.5814
 6034TIP3   OH239516   1.796   0.823   1.748 -0.3713  0.6407  0.1293
 6034TIP3    H139517   1.825   0.816   1.656  0.1780  1.0780  0.2627
 6034TIP3    H239518   1.865   0.874   1.790 -1.0901  1.2412  0.5837
 6035TIP3   OH239519   1.872   3.233   5.457 -0.3763 -0.0519 -1.3390
 6035TIP3    H139520   1.869   3.139   5.438 -1.3248  0.0015 -1.4755
 6035TIP3    H239521   1.874   3.274   5.370  1.9241  0.0186 -1.2941
 6036TIP3   OH239522   0.153   3.389   4.991 -0.0526 -0.5157  0.4309
 6036TIP3    H139523   0.109   3.306   5.006  1.3261 -1.3815 -0.2556
 6036TIP3    H239524   0.213   3.399   5.066 -0.1132 -0.2039  0.4405
 6037TIP3   OH239525   4.523   3.893   1.098 -0.0483 -0.1124  0.1167
 6037TIP3    H139526   4.465   3.816   1.102 -1.8663  1.3465  2.9611
 6037TIP3    H239527   4.501   3.944   1.176  3.8012  1.4428  0.2698
 6038TIP3   OH239528   3.093   6.588  12.875 -0.1988  0.0741 -0.8855
 6038TIP3    H139529   3.166   6.537  12.910  1.5707  1.7383 -2.0310
 6038TIP3    H239530   3.043   6.615  12.952  0.4411 -1.0179 -0.0783
 6039TIP3   OH239531   1.056   2.404  14.909  0.4633  0.0218  0.0469
 6039TIP3    H139532   0.999   2.328  14.925  0.1167  0.0374 -1.0944
 6039TIP3    H239533   1.071   2.441  14.996 -2.1897  0.6804  0.2775
 6040TIP3   OH239534   2.480   3.326   1.097 -0.1716  0.4194  0.4972
 6040TIP3    H139535   2.393   3.286   1.103  0.1777 -0.1587  1.7136
 6040TIP3    H239536   2.502   3.351   1.187  0.8425  0.7446  0.1700
 6041TIP3   OH239537   1.699   3.250  11.615  0.6266  0.0901 -0.0974
 6041TIP3    H139538   1.734   3.253  11.526  1.3390 -1.7448  0.0954
 6041TIP3    H239539   1.695   3.157  11.636 -1.6285  0.3925  0.9919
 6042TIP3   OH239540   3.373   6.622  13.544  0.3146 -0.1102 -0.1014
 6042TIP3    H139541   3.399   6.574  13.622  0.0109  0.2055  0.1956
 6042TIP3    H239542   3.382   6.559  13.472  1.7110 -0.0609  0.0214
 6043TIP3   OH239543   5.733   1.253   1.737 -0.5347 -0.0490 -0.3802
 6043TIP3    H139544   5.794   1.207   1.680 -1.2024 -0.0069 -1.1384
 6043TIP3    H239545   5.680   1.184   1.776 -0.8135  0.0003 -0.6718
 6044TIP3   OH239546   2.813   1.121  11.370 -0.6526  0.1463  0.2019
 6044TIP3    H139547   2.745   1.145  11.432 -1.4458 -1.8055  0.1090
 6044TIP3    H239548   2.775   1.140  11.284 -0.4238  0.6681  0.2126
 6045TIP3   OH239549   5.470   4.259   1.118  0.2091 -0.2679  0.1195
 6045TIP3    H139550   5.467   4.210   1.201 -1.0311 -1.0453 -0.3677
 6045TIP3    H239551   5.466   4.351   1.145 -0.6076 -0.5240  0.9174
 6046TIP3   OH239552   1.261   4.689  13.062  0.2538 -0.3404 -0.2171
 6046TIP3    H139553   1.177   4.660  13.099 -0.3769  0.6580 -0.8409
 6046TIP3    H239554   1.298   4.610  13.021 -1.9399 -0.0824 -2.8481
 6047TIP3   OH239555   1.246   0.190  11.284  0.6193  0.3913 -0.1944
 6047TIP3    H139556   1.332   0.149  11.297 -0.6019 -1.6407  1.9329
 6047TIP3    H239557   1.192   0.120  11.247 -0.7666  0.8680  0.8640
 6048TIP3   OH239558   3.424   0.724   0.415 -0.1073  0.0721 -0.4075
 6048TIP3    H139559   3.460   0.770   0.340  1.8255 -0.0035  0.4378
 6048TIP3    H239560   3.361   0.662   0.378  0.9996 -0.1429 -1.9713
 6049TIP3   OH239561   0.102   6.779  15.949 -0.4548  0.5508 -0.0438
 6049TIP3    H139562   0.046   6.711  15.987  0.3487  0.1808  0.4965
 6049TIP3    H239563   0.041   6.837  15.903 -1.0052 -1.2436 -1.6192
 6050TIP3   OH239564   3.280   3.056  14.267  0.1981 -0.2454  0.2632
 6050TIP3    H139565   3.253   3.143  14.239  1.0509  0.0660  0.4151
 6050TIP3    H239566   3.261   3.054  14.361  0.2436 -0.2003  0.2741
 6051TIP3   OH239567   0.322   3.653  16.511 -0.6204 -1.1059  0.4150
 6051TIP3    H139568   0.397   3.709  16.491 -1.0191 -1.1201 -1.2249
 6051TIP3    H239569   0.292   3.683  16.597  0.1176  0.1482  0.2514
 6052TIP3   OH239570   3.937   4.540   0.885  0.0195 -0.1808  0.2022
 6052TIP3    H139571   3.864   4.483   0.860 -1.0701  1.0890  0.4176
 6052TIP3    H239572   3.991   4.486   0.942 -0.7959 -1.1221  0.0955
 6053TIP3   OH239573   6.170   2.967   4.057 -0.6314 -0.8946  0.0687
 6053TIP3    H139574   6.153   2.892   4.115  2.0630 -1.8399 -0.2851
 6053TIP3    H239575   6.221   2.929   3.985  0.4101  1.2248 -0.3262
 6054TIP3   OH239576   1.241   3.909   2.219 -0.5212 -0.5559  0.1760
 6054TIP3    H139577   1.225   3.850   2.292 -0.5960  1.3733  1.7593
 6054TIP3    H239578   1.308   3.970   2.251  1.0369 -0.9987 -2.1233
 6055TIP3   OH239579   4.474   5.696   3.270  0.5083 -0.0613  0.9057
 6055TIP3    H139580   4.547   5.661   3.220  1.3255  0.2716  1.8507
 6055TIP3    H239581   4.482   5.791   3.261 -0.3088 -0.0440  0.3097
 6056TIP3   OH239582   3.273   3.672   1.703  0.1891  0.3261 -0.3762
 6056TIP3    H139583   3.296   3.601   1.763 -0.7836  1.1697  1.0195
 6056TIP3    H239584   3.201   3.637   1.651  0.6700 -0.2069 -0.6992
 6057TIP3   OH239585   2.571   3.648  11.377 -0.0284  0.1609  0.2859
 6057TIP3    H139586   2.551   3.558  11.402  1.6861 -0.8643 -1.8479
 6057TIP3    H239587   2.494   3.678  11.330 -0.4924 -0.3040  0.7453
 6058TIP3   OH239588   1.785   1.386   1.899  0.4307  0.0506 -0.1444
 6058TIP3    H139589   1.792   1.413   1.991  0.7383  1.1184 -0.4818
 6058TIP3    H239590   1.808   1.464   1.849  0.8058 -0.6860 -1.1337
 6059TIP3   OH239591   3.900   0.815  15.652  0.7367 -0.3147  0.3382
 6059TIP3    H139592   3.838   0.787  15.585  1.2410 -0.9377  0.1351
 6059TIP3    H239593   3.973   0.853  15.602  0.6589  0.1498  0.5710
 6060TIP3   OH239594   5.774   2.818  13.927  0.0242  0.0125  0.0123
 6060TIP3    H139595   5.779   2.723  13.935  0.1499  0.0793  0.7278
 6060TIP3    H239596   5.689   2.835  13.886 -0.1287 -0.3904  0.1614
 6061TIP3   OH239597   3.421   4.802   5.288 -0.2667  0.1668  0.6079
 6061TIP3    H139598   3.347   4.858   5.313 -1.6789 -1.9030  1.1836
 6061TIP3    H239599   3.460   4.776   5.372 -0.6057 -0.9907  0.4132
 6062TIP3   OH239600   0.422   5.101  12.288  0.6787 -0.0179  0.3589
 6062TIP3    H139601   0.337   5.143  12.295  0.3809 -0.4153 -0.8020
 6062TIP3    H239602   0.411   5.017  12.333  0.6276  0.1672  0.6961
 6063TIP3   OH239603   4.718   4.160  11.347  0.2117 -0.3023  0.0871
 6063TIP3    H139604   4.628   4.180  11.374 -0.5503 -2.0400 -1.0636
 6063TIP3    H239605   4.719   4.179  11.253  1.6804  1.8060  0.5023
 6064TIP3   OH239606   1.421   5.543   2.876 -0.2630 -0.5043 -0.3740
 6064TIP3    H139607   1.346   5.599   2.858  0.4364  0.4395 -0.4140
 6064TIP3    H239608   1.406   5.508   2.963 -0.2911  0.4285 -0.0014
 6065TIP3   OH239609   6.077   4.667  13.056 -0.0792  0.2350 -0.0650
 6065TIP3    H139610   6.003   4.638  13.109 -0.3352  0.8437 -0.0836
 6065TIP3    H239611   6.104   4.589  13.007 -2.0265  0.4870 -1.6082
 6066TIP3   OH239612   0.381   5.812   5.056 -0.4311  0.7241 -0.6605
 6066TIP3    H139613   0.322   5.885   5.038 -2.1743 -0.1705  1.2644
 6066TIP3    H239614   0.425   5.837   5.137 -1.1155 -0.4041  0.0633
 6067TIP3   OH239615   5.770   3.643  16.976  0.3827  0.0687 -0.2670
 6067TIP3    H139616   5.805   3.554  16.974  0.5880  0.1397  0.1701
 6067TIP3    H239617   5.806   3.681  17.056 -0.2758  0.3119 -0.0848
 6068TIP3   OH239618   1.539   4.544  15.435  0.2970 -0.4387 -0.2507
 6068TIP3    H139619   1.493   4.472  15.477  2.3505 -1.4981  0.2693
 6068TIP3    H239620   1.568   4.507  15.351 -0.7195  0.5582 -1.0559
 6069TIP3   OH239621   3.352   2.543   4.845  0.1438  0.3733 -0.2091
 6069TIP3    H139622   3.326   2.635   4.846  1.1464  0.6681 -0.3920
 6069TIP3    H239623   3.290   2.499   4.903 -0.4986  1.1225 -0.3281
 6070TIP3   OH239624   5.341   6.592   4.781 -0.2531 -0.0626  0.1314
 6070TIP3    H139625   5.388   6.534   4.841 -1.4684 -2.0722 -0.7972
 6070TIP3    H239626   5.282   6.642   4.837 -3.2332 -3.7239  0.4561
 6071TIP3   OH239627   2.282   0.268  11.144  0.4552  0.3499  0.0787
 6071TIP3    H139628   2.193   0.281  11.113  1.4470 -0.7816 -3.4868
 6071TIP3    H239629   2.303   0.178  11.117  3.8786  1.8041 -2.4351
 6072TIP3   OH239630   4.697   4.058   0.572  0.1317 -0.0890 -0.1521
 6072TIP3    H139631   4.698   3.975   0.619 -0.6206 -0.0122  0.0007
 6072TIP3    H239632   4.668   4.122   0.637  0.7415  0.3027 -0.2584
 6073TIP3   OH239633   1.512   5.458  14.967  0.1076  0.4815  0.4536
 6073TIP3    H139634   1.475   5.382  14.922  0.9864  0.3118  0.0041
 6073TIP3    H239635   1.546   5.423  15.049 -1.1174  0.7163  1.0683
 6074TIP3   OH239636   0.613   2.222  15.170  0.1189  0.6360  0.0888
 6074TIP3    H139637   0.606   2.129  15.189  0.0984  0.7559  0.6807
 6074TIP3    H239638   0.535   2.242  15.118 -0.8169  0.6931  1.4743
 6075TIP3   OH239639   4.212   1.412  16.060  0.2789 -0.2853 -0.3042
 6075TIP3    H139640   4.241   1.336  16.109 -4.4940 -0.4602  2.6461
 6075TIP3    H239641   4.205   1.481  16.126 -0.4520  1.2304 -1.9294
 6076TIP3   OH239642   4.580   3.348  14.712 -0.3220  0.5291 -0.7763
 6076TIP3    H139643   4.534   3.286  14.769 -0.1460 -0.0325 -1.2353
 6076TIP3    H239644   4.581   3.430  14.761 -1.6358  0.4930 -0.6632
 6077TIP3   OH239645   4.755   3.702   3.889  0.4262  0.5673 -1.0533
 6077TIP3    H139646   4.825   3.648   3.853  0.2655  0.6071 -1.4286
 6077TIP3    H239647   4.690   3.707   3.819 -0.3504 -0.1773 -0.4032
 6078TIP3   OH239648   6.034   1.712  11.804  0.5166  0.5187 -0.1665
 6078TIP3    H139649   6.051   1.703  11.898  1.8955  0.0499 -0.4432
 6078TIP3    H239650   6.003   1.625  11.777 -0.0193  0.6949 -0.1136
 6079TIP3   OH239651   3.088   1.787  12.650  0.0503 -0.2114 -0.6319
 6079TIP3    H139652   3.161   1.824  12.701 -1.1332  1.1553  0.1099
 6079TIP3    H239653   3.112   1.695  12.637  1.4494 -0.0141  0.4360
 6080TIP3   OH239654   6.049   2.340   4.368  0.1155 -0.1032  0.1203
 6080TIP3    H139655   6.057   2.414   4.307  1.5097  0.8927  1.4693
 6080TIP3    H239656   6.137   2.304   4.374 -0.5504 -1.8633 -0.4866
 6081TIP3   OH239657   3.677   2.342  14.401 -0.0438 -0.0399 -0.4661
 6081TIP3    H139658   3.701   2.397  14.326  0.1710  0.2957 -0.1479
 6081TIP3    H239659   3.660   2.403  14.472 -0.7652 -0.3399 -0.3801
 6082TIP3   OH239660   1.116   4.549   4.817  0.1209 -0.1835  0.5676
 6082TIP3    H139661   1.057   4.571   4.888 -1.1870 -1.1940 -0.1818
 6082TIP3    H239662   1.061   4.506   4.752  1.5199 -0.3902 -0.5183
 6083TIP3   OH239663   4.011   2.107  11.873  0.6575  0.2671 -0.6127
 6083TIP3    H139664   4.089   2.114  11.928  1.8162  0.0581 -2.1624
 6083TIP3    H239665   3.998   2.012  11.863 -0.8621  0.2749  1.0680
 6084TIP3   OH239666   6.722   3.745   4.454  0.2695  0.1927 -0.2420
 6084TIP3    H139667   6.807   3.726   4.492  0.6586  0.6486 -0.8884
 6084TIP3    H239668   6.659   3.703   4.514  0.8903  0.6479  0.7458
 6085TIP3   OH239669   4.941   3.001  13.602 -0.6880  0.2332  0.0717
 6085TIP3    H139670   4.997   2.939  13.555  2.1848  1.2715  1.9423
 6085TIP3    H239671   4.985   3.014  13.686 -2.4040  3.0673  0.6210
 6086TIP3   OH239672   3.813   3.554   4.493  0.3304 -0.1629 -0.1921
 6086TIP3    H139673   3.800   3.600   4.410 -1.1933  1.5296  0.9476
 6086TIP3    H239674   3.766   3.607   4.558  3.2091 -0.3233  2.1361
 6087TIP3   OH239675   6.142   3.953   5.624 -0.4265 -0.3942 -0.2681
 6087TIP3    H139676   6.211   4.002   5.579 -0.9965  1.6751  1.0033
 6087TIP3    H239677   6.136   3.870   5.576  1.3091  0.3453 -1.8482
 6088TIP3   OH239678   6.760   4.685   2.969 -0.6684  0.2985 -0.1771
 6088TIP3    H139679   6.702   4.610   2.987 -1.5970  1.0619  0.0887
 6088TIP3    H239680   6.781   4.719   3.056 -1.1232  0.9916 -0.3360
 6089TIP3   OH239681   0.977   1.283  13.126 -0.6649 -0.2118 -0.3396
 6089TIP3    H139682   1.036   1.253  13.195 -0.2625  1.5113  0.0701
 6089TIP3    H239683   1.024   1.265  13.045 -1.0217 -1.9851 -0.1859
 6090TIP3   OH239684   4.654   4.129  14.137  0.4419 -0.2891  0.1580
 6090TIP3    H139685   4.623   4.103  14.224  1.4435 -3.1092 -0.2998
 6090TIP3    H239686   4.574   4.136  14.084  0.0255 -0.9012  0.6970
 6091TIP3   OH239687   0.340   3.989   5.031  0.2101 -0.4380  0.7040
 6091TIP3    H139688   0.430   3.965   5.013 -0.0899 -1.5847  0.7298
 6091TIP3    H239689   0.298   3.993   4.945  0.0409 -0.8845  0.7645
 6092TIP3   OH239690   2.556   6.169  12.840 -0.2461 -0.1986 -0.1524
 6092TIP3    H139691   2.647   6.141  12.837  0.1892  1.1353  0.3257
 6092TIP3    H239692   2.524   6.137  12.924 -0.0376 -0.0995 -0.0353
 6093TIP3   OH239693   5.548   4.290   2.766  0.7836  0.0559 -1.0596
 6093TIP3    H139694   5.578   4.376   2.739  1.2182  0.1249 -0.3683
 6093TIP3    H239695   5.564   4.234   2.690  1.0993  0.4491 -1.2836
 6094TIP3   OH239696   0.082   3.817  14.642 -0.5017  0.2552 -0.0573
 6094TIP3    H139697   0.019   3.785  14.707 -1.3154  0.2040 -0.8662
 6094TIP3    H239698   0.093   3.910  14.664 -0.3621  0.1136  0.4828
 6095TIP3   OH239699   3.668   5.511  16.061 -0.2316 -0.3102 -0.7611
 6095TIP3    H139700   3.608   5.558  16.003 -0.2021  0.7536  0.0516
 6095TIP3    H239701   3.724   5.461  16.001 -0.5120  0.3967 -1.6344
 6096TIP3   OH239702   0.514   5.899   5.289 -0.3674 -0.3236  0.3074
 6096TIP3    H139703   0.491   5.883   5.380 -3.2066  1.9944  0.0533
 6096TIP3    H239704   0.556   5.985   5.289  1.6959 -1.3072 -0.2811
 6097TIP3   OH239705   3.692   2.095  16.979 -0.1865  0.0976  0.2250
 6097TIP3    H139706   3.752   2.169  16.991  1.7154 -1.2336 -0.8571
 6097TIP3    H239707   3.608   2.126  17.013  0.8555  2.3671  0.7797
 6098TIP3   OH239708   3.178   3.349   1.636 -0.2065 -0.2129 -0.1160
 6098TIP3    H139709   3.147   3.323   1.550  1.9972 -0.3618 -0.9002
 6098TIP3    H239710   3.243   3.282   1.659  3.2250  2.7672 -0.7593
 6099TIP3   OH239711   1.511   5.737   6.432  0.8382  0.0938 -0.5585
 6099TIP3    H139712   1.547   5.808   6.486  0.4804 -0.7063  0.7435
 6099TIP3    H239713   1.548   5.657   6.469 -0.9767 -0.6231 -0.2249
 6100TIP3   OH239714   1.762   5.878   6.282  0.0606 -0.2099  0.2216
 6100TIP3    H139715   1.678   5.905   6.246 -0.1962 -0.3968  0.6760
 6100TIP3    H239716   1.782   5.796   6.237 -0.0031 -0.1702  0.1208
 6101TIP3   OH239717   2.038   5.701  13.671 -0.2862  0.2385  0.0010
 6101TIP3    H139718   1.947   5.697  13.700 -0.2679 -1.3317 -0.1481
 6101TIP3    H239719   2.033   5.695  13.575 -0.1064  1.5678 -0.1015
 6102TIP3   OH239720   5.315   3.562  12.602  0.0741 -0.1013 -1.1891
 6102TIP3    H139721   5.386   3.619  12.572 -0.1377  1.4611  1.1702
 6102TIP3    H239722   5.358   3.500  12.662 -0.2806 -0.2585 -1.0965
 6103TIP3   OH239723   3.019   6.003   3.209 -0.0602  0.1110  0.0410
 6103TIP3    H139724   2.983   6.089   3.190  2.6231  1.6280  1.4603
 6103TIP3    H239725   2.958   5.965   3.272 -0.7370  1.3689  0.1625
 6104TIP3   OH239726   4.087   6.459  13.700 -0.1308 -0.2819 -0.2640
 6104TIP3    H139727   4.126   6.427  13.782 -0.2783  0.7780  0.2329
 6104TIP3    H239728   4.031   6.532  13.727  0.7094  0.8192 -1.4252
 6105TIP3   OH239729   5.385   2.263  11.304 -0.1462  0.1041 -0.2020
 6105TIP3    H139730   5.392   2.170  11.285 -1.8049 -0.4909  1.8849
 6105TIP3    H239731   5.295   2.275  11.333  0.8796  1.7771  2.4736
 6106TIP3   OH239732   3.827   2.887   4.524 -0.3876 -0.1297 -0.0868
 6106TIP3    H139733   3.807   2.959   4.585 -2.5157 -1.6007  0.9903
 6106TIP3    H239734   3.777   2.908   4.446  0.8730  0.7741 -0.6774
 6107TIP3   OH239735   5.126   1.073  15.480  0.4870  0.9560 -0.0695
 6107TIP3    H139736   5.095   1.062  15.570  2.1570  0.6074  0.4829
 6107TIP3    H239737   5.134   0.984  15.446  0.0251  1.0792 -0.5086
 6108TIP3   OH239738   3.201   3.087  13.078  0.1659 -0.4842  0.0218
 6108TIP3    H139739   3.113   3.092  13.040 -0.2627 -1.6174  0.8329
 6108TIP3    H239740   3.221   3.177  13.103 -1.2488 -0.3774  0.8702
 6109TIP3   OH239741   2.794   4.446  14.649  0.0856 -0.0064  0.7713
 6109TIP3    H139742   2.841   4.389  14.710  0.8698  0.3951  0.5511
 6109TIP3    H239743   2.757   4.514  14.704 -0.9911 -0.8130  1.0568
 6110TIP3   OH239744   3.400   6.783   1.028 -0.9424  0.9129 -0.2763
 6110TIP3    H139745   3.432   6.863   0.987 -2.3407  0.6361 -1.9867
 6110TIP3    H239746   3.345   6.742   0.961 -1.2397 -0.8553  1.0021
 6111TIP3   OH239747   3.246   0.041  12.839  0.0638 -0.1821  0.2401
 6111TIP3    H139748   3.226   0.062  12.930  0.8486 -0.6741  0.5316
 6111TIP3    H239749   3.184  -0.028  12.816  0.1303 -0.3347  0.5230
 6112TIP3   OH239750   3.662   6.151  14.453  0.1910  0.1347  0.1537
 6112TIP3    H139751   3.728   6.210  14.491  0.1089  0.0360  0.4469
 6112TIP3    H239752   3.706   6.066  14.450 -0.0260  0.0022  0.6308
 6113TIP3   OH239753   3.410   1.494  16.515  0.4310 -0.7297  0.4059
 6113TIP3    H139754   3.455   1.462  16.437 -1.5720 -0.3521 -0.9509
 6113TIP3    H239755   3.455   1.575  16.537  0.9967 -0.8146 -0.4051
 6114TIP3   OH239756   3.750   3.148   4.646  0.5291 -0.2230 -0.1699
 6114TIP3    H139757   3.672   3.203   4.638 -0.2973 -1.3037  0.2154
 6114TIP3    H239758   3.770   3.147   4.739  0.1589 -1.0711 -0.0915
 6115TIP3   OH239759   6.498   1.400  12.056  0.3526 -0.0871  0.1860
 6115TIP3    H139760   6.403   1.405  12.042  0.5842  0.5182 -1.2669
 6115TIP3    H239761   6.530   1.350  11.981  1.1671 -0.4850  0.7891
 6116TIP3   OH239762   4.618   6.517  12.859  0.7575  0.1616  0.1369
 6116TIP3    H139763   4.631   6.609  12.880 -0.5673  0.7832 -1.6792
 6116TIP3    H239764   4.707   6.481  12.855  1.2324  1.0588  2.0140
 6117TIP3   OH239765   4.651   2.433   6.107  0.6104 -0.3115 -0.2501
 6117TIP3    H139766   4.657   2.521   6.071  1.1593 -1.2045 -2.4429
 6117TIP3    H239767   4.557   2.413   6.107  0.5717 -0.1426 -0.8284
 6118TIP3   OH239768   3.946   6.029  13.878 -0.1025 -0.7026  0.1687
 6118TIP3    H139769   4.000   6.061  13.806 -0.2449 -2.4052 -0.7382
 6118TIP3    H239770   3.914   6.108  13.921  4.1241  0.3643  1.5535
 6119TIP3   OH239771   0.163   6.448  16.541 -0.0654  0.0506 -0.2723
 6119TIP3    H139772   0.108   6.395  16.483 -1.8324 -0.6814  1.9989
 6119TIP3    H239773   0.117   6.532  16.546 -0.7636 -0.4047  1.2588
 6120TIP3   OH239774   2.911   2.133  16.703  0.2478 -0.8967 -0.2357
 6120TIP3    H139775   2.886   2.110  16.614 -3.9686  0.4545  0.4995
 6120TIP3    H239776   2.939   2.224  16.697  1.1671 -1.1741 -0.3380
 6121TIP3   OH239777   3.537   5.762  11.357  0.7004  0.3071  0.0102
 6121TIP3    H139778   3.523   5.687  11.414 -0.3580 -0.2830 -0.9963
 6121TIP3    H239779   3.518   5.838  11.412  1.5951 -0.1611  0.9818
 6122TIP3   OH239780   3.462   0.212  15.149  0.4142 -0.3112  0.1239
 6122TIP3    H139781   3.416   0.135  15.118 -0.0898 -0.2306  0.6606
 6122TIP3    H239782   3.394   0.267  15.189  0.7571  0.4188 -0.2757
 6123TIP3   OH239783   5.343   4.758  15.905  0.1387 -0.1184 -0.3243
 6123TIP3    H139784   5.273   4.724  15.850 -1.5321  1.7158  0.5946
 6123TIP3    H239785   5.421   4.711  15.877 -1.2822 -1.5125 -2.0306
 6124TIP3   OH239786   2.967   3.436   0.826 -0.6777  0.2650  0.0269
 6124TIP3    H139787   2.950   3.530   0.824 -2.0183  0.0469  0.5614
 6124TIP3    H239788   2.963   3.410   0.734  0.3108  0.8196 -0.1860
 6125TIP3   OH239789   0.129   4.084  12.673 -0.3157  0.3860 -0.0007
 6125TIP3    H139790   0.131   4.136  12.593 -1.5698  0.3006 -0.0977
 6125TIP3    H239791   0.197   4.018  12.660 -0.0755  0.7712 -0.7282
 6126TIP3   OH239792   5.948   6.609  14.561 -0.5855  0.0606  0.0262
 6126TIP3    H139793   5.902   6.575  14.485 -2.1999 -0.7247  1.3101
 6126TIP3    H239794   5.969   6.532  14.613  2.1288  0.4070 -0.4512
 6127TIP3   OH239795   0.217   0.456   6.104 -0.4202  0.4647 -0.3999
 6127TIP3    H139796   0.296   0.489   6.061  0.0400 -1.5615 -1.1432
 6127TIP3    H239797   0.239   0.456   6.198 -0.1292  1.4157 -0.4580
 6128TIP3   OH239798   0.797   2.971   5.977 -0.0314  0.2584  0.4464
 6128TIP3    H139799   0.860   2.899   5.977 -0.8366 -0.4520  0.0459
 6128TIP3    H239800   0.717   2.933   6.014 -0.3586  1.0367  0.5495
 6129TIP3   OH239801   2.741   0.524  12.107  0.4391 -0.8515  0.2411
 6129TIP3    H139802   2.748   0.586  12.180 -2.9533  1.4276 -1.2801
 6129TIP3    H239803   2.677   0.460  12.137 -1.8917  0.7810 -1.1562
 6130TIP3   OH239804   4.313   0.634   0.434 -0.2879 -0.2648 -0.1251
 6130TIP3    H139805   4.238   0.651   0.490 -1.6814 -0.1269 -1.9566
 6130TIP3    H239806   4.276   0.632   0.345  1.9312  0.1986 -1.1019
 6131TIP3   OH239807   5.427   1.970   2.330  0.4007 -0.0478  0.1021
 6131TIP3    H139808   5.513   1.929   2.328  0.6893  0.5433  0.2898
 6131TIP3    H239809   5.371   1.911   2.279  0.8425 -0.5901  0.2440
 6132TIP3   OH239810   2.787   0.522   3.082  0.7093 -0.2077  0.1106
 6132TIP3    H139811   2.870   0.484   3.109 -0.1385 -1.6251  0.7722
 6132TIP3    H239812   2.722   0.455   3.103 -0.6777  1.1604  0.2596
 6133TIP3   OH239813   0.570   0.916  16.019  0.3500  0.7558 -0.1930
 6133TIP3    H139814   0.478   0.897  16.036  0.7842 -2.0640 -0.8999
 6133TIP3    H239815   0.605   0.944  16.105 -0.0597 -2.8132  1.1956
 6134TIP3   OH239816   0.076   0.050   6.282  0.2634 -0.5054  0.4518
 6134TIP3    H139817   0.111   0.074   6.197  1.6925 -2.0184  0.5933
 6134TIP3    H239818   0.008   0.116   6.299  0.8299  0.5652 -1.2596
 6135TIP3   OH239819   5.104   5.233   1.749  0.4011  0.1747 -0.0837
 6135TIP3    H139820   5.041   5.210   1.680  0.1252  2.4770 -0.6386
 6135TIP3    H239821   5.186   5.194   1.721 -0.3006 -1.0712 -0.4282
 6136TIP3   OH239822   4.348   0.218  15.265 -0.0630  0.3750  0.2013
 6136TIP3    H139823   4.362   0.124  15.281 -2.3100  0.1509  0.9956
 6136TIP3    H239824   4.370   0.230  15.173  0.9526 -0.7965  0.2873
 6137TIP3   OH239825   0.109   0.638  12.564 -0.1189  0.9041 -0.0704
 6137TIP3    H139826   0.028   0.616  12.518  1.0146 -1.8336 -0.8222
 6137TIP3    H239827   0.168   0.667  12.495  1.0263 -1.5706 -0.1683
 6138TIP3   OH239828   0.707   2.814   4.802 -0.0303 -0.2481 -0.4773
 6138TIP3    H139829   0.752   2.797   4.720  1.3852  1.9774 -0.2064
 6138TIP3    H239830   0.626   2.859   4.777  0.5548  0.7184 -0.6319
 6139TIP3   OH239831   3.523   3.429   3.785  0.3660  0.5887  0.1650
 6139TIP3    H139832   3.599   3.388   3.826 -0.5041 -0.6704  0.5361
 6139TIP3    H239833   3.511   3.381   3.702  0.7420  1.6220 -0.4968
 6140TIP3   OH239834   3.011   1.385   0.433 -0.4925 -0.3129 -0.3174
 6140TIP3    H139835   2.961   1.450   0.481 -0.5754 -0.0862 -0.7082
 6140TIP3    H239836   2.952   1.356   0.363 -0.3044 -0.4962 -0.4002
 6141TIP3   OH239837   5.051   6.079   2.293 -0.0623 -0.0160 -0.7650
 6141TIP3    H139838   4.997   6.046   2.221 -0.9954  0.4585 -0.2883
 6141TIP3    H239839   5.117   6.011   2.307 -1.3000 -1.1847 -0.5147
 6142TIP3   OH239840   1.384   3.282  13.692  0.1645  0.0078 -0.5703
 6142TIP3    H139841   1.359   3.361  13.740 -1.2786 -1.3349  0.9557
 6142TIP3    H239842   1.471   3.260  13.726  0.4650  0.8003 -0.8256
 6143TIP3   OH239843   0.279   6.121  12.061 -0.0175 -0.2330  0.0100
 6143TIP3    H139844   0.326   6.174  11.996 -0.9548 -0.4618 -0.8641
 6143TIP3    H239845   0.190   6.155  12.061  0.0835  0.0581  1.5172
 6144TIP3   OH239846   5.085   5.283  13.620  0.3074  0.0076 -0.4646
 6144TIP3    H139847   5.154   5.308  13.558 -0.4042  1.6598 -0.6318
 6144TIP3    H239848   5.114   5.321  13.703 -0.5478  1.0337 -0.6126
 6145TIP3   OH239849   3.467   0.278  16.312 -0.5994 -0.0669  0.1479
 6145TIP3    H139850   3.465   0.248  16.403  0.8853  1.6064  0.7510
 6145TIP3    H239851   3.438   0.369  16.315 -0.4852  0.0266 -1.0495
 6146TIP3   OH239852   1.360   3.899   4.721 -0.2193  0.3188  1.1877
 6146TIP3    H139853   1.290   3.835   4.727  1.0189 -1.0601  1.3393
 6146TIP3    H239854   1.377   3.925   4.812 -1.1781  1.4010  1.0736
 6147TIP3   OH239855   5.494   4.085  12.232 -0.9220  0.3849  0.1939
 6147TIP3    H139856   5.545   4.018  12.187 -0.0752  1.3763 -0.3154
 6147TIP3    H239857   5.421   4.036  12.272 -0.9431 -0.6794 -1.1192
 6148TIP3   OH239858   3.475   2.303  11.330  0.5652 -0.0692  0.0367
 6148TIP3    H139859   3.478   2.226  11.386 -0.1426  0.6482  1.0813
 6148TIP3    H239860   3.383   2.313  11.307  0.3269  1.6202  1.5770
 6149TIP3   OH239861   3.448   4.837  14.271 -0.3596  0.0138 -0.4533
 6149TIP3    H139862   3.358   4.814  14.293 -0.3762 -0.7817 -1.3420
 6149TIP3    H239863   3.441   4.888  14.190 -0.0057 -0.0456 -0.5233
 6150TIP3   OH239864   4.115   2.183   0.431 -0.3124  0.6822 -0.3283
 6150TIP3    H139865   4.133   2.272   0.399  0.3215  0.1141 -1.5574
 6150TIP3    H239866   4.181   2.169   0.499 -0.9216  1.4530  0.4304
 6151TIP3   OH239867   0.348   4.054  14.708  0.4253  0.6783 -0.1076
 6151TIP3    H139868   0.356   3.997  14.784  0.0262 -0.5012 -0.9380
 6151TIP3    H239869   0.401   4.011  14.641 -0.4020  0.9466 -0.9340
 6152TIP3   OH239870   2.399   2.660  14.865 -0.0127 -0.2027 -0.4458
 6152TIP3    H139871   2.440   2.732  14.818  0.1479  0.4001  0.6061
 6152TIP3    H239872   2.469   2.624  14.920 -0.4113 -0.3695 -0.0436
 6153TIP3   OH239873   5.472   2.982  16.538  0.0539  0.7490  0.3195
 6153TIP3    H139874   5.431   2.940  16.462  0.6132  1.1814 -0.2223
 6153TIP3    H239875   5.478   3.074  16.514  2.1598  0.5629  0.0072
 6154TIP3   OH239876   0.086   5.607  15.511  0.5663 -0.5480  0.2148
 6154TIP3    H139877   0.034   5.679  15.476  4.4353  1.0905 -2.4654
 6154TIP3    H239878   0.112   5.556  15.434  2.0516 -1.8867  1.5643
 6155TIP3   OH239879   5.609   0.590   5.697 -0.1114 -0.1344 -0.4921
 6155TIP3    H139880   5.668   0.599   5.772 -0.9613  1.2777  0.0371
 6155TIP3    H239881   5.544   0.527   5.726  0.7100 -1.1354 -0.8036
 6156TIP3   OH239882   3.403   0.694   2.085  0.4484  0.5116  0.0976
 6156TIP3    H139883   3.339   0.649   2.141  1.1844  1.3173  1.6182
 6156TIP3    H239884   3.351   0.729   2.013 -0.6139 -0.0049  0.6005
 6157TIP3   OH239885   1.418   3.373   5.544 -0.2553 -0.1998 -0.0249
 6157TIP3    H139886   1.496   3.372   5.600  0.5520 -0.9560 -1.1595
 6157TIP3    H239887   1.351   3.329   5.597 -0.3222  1.6561  1.5014
 6158TIP3   OH239888   6.359   4.071   1.783  0.7079 -0.2375  0.2366
 6158TIP3    H139889   6.343   3.982   1.750 -0.8796  0.4493 -0.8521
 6158TIP3    H239890   6.278   4.095   1.828  1.6598  0.1193  1.7967
 6159TIP3   OH239891   2.920   1.803   1.722  0.3516  0.2883 -0.3133
 6159TIP3    H139892   2.958   1.724   1.684  0.4715  0.5689 -0.7957
 6159TIP3    H239893   2.956   1.874   1.668  0.5113  0.6941  0.3280
 6160TIP3   OH239894   3.838   1.203  13.394 -0.1376 -0.2962  0.3425
 6160TIP3    H139895   3.861   1.131  13.454 -0.6329 -1.6612 -1.0740
 6160TIP3    H239896   3.902   1.196  13.323 -0.8198  0.0543 -0.3028
 6161TIP3   OH239897   2.819   0.889  10.641  0.1092 -0.1691 -0.0370
 6161TIP3    H139898   2.799   0.945  10.565 -0.8383 -0.9758 -0.3987
 6161TIP3    H239899   2.913   0.901  10.655 -0.6130  4.2024  2.0589
 6162TIP3   OH239900   5.060   4.831  13.917  0.4762  0.3749  0.1921
 6162TIP3    H139901   5.044   4.873  14.001 -0.5304  0.6481 -0.1196
 6162TIP3    H239902   5.006   4.752  13.918  2.1375 -0.7852  0.6580
 6163TIP3   OH239903   5.823   2.579  15.355  0.4719  0.5713  0.0082
 6163TIP3    H139904   5.776   2.558  15.274  0.0781  1.7926 -0.0814
 6163TIP3    H239905   5.798   2.509  15.416  1.0837 -0.5809 -1.0324
 6164TIP3   OH239906   6.311   0.883   3.569  0.0715 -0.0989  0.0139
 6164TIP3    H139907   6.339   0.923   3.651  0.3709  0.6405 -0.4468
 6164TIP3    H239908   6.216   0.887   3.571 -0.1343 -3.7320  2.1500
 6165TIP3   OH239909   3.501   2.195   1.541  0.3398  0.4067  0.0624
 6165TIP3    H139910   3.470   2.281   1.512  1.4015  1.5884  2.3547
 6165TIP3    H239911   3.451   2.133   1.487 -0.4838  2.4242 -1.5894
 6166TIP3   OH239912   6.061   0.650   4.841  0.2216  0.2822  0.8818
 6166TIP3    H139913   6.129   0.702   4.885  2.1684 -0.9201 -0.5886
 6166TIP3    H239914   6.061   0.683   4.751 -0.1059 -0.7271  0.5115
 6167TIP3   OH239915   5.223   6.455   1.344 -0.2271  0.7169  0.1826
 6167TIP3    H139916   5.237   6.499   1.428 -1.7607 -1.0653  1.4136
 6167TIP3    H239917   5.168   6.515   1.294 -0.2294  1.2959  0.8732
 6168TIP3   OH239918   2.349   3.104  16.530 -0.0661 -0.1603 -0.1461
 6168TIP3    H139919   2.292   3.099  16.607  0.4974 -2.3757  0.1460
 6168TIP3    H239920   2.300   3.158  16.468 -0.7052  1.3225  1.6002
 6169TIP3   OH239921   0.022   3.100   2.716  0.2708  0.7739 -0.0702
 6169TIP3    H139922   0.028   3.185   2.760  3.2852 -0.1038  1.3460
 6169TIP3    H239923   0.084   3.106   2.644  0.7752 -0.3211  0.2543
 6170TIP3   OH239924   0.702   5.021  11.403 -0.2733  0.3911  0.2314
 6170TIP3    H139925   0.703   4.950  11.340  0.7121  0.5096  0.0942
 6170TIP3    H239926   0.784   5.068  11.387 -0.9213  1.5657  0.3109
 6171TIP3   OH239927   2.079   5.410  11.878 -0.4409 -0.0689 -0.3385
 6171TIP3    H139928   2.108   5.490  11.833 -1.3269  0.1048 -0.6059
 6171TIP3    H239929   1.989   5.398  11.850 -0.9626 -0.0467  1.2856
 6172TIP3   OH239930   1.153   3.467  12.153  0.1113  0.0235 -0.2149
 6172TIP3    H139931   1.102   3.537  12.193  0.2119  1.5302 -2.6326
 6172TIP3    H239932   1.089   3.416  12.103 -0.1164 -2.1928  2.2054
 6173TIP3   OH239933   5.899   3.780   1.983  0.7743  0.3429  0.0980
 6173TIP3    H139934   5.944   3.732   1.914  0.3187  0.1703 -0.0771
 6173TIP3    H239935   5.949   3.760   2.063 -0.0164 -1.2470  0.2124
 6174TIP3   OH239936   1.983   3.095  10.584  0.0887 -0.2011 -0.0931
 6174TIP3    H139937   2.040   3.038  10.635  0.7999  0.6299  0.0458
 6174TIP3    H239938   1.983   3.057  10.496  0.6384 -0.3612 -0.0237
 6175TIP3   OH239939   4.919   5.506   4.696 -0.0862  0.9029  0.4624
 6175TIP3    H139940   4.929   5.546   4.609 -1.3117 -0.0185 -0.1029
 6175TIP3    H239941   4.933   5.413   4.681  0.0098  0.7798  1.3166
 6176TIP3   OH239942   4.513   5.267   2.191  0.2813 -0.1395  0.3759
 6176TIP3    H139943   4.562   5.184   2.189 -1.1947 -1.0184  0.0513
 6176TIP3    H239944   4.491   5.283   2.099  0.1775  0.4020  0.4937
 6177TIP3   OH239945   3.644   1.017  11.303  0.5614  0.1571 -0.1433
 6177TIP3    H139946   3.594   1.069  11.240  0.7436 -0.6344 -0.9552
 6177TIP3    H239947   3.577   0.974  11.357  0.4246  2.3480  1.4710
 6178TIP3   OH239948   3.686   5.889   1.452  0.0656 -0.0287  0.8812
 6178TIP3    H139949   3.773   5.866   1.420  0.0107  0.4277  0.4061
 6178TIP3    H239950   3.682   5.984   1.445 -1.7289 -0.2718 -2.3383
 6179TIP3   OH239951   6.642   6.659   4.521  0.5137 -0.0427  0.1140
 6179TIP3    H139952   6.621   6.626   4.433  0.9211  0.9015 -0.3406
 6179TIP3    H239953   6.691   6.740   4.506 -0.9371  1.0584  1.2305
 6180TIP3   OH239954   4.881   5.551  12.061 -0.6762  0.2113  0.1125
 6180TIP3    H139955   4.871   5.642  12.090  2.0183  0.2838  0.9726
 6180TIP3    H239956   4.927   5.508  12.133 -3.9212 -2.4347  0.7035
 6181TIP3   OH239957   4.701   5.678  11.674  0.2974 -0.3740 -0.1778
 6181TIP3    H139958   4.797   5.682  11.673  0.2681  2.5794  2.0480
 6181TIP3    H239959   4.676   5.719  11.757 -2.9550  0.4840 -1.5104
 6182TIP3   OH239960   2.881   1.186   5.624  0.2433 -0.1522 -0.0125
 6182TIP3    H139961   2.800   1.154   5.664 -0.0725 -1.2391 -1.4783
 6182TIP3    H239962   2.934   1.215   5.698 -1.6064  0.8810  0.9612
 6183TIP3   OH239963   1.713   5.958  15.948  0.2656  0.0009  1.0951
 6183TIP3    H139964   1.708   5.863  15.939 -1.0702  0.0762  1.0439
 6183TIP3    H239965   1.755   5.971  16.034 -1.4740 -0.6341  2.0658
 6184TIP3   OH239966   5.857   3.688  13.052  0.0122  0.2002 -0.3279
 6184TIP3    H139967   5.777   3.644  13.082 -0.4788  1.1908 -0.1338
 6184TIP3    H239968   5.912   3.618  13.018 -0.3852 -0.6709  0.7733
 6185TIP3   OH239969   1.329   4.456  11.236  0.2715  0.3887 -0.1489
 6185TIP3    H139970   1.257   4.456  11.173  0.3112 -1.2676 -0.2192
 6185TIP3    H239971   1.400   4.409  11.191  0.3364 -0.7259  1.0601
 6186TIP3   OH239972   0.264   4.899  16.105  0.1770 -0.1982  0.3078
 6186TIP3    H139973   0.189   4.845  16.130  0.1233  0.5733  1.8637
 6186TIP3    H239974   0.225   4.974  16.060 -0.0350  0.3953  1.4558
 6187TIP3   OH239975   0.524   3.497   3.870 -0.1978 -0.1814  0.0563
 6187TIP3    H139976   0.513   3.589   3.847 -1.2151 -0.4252 -0.4304
 6187TIP3    H239977   0.617   3.479   3.852 -0.1235  0.5967 -0.3567
 6188TIP3   OH239978   6.179   0.998   1.396 -0.1041 -0.4043  0.3211
 6188TIP3    H139979   6.271   0.969   1.393  0.5184  1.6187 -2.3838
 6188TIP3    H239980   6.161   1.009   1.489  2.4320 -0.8058  0.9147
 6189TIP3   OH239981   6.777   1.284  13.953  0.4032  0.7005 -0.2007
 6189TIP3    H139982   6.846   1.345  13.927  0.0520  1.6074  0.9323
 6189TIP3    H239983   6.751   1.313  14.041  1.5348 -2.1989  1.1837
 6190TIP3   OH239984   5.274   3.354   1.244  0.3295  0.0421 -1.0687
 6190TIP3    H139985   5.327   3.432   1.228  3.0872 -1.5337  0.0456
 6190TIP3    H239986   5.207   3.383   1.306  0.0924  1.9744 -2.1872
 6191TIP3   OH239987   0.824   6.312  15.421  0.1588  0.0561 -0.4409
 6191TIP3    H139988   0.826   6.235  15.478 -0.1590  1.7847  1.9745
 6191TIP3    H239989   0.913   6.318  15.386  1.0876  0.3838  1.8664
 6192TIP3   OH239990   0.020   4.494  14.304 -0.3607  0.3011 -0.4991
 6192TIP3    H139991  -0.038   4.510  14.378  2.0952 -0.7490  1.7118
 6192TIP3    H239992   0.059   4.580  14.285  0.8008  0.1206  0.9993
 6193TIP3   OH239993   6.698   0.578   0.531 -0.2225 -0.4739 -0.2883
 6193TIP3    H139994   6.701   0.551   0.440 -0.0565 -0.8993 -0.1573
 6193TIP3    H239995   6.763   0.649   0.537  0.1087 -0.7659 -0.3957
 6194TIP3   OH239996   3.023   0.299  17.108 -0.0295 -0.1487 -0.1504
 6194TIP3    H139997   2.973   0.367  17.153 -1.9893 -1.5206 -0.2101
 6194TIP3    H239998   2.983   0.294  17.021 -0.2688 -1.7360  0.0336
 6195TIP3   OH239999   2.758   2.896  13.556  0.0936 -0.1522  0.1225
 6195TIP3    H140000   2.698   2.822  13.548 -0.3871  0.2514  0.0104
 6195TIP3    H240001   2.841   2.856  13.583 -0.4406 -0.6240  1.1211
 6196TIP3   OH240002   6.374   4.396  11.653  0.7226 -0.6227 -0.0701
 6196TIP3    H140003   6.435   4.460  11.689 -0.9397  0.3333  1.1040
 6196TIP3    H240004   6.345   4.433  11.570 -0.8318  0.5614  0.9689
 6197TIP3   OH240005   3.553   4.481  16.283 -0.4839 -0.9359  0.4900
 6197TIP3    H140006   3.528   4.565  16.323 -0.4376 -0.4359 -0.5115
 6197TIP3    H240007   3.492   4.470  16.210 -0.1218 -1.5009  0.2661
 6198TIP3   OH240008   2.603   3.568   3.695 -0.0276 -0.0826  0.3280
 6198TIP3    H140009   2.638   3.618   3.621  2.6269 -2.1553  0.0904
 6198TIP3    H240010   2.658   3.593   3.769 -0.8558 -0.1179  0.9614
 6199TIP3   OH240011   0.491   3.531  12.482 -0.3519 -0.0945  0.2032
 6199TIP3    H140012   0.412   3.481  12.504 -0.7834  1.0407  1.2936
 6199TIP3    H240013   0.458   3.606  12.432  0.3865 -1.3892 -2.3373
 6200TIP3   OH240014   1.501   1.315  11.735  0.2925 -0.0129 -0.3087
 6200TIP3    H140015   1.499   1.368  11.815 -3.9030  0.4852 -0.5911
 6200TIP3    H240016   1.553   1.238  11.758  0.5680  0.9163  2.3822
 6201TIP3   OH240017   0.513   2.242   3.554  0.1398 -0.0513  0.8851
 6201TIP3    H140018   0.530   2.219   3.463 -0.1141 -0.7193  0.9960
 6201TIP3    H240019   0.556   2.172   3.604  0.6647  0.5568  1.2918
 6202TIP3   OH240020   6.311   1.605  16.222  0.0620 -0.5092 -0.2216
 6202TIP3    H140021   6.357   1.677  16.266 -2.5308  0.9108  0.3224
 6202TIP3    H240022   6.329   1.618  16.129 -2.1910  2.2805 -0.3452
 6203TIP3   OH240023   3.999   5.587   4.811 -0.4574  0.3576 -0.0959
 6203TIP3    H140024   3.933   5.557   4.748 -1.0779  0.4086  0.5136
 6203TIP3    H240025   4.064   5.517   4.813 -1.4183 -0.5441  0.6268
 6204TIP3   OH240026   1.022   0.452  15.089 -0.2760  1.0272  0.6667
 6204TIP3    H140027   1.060   0.465  15.175  1.0800  1.1536  0.0522
 6204TIP3    H240028   1.089   0.481  15.027 -0.3485 -1.1603 -0.5060
 6205TIP3   OH240029   3.566   0.337  11.720  0.5849  0.6267 -0.0184
 6205TIP3    H140030   3.505   0.327  11.793  2.7465 -1.9850  1.5362
 6205TIP3    H240031   3.599   0.426  11.729 -2.4257  1.8355 -0.4650
 6206TIP3   OH240032   1.978   6.304  15.033  0.0209 -0.0947 -0.3394
 6206TIP3    H140033   1.907   6.366  15.016  0.2222  0.1796 -0.1880
 6206TIP3    H240034   2.039   6.352  15.089  0.5385 -0.1853 -0.8185
 6207TIP3   OH240035   5.452   1.421   1.051 -0.1029 -0.5277 -0.2548
 6207TIP3    H140036   5.434   1.368   0.973  0.6129  1.4527 -1.8089
 6207TIP3    H240037   5.546   1.412   1.065  0.0473  0.5005 -0.6323
 6208TIP3   OH240038   4.531   1.994   0.875  0.3765  0.1685 -0.3543
 6208TIP3    H140039   4.538   1.999   0.780 -1.2889 -1.3085 -0.5863
 6208TIP3    H240040   4.580   1.915   0.898  1.0507  0.6994  0.0691
 6209TIP3   OH240041   2.340   5.392  16.636 -0.0985 -0.9365  0.0440
 6209TIP3    H140042   2.349   5.389  16.731 -0.0898 -1.4469  0.0269
 6209TIP3    H240043   2.409   5.334  16.604 -0.4695 -1.2128 -0.2551
 6210TIP3   OH240044   1.252   1.352  15.321  0.1161 -0.5385  0.5564
 6210TIP3    H140045   1.192   1.397  15.380 -0.0722 -1.0729  0.7737
 6210TIP3    H240046   1.207   1.271  15.297  1.2253 -1.5036  1.6525
 6211TIP3   OH240047   6.779   2.159   2.184  0.7317 -0.6970 -0.0439
 6211TIP3    H140048   6.814   2.216   2.116  1.4183 -1.8453 -0.6870
 6211TIP3    H240049   6.804   2.071   2.156 -2.6327 -1.5855 -0.5296
 6212TIP3   OH240050   5.108   1.331   2.030  0.0292 -0.4756  0.1378
 6212TIP3    H140051   5.034   1.367   1.982  1.3162  0.5899 -1.1151
 6212TIP3    H240052   5.139   1.259   1.976  0.0048 -0.8240  0.5830
 6213TIP3   OH240053   0.067   2.738  13.689  0.5604 -0.0185 -1.0245
 6213TIP3    H140054   0.032   2.675  13.627 -0.0036  0.9297 -1.6733
 6213TIP3    H240055   0.120   2.798  13.637  0.4142  0.5410 -0.5478
 6214TIP3   OH240056   1.522   2.776  15.560  0.2166 -0.0281 -0.4301
 6214TIP3    H140057   1.615   2.798  15.551 -0.3832  1.9526 -2.1531
 6214TIP3    H240058   1.481   2.810  15.481 -2.0970 -0.2401  0.6278
 6215TIP3   OH240059   4.536   0.694   4.617  0.1243 -0.4110 -0.2323
 6215TIP3    H140060   4.443   0.675   4.631 -0.1607 -0.8524 -2.5256
 6215TIP3    H240061   4.578   0.609   4.617  0.3029 -0.3186 -0.8126
 6216TIP3   OH240062   3.464   0.926  16.887 -0.7081 -0.9729 -0.2046
 6216TIP3    H140063   3.481   0.949  16.796  0.2142  0.1717  0.2396
 6216TIP3    H240064   3.393   0.984  16.914 -2.4815 -2.8128 -0.8176
 6217TIP3   OH240065   4.729   2.825  15.312  0.4894 -0.4130 -0.2378
 6217TIP3    H140066   4.660   2.854  15.252 -0.2676 -3.2659 -0.8452
 6217TIP3    H240067   4.738   2.896  15.375 -1.3497  1.0244 -1.5594
 6218TIP3   OH240068   2.548   4.135  11.792  0.3161  0.2384  0.1377
 6218TIP3    H140069   2.549   4.229  11.808 -1.5149  0.3398 -0.1910
 6218TIP3    H240070   2.518   4.126  11.702  2.8480 -0.5994 -0.6716
 6219TIP3   OH240071   0.545   4.529   4.291  0.4672 -0.3505  0.5363
 6219TIP3    H140072   0.512   4.528   4.381 -0.3880  1.4540  0.2650
 6219TIP3    H240073   0.574   4.620   4.278 -1.3074 -0.0801 -1.6935
 6220TIP3   OH240074   2.716   1.714  13.313  0.3397 -0.1918 -0.6461
 6220TIP3    H140075   2.660   1.748  13.243  0.0178 -0.0773 -0.3385
 6220TIP3    H240076   2.802   1.703  13.273  0.3639  0.6810 -0.8368
 6221TIP3   OH240077   6.395   2.051   2.840 -0.3460  0.1296 -0.0471
 6221TIP3    H140078   6.315   2.018   2.800 -2.0936  0.7995  2.7642
 6221TIP3    H240079   6.459   2.053   2.768 -3.2406  1.0520 -2.6843
 6222TIP3   OH240080   0.147   1.257  12.548  0.1647 -0.1133  0.3772
 6222TIP3    H140081   0.079   1.307  12.593  0.2391 -0.1275  0.5043
 6222TIP3    H240082   0.100   1.184  12.507  0.3664 -1.1546  1.9977
 6223TIP3   OH240083   6.595   1.601   3.698  0.3812 -0.1384  0.0411
 6223TIP3    H140084   6.643   1.659   3.757 -0.9788 -1.2411  2.2693
 6223TIP3    H240085   6.659   1.535   3.672  1.1270  0.6512 -0.1348
 6224TIP3   OH240086   5.970   5.039  14.116  0.1820 -0.2809 -0.3821
 6224TIP3    H140087   5.902   4.974  14.133  0.4074 -0.3246  0.3352
 6224TIP3    H240088   6.042   4.990  14.077  0.8514 -0.6814  1.3202
 6225TIP3   OH240089   2.548   5.355   3.850  0.1689  0.1701 -0.1634
 6225TIP3    H140090   2.606   5.370   3.925 -0.4433  1.0104  0.1487
 6225TIP3    H240091   2.460   5.367   3.885 -0.1801 -0.6732 -0.7377
 6226TIP3   OH240092   1.615   2.281   2.100 -0.4292  0.2671 -0.4296
 6226TIP3    H140093   1.628   2.191   2.071 -0.2152  0.4766 -1.0052
 6226TIP3    H240094   1.552   2.317   2.038 -0.6588  0.4561 -0.0859
 6227TIP3   OH240095   6.087   6.032   2.408  0.2855  0.5032 -0.5043
 6227TIP3    H140096   6.063   5.954   2.457  1.2267  0.3220 -0.3156
 6227TIP3    H240097   6.182   6.039   2.419 -0.1556  3.5622  2.2816
 6228TIP3   OH240098   3.260   3.965   0.042  0.4484  0.5180 -0.1785
 6228TIP3    H140099   3.226   3.883   0.006 -0.3696  0.2838  1.1167
 6228TIP3    H240100   3.351   3.968   0.012  0.3695 -0.6570 -0.5630
 6229TIP3   OH240101   0.609   4.393  12.061 -0.1791 -0.2101 -0.0416
 6229TIP3    H140102   0.576   4.339  12.133  1.8679  0.7157  1.6742
 6229TIP3    H240103   0.681   4.343  12.024  0.4691  0.4417  0.3015
 6230TIP3   OH240104   1.154   2.525   0.562 -0.2041 -0.0145  0.2023
 6230TIP3    H140105   1.184   2.434   0.557  0.9107  0.2165  2.1872
 6230TIP3    H240106   1.227   2.576   0.527 -0.5910  0.1625 -0.3515
 6231TIP3   OH240107   5.853   4.393  14.307 -0.3224  0.8241  0.3621
 6231TIP3    H140108   5.820   4.303  14.303 -2.2843  1.5622 -0.9619
 6231TIP3    H240109   5.789   4.439  14.362  0.2116  1.6014  0.3439
 6232TIP3   OH240110   0.744   5.500   3.531  0.3888 -0.1597  0.2485
 6232TIP3    H140111   0.699   5.433   3.584  0.7320 -1.4237 -1.0375
 6232TIP3    H240112   0.837   5.478   3.539  0.6046  0.9898  0.9194
 6233TIP3   OH240113   1.887   6.206   0.315 -0.7478  0.1309 -0.8578
 6233TIP3    H140114   1.980   6.224   0.325 -1.3396  1.6365  2.9351
 6233TIP3    H240115   1.881   6.112   0.303  1.1155 -0.4344  2.2530
 6234TIP3   OH240116   3.021   0.170   5.424  0.1533 -0.2054 -0.6719
 6234TIP3    H140117   3.083   0.234   5.459 -0.2049 -0.1808 -0.0669
 6234TIP3    H240118   3.025   0.181   5.329 -0.1986  1.0053 -0.5590
 6235TIP3   OH240119   0.480   3.456  12.154  0.2308  0.3193 -0.0549
 6235TIP3    H140120   0.452   3.365  12.143  0.5821  0.1219  0.6598
 6235TIP3    H240121   0.398   3.504  12.168  0.2395 -0.3497  2.6766
 6236TIP3   OH240122   1.343   6.627   1.556  0.0503  0.4829  0.6683
 6236TIP3    H140123   1.257   6.665   1.575  0.0706  0.4067  0.9159
 6236TIP3    H240124   1.365   6.578   1.636 -0.8505 -1.6504 -0.3497
 6237TIP3   OH240125   5.111   1.798  14.089 -0.1001  0.1428  0.0113
 6237TIP3    H140126   5.031   1.749  14.105  0.7077 -1.5176 -0.7965
 6237TIP3    H240127   5.157   1.747  14.022  0.0922  2.7999 -1.9838
 6238TIP3   OH240128   2.924   6.531   3.542 -0.4683 -0.4968 -0.0724
 6238TIP3    H140129   2.982   6.471   3.589 -1.2083 -1.1299  0.0385
 6238TIP3    H240130   2.973   6.613   3.539  0.3824 -0.9868  0.1304
 6239TIP3   OH240131   0.276   4.036   0.442  0.2679  0.6344  0.0189
 6239TIP3    H140132   0.232   4.121   0.445  0.9076  0.9470  0.6706
 6239TIP3    H240133   0.212   3.974   0.478 -0.3639  0.7641 -0.8762
 6240TIP3   OH240134   1.999   1.340   3.362 -0.1357 -0.1505  0.4020
 6240TIP3    H140135   2.004   1.245   3.364 -0.5455 -0.2492 -2.0789
 6240TIP3    H240136   2.083   1.369   3.397  0.2364 -1.4179  0.5816
 6241TIP3   OH240137   2.236   4.623  13.946  0.4423 -0.0429 -0.4381
 6241TIP3    H140138   2.324   4.587  13.936  0.1089 -1.2453  0.8879
 6241TIP3    H240139   2.189   4.594  13.868  1.1679  0.5090 -1.0960
 6242TIP3   OH240140   5.153   6.488   0.332  0.2404 -0.1066  0.0417
 6242TIP3    H140141   5.198   6.436   0.265 -0.1100  1.3086 -1.3180
 6242TIP3    H240142   5.060   6.471   0.318  0.2835 -2.4838  2.4055
 6243TIP3   OH240143   5.454   4.361  15.863 -0.1706  0.6201 -0.3596
 6243TIP3    H140144   5.534   4.339  15.910 -1.2599 -0.8913  0.8524
 6243TIP3    H240145   5.392   4.387  15.932 -1.0574  0.6831 -1.1676
 6244TIP3   OH240146   0.531   5.982  16.152 -0.0068 -0.1653  0.1459
 6244TIP3    H140147   0.577   5.913  16.199 -0.6024  0.7523  2.1229
 6244TIP3    H240148   0.579   6.062  16.174 -1.3368  0.5150  0.6125
 6245TIP3   OH240149   4.324   4.227  15.458  0.4001 -0.0961  0.1139
 6245TIP3    H140150   4.268   4.302  15.437 -2.7856 -2.2719  0.4898
 6245TIP3    H240151   4.374   4.211  15.378 -1.0190  0.6049 -0.9211
 6246TIP3   OH240152   0.640   5.225   0.951  0.0103  0.4938 -0.2523
 6246TIP3    H140153   0.691   5.278   0.890  1.5971 -0.4420  0.2281
 6246TIP3    H240154   0.607   5.152   0.899  0.6854  0.1297 -0.1731
 6247TIP3   OH240155   4.718   1.736   3.615  0.1903  0.9171  0.2623
 6247TIP3    H140156   4.743   1.665   3.674 -2.5073  0.0842  0.4804
 6247TIP3    H240157   4.791   1.743   3.553  1.1385 -1.0746  1.1090
 6248TIP3   OH240158   5.976   5.411  13.657 -0.3460 -0.3173 -0.2310
 6248TIP3    H140159   6.008   5.382  13.743  1.3387 -2.3303 -1.4991
 6248TIP3    H240160   5.970   5.506  13.664  1.1609 -0.3403  1.6396
 6249TIP3   OH240161   6.013   0.013   1.462  0.1707  0.3058  0.2020
 6249TIP3    H140162   5.990  -0.070   1.419 -1.7872  1.5891 -1.3141
 6249TIP3    H240163   6.005   0.079   1.393  0.9399  1.8759  1.5752
 6250TIP3   OH240164   5.819   5.789  14.280 -0.1189  0.2205  0.0390
 6250TIP3    H140165   5.789   5.880  14.276  0.7054  0.4488 -1.5931
 6250TIP3    H240166   5.748   5.742  14.322 -0.6272  1.5981  0.7413
 6251TIP3   OH240167   1.971   0.338   5.880  0.0105 -0.2372 -0.4362
 6251TIP3    H140168   1.936   0.347   5.968 -0.9244  0.3261 -0.8638
 6251TIP3    H240169   2.059   0.376   5.884 -0.1079 -0.0385  0.1946
 6252TIP3   OH240170   3.917   3.827  17.080 -0.3860 -0.2399 -0.1444
 6252TIP3    H140171   3.872   3.907  17.052 -0.4137  0.5234  1.9941
 6252TIP3    H240172   3.943   3.845  17.171  0.0454 -2.4738  0.1970
 6253TIP3   OH240173   1.151   3.933  16.998 -0.6851 -0.4474  0.1307
 6253TIP3    H140174   1.212   3.952  17.070 -1.4905  0.0926  0.6788
 6253TIP3    H240175   1.208   3.907  16.925  0.3115  1.6512  0.1165
 6254TIP3   OH240176   5.243   0.686   1.266  0.0903  0.0516  0.5591
 6254TIP3    H140177   5.159   0.690   1.312  0.2782  0.0520  0.9050
 6254TIP3    H240178   5.251   0.595   1.238 -0.3437  0.2028 -0.0764
 6255TIP3   OH240179   6.188   4.309  16.421 -0.1385 -0.1681  0.0120
 6255TIP3    H140180   6.171   4.302  16.327 -0.3723 -1.3848  0.1366
 6255TIP3    H240181   6.149   4.230  16.458 -1.9393  1.3340  1.4116
 6256TIP3   OH240182   6.696   5.080  13.085 -0.3202 -0.3113 -0.5489
 6256TIP3    H140183   6.623   5.141  13.098 -0.4571 -0.4068 -0.8494
 6256TIP3    H240184   6.655   5.002  13.048  0.2558  0.5774 -3.1903
 6257TIP3   OH240185   1.218   3.253  15.537 -0.0674 -0.1064  0.2330
 6257TIP3    H140186   1.183   3.329  15.584 -1.4896 -0.7141  0.1647
 6257TIP3    H240187   1.152   3.232  15.472  0.0571 -1.7452  0.6073
 6258TIP3   OH240188   5.607   5.635   5.108 -0.5870 -0.1439 -0.2777
 6258TIP3    H140189   5.574   5.722   5.085 -3.8084 -2.1430 -3.8318
 6258TIP3    H240190   5.541   5.599   5.168 -0.2238 -0.8378 -0.2917
 6259TIP3   OH240191   1.971   4.644  15.329  0.2988 -0.6448  0.6596
 6259TIP3    H140192   1.955   4.655  15.423 -1.3564  0.5777  0.2541
 6259TIP3    H240193   1.886   4.618  15.293  0.2836  1.4589 -0.8788
 6260TIP3   OH240194   0.012   4.347   4.818  0.3615  0.0763 -0.0657
 6260TIP3    H140195   0.016   4.441   4.835 -1.5706  0.2774 -0.5676
 6260TIP3    H240196   0.103   4.321   4.805  0.8368  2.1152 -1.0972
 6261TIP3   OH240197   2.907   3.688   3.475 -0.0767  0.6464 -0.5890
 6261TIP3    H140198   2.841   3.670   3.408 -1.4854  0.8898  0.7074
 6261TIP3    H240199   2.941   3.602   3.499  0.4394  0.5642 -1.6320
 6262TIP3   OH240200   5.181   0.552  15.594 -0.5290  0.3504 -0.3228
 6262TIP3    H140201   5.267   0.512  15.600 -0.0962  1.6239  2.4670
 6262TIP3    H240202   5.123   0.493  15.642 -0.7216  0.8145  0.0176
 6263TIP3   OH240203   6.616   5.996   2.281  0.4329  0.7401  0.0869
 6263TIP3    H140204   6.573   5.966   2.201  0.4182 -3.4661  1.5492
 6263TIP3    H240205   6.682   6.058   2.252 -0.3500  0.1472 -3.0838
 6264TIP3   OH240206   1.718   0.262   5.224  0.1342 -0.2288 -0.1901
 6264TIP3    H140207   1.798   0.237   5.176  0.3924  0.4262 -0.1069
 6264TIP3    H240208   1.657   0.289   5.155 -0.0609 -0.8426 -0.2626
 6265TIP3   OH240209   4.550   0.095  13.866 -0.1332 -0.3122  0.0992
 6265TIP3    H140210   4.582   0.125  13.781 -1.0358  0.2084 -0.0587
 6265TIP3    H240211   4.612   0.132  13.930 -0.2819  0.4858 -0.2209
 6266TIP3   OH240212   6.767   1.673   1.408  0.4106 -0.1257 -0.2977
 6266TIP3    H140213   6.710   1.657   1.333 -0.6556 -1.4766  0.7739
 6266TIP3    H240214   6.713   1.725   1.468  0.8949  0.0307  0.0097
 6267TIP3   OH240215   2.584   3.701   3.214 -0.0672  0.1073 -0.2323
 6267TIP3    H140216   2.668   3.655   3.216 -0.4126 -0.5274 -0.0055
 6267TIP3    H240217   2.556   3.697   3.123 -0.4944 -0.8739 -0.0618
 6268TIP3   OH240218   5.704   2.912   4.143 -0.0153  0.1947 -0.4944
 6268TIP3    H140219   5.638   2.962   4.095 -0.0168  0.4007 -0.2822
 6268TIP3    H240220   5.711   2.957   4.227 -0.1561 -0.2811 -0.2271
 6269TIP3   OH240221   6.596   5.497   2.034 -0.6993 -0.1464 -0.6331
 6269TIP3    H140222   6.613   5.411   2.073  1.7731  0.3547 -0.5556
 6269TIP3    H240223   6.653   5.502   1.958 -2.4395  0.5774 -1.9300
 6270TIP3   OH240224   6.499   3.021   2.216  0.6130  0.3295  0.3484
 6270TIP3    H140225   6.546   3.087   2.165 -1.3441  0.0772 -1.8895
 6270TIP3    H240226   6.542   2.938   2.195  2.3851  0.6969  2.3264
 6271TIP3   OH240227   1.028   0.372  12.003  0.0302  0.4731  0.0097
 6271TIP3    H140228   1.021   0.281  12.030 -0.4685  0.5947  0.2928
 6271TIP3    H240229   1.068   0.417  12.077 -1.1656  0.7713  0.4953
 6272TIP3   OH240230   5.467   2.833   5.433 -0.2995  0.1149  0.6256
 6272TIP3    H140231   5.476   2.800   5.343  1.1653  1.6570  0.1657
 6272TIP3    H240232   5.372   2.842   5.446 -0.5627 -1.0489 -0.4199
 6273TIP3   OH240233   2.366   3.482  10.829  0.3158 -0.0220  0.3089
 6273TIP3    H140234   2.334   3.470  10.739  3.2613 -1.1878 -0.6434
 6273TIP3    H240235   2.412   3.565  10.828  0.1482  0.0808  0.8232
 6274TIP3   OH240236   5.522   2.232  14.258 -0.3481  0.0547  0.4138
 6274TIP3    H140237   5.433   2.203  14.241 -0.4777 -0.4052  1.8160
 6274TIP3    H240238   5.548   2.184  14.337  0.2951  1.9429  1.3837
 6275TIP3   OH240239   1.444   5.438  16.499 -0.2711  0.0344 -0.4348
 6275TIP3    H140240   1.420   5.526  16.530 -0.3137 -0.3156  0.5337
 6275TIP3    H240241   1.361   5.391  16.493 -0.1713 -0.1700 -0.2263
 6276TIP3   OH240242   3.210   1.897  10.283 -0.5388 -0.4017 -0.0978
 6276TIP3    H140243   3.305   1.893  10.282 -0.5876 -1.6829  0.5052
 6276TIP3    H240244   3.190   1.978  10.331  0.2270 -0.2311 -0.0608
 6277TIP3   OH240245   0.591   1.057  14.743 -0.1957  0.1215 -0.1296
 6277TIP3    H140246   0.595   1.134  14.801  0.4225 -0.3446  0.4536
 6277TIP3    H240247   0.533   1.084  14.672  1.0088  1.5836 -0.5785
 6278TIP3   OH240248   1.505   6.013   0.162 -0.4269  0.2481 -0.1866
 6278TIP3    H140249   1.425   5.995   0.212 -0.7078  0.8228 -0.4275
 6278TIP3    H240250   1.522   6.106   0.176 -0.0595  0.2336 -0.5183
 6279TIP3   OH240251   3.756   1.880  16.538  0.3639  0.2557 -0.8670
 6279TIP3    H140252   3.840   1.860  16.496  1.5492  1.5153  0.7740
 6279TIP3    H240253   3.779   1.945  16.605 -2.0932  1.2881 -0.9933
 6280TIP3   OH240254   5.110   5.684   2.549 -0.2955  0.2482 -0.6654
 6280TIP3    H140255   5.150   5.707   2.465 -0.8019 -0.1136 -1.0097
 6280TIP3    H240256   5.183   5.681   2.610  0.0306  0.8578 -1.0227
 6281TIP3   OH240257   6.291   5.896   1.538  0.0085 -0.3016 -0.2408
 6281TIP3    H140258   6.199   5.921   1.529  0.2438  0.4260 -0.7024
 6281TIP3    H240259   6.314   5.860   1.452 -0.5188 -2.7941  0.6307
 6282TIP3   OH240260   1.927   2.863   1.960 -0.0332 -0.0653 -0.0100
 6282TIP3    H140261   1.947   2.810   2.037 -1.1638 -0.0840  0.2799
 6282TIP3    H240262   1.845   2.827   1.927  1.3222 -1.1917 -2.2620
 6283TIP3   OH240263   4.568   1.452  15.873  0.1909 -0.9881 -0.1328
 6283TIP3    H140264   4.513   1.530  15.865 -0.7413 -1.8277 -2.3594
 6283TIP3    H240265   4.641   1.467  15.814  1.2449 -0.8126  1.1966
 6284TIP3   OH240266   2.761   3.968   4.566  0.1950 -0.0330  0.3355
 6284TIP3    H140267   2.778   3.966   4.472 -2.9110  1.8981 -0.3455
 6284TIP3    H240268   2.804   4.048   4.597  1.1473 -0.6262  0.5716
 6285TIP3   OH240269   4.180   6.341  13.922  0.0994 -0.2606  0.2634
 6285TIP3    H140270   4.268   6.304  13.924 -0.0371 -0.6619 -1.0505
 6285TIP3    H240271   4.136   6.301  13.998  0.4866 -1.4725 -0.1356
 6286TIP3   OH240272   4.651   4.414  17.056 -0.1429  0.2320  0.0054
 6286TIP3    H140273   4.689   4.355  16.991 -2.0816 -0.6392 -0.3718
 6286TIP3    H240274   4.603   4.479  17.005 -2.1903 -0.8187  0.5731
 6287TIP3   OH240275   4.969   0.143   3.962 -0.3263  0.2841 -0.2048
 6287TIP3    H140276   4.905   0.074   3.977 -0.0690 -0.0258 -0.5307
 6287TIP3    H240277   4.938   0.217   4.014 -1.0440  0.1865 -0.4891
 6288TIP3   OH240278   5.658   2.874  15.275 -0.4147  0.4270 -0.0962
 6288TIP3    H140279   5.715   2.838  15.343  1.5750  0.6147 -1.6194
 6288TIP3    H240280   5.622   2.798  15.230  0.7157  0.3107 -0.8145
 6289TIP3   OH240281   4.584   2.756  13.315  0.2839  0.0079 -0.2745
 6289TIP3    H140282   4.608   2.756  13.408  1.6735  1.2257 -0.6080
 6289TIP3    H240283   4.503   2.807  13.312  0.1973 -0.0908  0.2859
 6290TIP3   OH240284   6.757   5.699   2.159 -0.2546 -0.3590 -0.0742
 6290TIP3    H140285   6.695   5.645   2.110 -2.2568  0.9161  0.9970
 6290TIP3    H240286   6.740   5.678   2.251  0.6269  0.3051  0.2491
 6291TIP3   OH240287   0.487   6.191  14.590  0.0075 -0.4110  0.1983
 6291TIP3    H140288   0.532   6.220  14.510 -0.4353  1.3791  0.5838
 6291TIP3    H240289   0.490   6.095  14.585  1.2252 -0.3255 -1.2632
 6292TIP3   OH240290   5.635   0.405  12.915  0.2676 -0.5033  0.0780
 6292TIP3    H140291   5.657   0.446  12.831 -0.1186 -0.8778 -0.2076
 6292TIP3    H240292   5.631   0.312  12.896  0.5732 -0.6249  0.6017
 6293TIP3   OH240293   3.056   5.510  12.830 -0.2223 -0.2651  0.5375
 6293TIP3    H140294   2.970   5.533  12.795  0.2511  0.1390 -0.3972
 6293TIP3    H240295   3.047   5.518  12.925 -0.7940  1.2727  0.3666
 6294TIP3   OH240296   4.319   3.060  13.866  0.1908 -0.2004  0.4509
 6294TIP3    H140297   4.305   2.971  13.901 -1.1949  0.2078  0.9885
 6294TIP3    H240298   4.388   3.097  13.921  0.4768 -0.7897  0.4978
 6295TIP3   OH240299   5.606   1.510   4.893  0.1235 -0.4196 -0.2472
 6295TIP3    H140300   5.613   1.507   4.988  0.2400  0.5876 -0.2157
 6295TIP3    H240301   5.693   1.484   4.862 -0.3154 -2.1244 -0.1200
 6296TIP3   OH240302   2.556   6.311  16.669  0.4547  0.3095  0.2927
 6296TIP3    H140303   2.618   6.381  16.650  1.6300 -0.2107  2.1201
 6296TIP3    H240304   2.565   6.296  16.763 -0.2859 -1.8331  0.0407
 6297TIP3   OH240305   1.099   4.426  15.774 -0.1858  0.0005  0.4403
 6297TIP3    H140306   1.093   4.347  15.827 -1.6942  1.7139  2.8939
 6297TIP3    H240307   1.015   4.430  15.728  0.5913 -0.7507 -1.0893
 6298TIP3   OH240308   1.803   2.753   0.328 -0.5337 -0.1466  0.2329
 6298TIP3    H140309   1.777   2.727   0.239  0.2751  0.0803 -0.0785
 6298TIP3    H240310   1.733   2.811   0.358  0.9189  2.7209 -1.6691
 6299TIP3   OH240311   3.024   4.884  12.403  0.9399  0.6214 -0.3272
 6299TIP3    H140312   3.097   4.867  12.463 -0.1323 -0.6391  0.6573
 6299TIP3    H240313   3.034   4.818  12.334  0.5562  0.2113 -0.0012
 6300TIP3   OH240314   3.833   3.424   3.660 -0.4295  0.0528 -0.2655
 6300TIP3    H140315   3.833   3.340   3.614  0.1760  0.6387 -1.3573
 6300TIP3    H240316   3.762   3.473   3.620  0.3785  0.7272 -0.8792
 6301TIP3   OH240317   0.358   2.770  17.148 -0.0210  0.4972 -0.0734
 6301TIP3    H140318   0.374   2.720  17.228 -1.3326  1.1360  0.6002
 6301TIP3    H240319   0.378   2.860  17.172 -1.6155  0.8714 -0.0908
 6302TIP3   OH240320   5.679   6.073  15.013 -0.2144  0.0136 -0.3583
 6302TIP3    H140321   5.649   6.161  15.037 -1.8350 -0.3193 -1.1104
 6302TIP3    H240322   5.738   6.087  14.939 -1.2421  0.3866 -1.1105
 6303TIP3   OH240323   5.057   6.695  15.291  0.6025 -0.0458 -0.4206
 6303TIP3    H140324   5.008   6.629  15.339  0.9038 -0.6980 -1.0046
 6303TIP3    H240325   5.077   6.762  15.356  1.5738 -1.2337  0.5188
 6304TIP3   OH240326   0.022   1.892  16.118  0.0457  0.7040  0.4836
 6304TIP3    H140327   0.046   1.838  16.193  2.3233  0.1897 -0.5538
 6304TIP3    H240328   0.087   1.963  16.119 -0.8300  1.5276 -0.1396
 6305TIP3   OH240329   1.455   2.169   3.212 -0.0958  0.3822 -0.0519
 6305TIP3    H140330   1.404   2.201   3.286  1.0948  0.0124  0.9488
 6305TIP3    H240331   1.484   2.248   3.167  0.4498  0.6413  0.7568
 6306TIP3   OH240332   4.333   0.356   5.166 -0.2162 -0.4336 -0.2893
 6306TIP3    H140333   4.292   0.270   5.157 -0.3272 -0.3507 -0.5884
 6306TIP3    H240334   4.424   0.337   5.191 -0.0323 -0.6688 -1.0978
 6307TIP3   OH240335   3.801   2.613  17.196  0.1729 -0.2063 -0.4827
 6307TIP3    H140336   3.843   2.624  17.281  0.4563  1.0414 -0.7738
 6307TIP3    H240337   3.799   2.518  17.182 -1.5435 -0.5155  1.7256
 6308TIP3   OH240338   3.577   3.544  16.686 -0.4332  0.1121 -0.6531
 6308TIP3    H140339   3.586   3.486  16.611 -3.3663 -2.6478  1.0418
 6308TIP3    H240340   3.662   3.539  16.730  0.3140 -0.5391 -2.1386
 6309TIP3   OH240341   0.035   5.107  11.572 -0.5977  0.5527 -1.1983
 6309TIP3    H140342  -0.027   5.101  11.645  1.8801 -0.3517  0.9249
 6309TIP3    H240343   0.035   5.199  11.547 -0.7996  1.0340  0.5436
 6310TIP3   OH240344   4.545   0.941  15.239  0.3001 -0.1129  0.2010
 6310TIP3    H140345   4.570   1.018  15.289 -0.5357  0.1917  0.1587
 6310TIP3    H240346   4.606   0.873  15.267  2.4634  1.1320 -1.3562
 6311TIP3   OH240347   0.336   5.701   5.393 -0.0267 -0.1524 -0.3545
 6311TIP3    H140348   0.381   5.682   5.311  1.0882 -1.4807  0.5596
 6311TIP3    H240349   0.244   5.713   5.367  0.3461 -0.3474 -1.8203
 6312TIP3   OH240350   3.571   5.463   3.446  0.1597  0.5340  0.1944
 6312TIP3    H140351   3.537   5.511   3.521 -1.7139  0.7238 -0.7608
 6312TIP3    H240352   3.501   5.466   3.381  1.4446 -0.3124 -1.2723
 6313TIP3   OH240353   1.009   5.140   6.260  0.9137  0.0895  0.0298
 6313TIP3    H140354   0.969   5.222   6.230  1.0820  0.3686  0.5578
 6313TIP3    H240355   0.949   5.072   6.230 -0.1440  0.5299  1.1161
 6314TIP3   OH240356   1.527   6.420  16.803  0.7326  1.0863 -0.2762
 6314TIP3    H140357   1.475   6.488  16.844  0.7220 -0.1369  1.8070
 6314TIP3    H240358   1.463   6.353  16.777  1.1096  0.1984  1.0581
 6315TIP3   OH240359   0.914   3.973  16.514  0.9269  0.3223  0.2820
 6315TIP3    H140360   1.006   3.978  16.539  0.9753  0.5429  0.0641
 6315TIP3    H240361   0.902   3.882  16.486  1.0352  0.2481  0.4764
 6316TIP3   OH240362   3.713   0.048   0.474  0.2679 -0.1088 -0.6354
 6316TIP3    H140363   3.744   0.002   0.396 -1.3825 -0.3913 -1.1267
 6316TIP3    H240364   3.737  -0.010   0.546  0.8686 -0.3321 -1.0024
 6317TIP3   OH240365   3.485   4.469  12.341 -0.4236  0.0901  0.0772
 6317TIP3    H140366   3.563   4.479  12.286  0.8526  0.8487  1.9700
 6317TIP3    H240367   3.433   4.548  12.324 -0.2329  0.1288 -0.3317
 6318TIP3   OH240368   6.132   0.353  14.876  0.4780 -0.5047 -0.4901
 6318TIP3    H140369   6.123   0.432  14.929 -1.0001  0.3553 -1.9734
 6318TIP3    H240370   6.134   0.282  14.939 -1.0576  0.5014  0.7205
 6319TIP3   OH240371   5.832   3.731  11.745  0.4106 -0.1233 -0.0811
 6319TIP3    H140372   5.859   3.658  11.801  2.0747  0.1724 -0.4628
 6319TIP3    H240373   5.862   3.809  11.792  0.0957  0.2266 -0.4613
 6320TIP3   OH240374   6.697   1.340  14.192 -0.1177 -0.1503 -0.2006
 6320TIP3    H140375   6.709   1.427  14.229 -0.5488 -0.1039 -0.1711
 6320TIP3    H240376   6.615   1.308  14.230  2.0369 -2.2270  3.0212
 6321TIP3   OH240377   0.877   6.301  16.425  0.0156  0.0857  0.2438
 6321TIP3    H140378   0.942   6.309  16.495 -0.4225 -0.2868  0.6934
 6321TIP3    H240379   0.911   6.357  16.355  0.7843 -0.0513  0.5051
 6322TIP3   OH240380   6.694   2.512   0.238  0.4839 -0.0621  0.1864
 6322TIP3    H140381   6.769   2.506   0.179 -0.8033 -0.1074 -1.5209
 6322TIP3    H240382   6.715   2.454   0.311  1.7361 -0.7217 -0.6858
 6323TIP3   OH240383   2.815   5.525  12.642  0.0904  0.1223 -0.1064
 6323TIP3    H140384   2.833   5.600  12.586 -0.3391  0.6306  0.4258
 6323TIP3    H240385   2.761   5.561  12.713  2.2943 -0.0684  1.7351
 6324TIP3   OH240386   6.352   5.840   0.983  0.7785  0.3902  0.0385
 6324TIP3    H140387   6.304   5.764   0.950  0.1088  0.6716  0.3664
 6324TIP3    H240388   6.432   5.842   0.930  1.1997 -1.0405  0.6063
 6325TIP3   OH240389   6.731   4.311  13.191 -0.1850  0.0451  0.3553
 6325TIP3    H140390   6.768   4.374  13.128  0.1997  0.6954  1.2198
 6325TIP3    H240391   6.648   4.349  13.217 -0.6331 -0.5305 -0.2208
 6326TIP3   OH240392   4.788   4.539   4.200 -0.0442 -0.8075 -0.1250
 6326TIP3    H140393   4.883   4.548   4.210  0.1225 -2.3053 -0.2423
 6326TIP3    H240394   4.751   4.595   4.268  0.9374 -1.2117  0.7525
 6327TIP3   OH240395   6.642   3.162   2.017  0.4202 -0.1338  0.0846
 6327TIP3    H140396   6.640   3.098   1.946 -1.3908 -0.8800  0.7721
 6327TIP3    H240397   6.650   3.247   1.973  1.1621 -0.6992 -0.9039
 6328TIP3   OH240398   0.425   3.888   3.471  0.2394 -0.4374 -0.3281
 6328TIP3    H140399   0.489   3.854   3.408  1.2682  0.3152  0.2892
 6328TIP3    H240400   0.342   3.889   3.423  1.1276  0.7373 -1.8979
 6329TIP3   OH240401   0.225   2.636  15.901 -0.3543 -0.5144  0.7753
 6329TIP3    H140402   0.203   2.574  15.972 -0.8078 -0.9100  0.2965
 6329TIP3    H240403   0.143   2.646  15.852  0.2261 -1.0651 -0.3250
 6330TIP3   OH240404   0.476   6.075   1.927 -0.3165  0.2826  0.0753
 6330TIP3    H140405   0.440   5.996   1.887 -0.5417 -0.2198  1.2308
 6330TIP3    H240406   0.571   6.060   1.928 -0.4570 -0.6621  1.6549
 6331TIP3   OH240407   6.191   6.506   1.533  0.1214 -0.8598  0.0435
 6331TIP3    H140408   6.106   6.510   1.577 -0.0281 -1.9214 -0.1337
 6331TIP3    H240409   6.243   6.574   1.575 -0.7011 -0.4595  0.4163
 6332TIP3   OH240410   5.379   3.989  16.192  0.0283 -0.0439  0.3609
 6332TIP3    H140411   5.414   4.050  16.126 -0.3258 -0.9518 -0.6772
 6332TIP3    H240412   5.284   3.995  16.181  0.0014 -0.9812  0.0666
 6333TIP3   OH240413   5.071   2.013  16.120 -0.2595  0.8519 -0.2870
 6333TIP3    H140414   4.996   2.059  16.158  0.8459  1.0535  1.7260
 6333TIP3    H240415   5.147   2.050  16.166  0.8291 -1.4867 -0.1412
 6334TIP3   OH240416   1.976   5.006  13.319 -0.2817  0.5817  0.1128
 6334TIP3    H140417   2.050   5.018  13.260  0.6529  0.9498  1.3537
 6334TIP3    H240418   1.972   4.911  13.334 -0.1239  0.5537 -0.0272
 6335TIP3   OH240419   1.197   0.400   0.154  0.4529  0.1349 -0.1854
 6335TIP3    H140420   1.180   0.493   0.173  2.2554  0.2415  1.0491
 6335TIP3    H240421   1.278   0.401   0.103 -0.7632 -0.6288 -2.1779
 6336TIP3   OH240422   0.024   6.565   1.550  0.7066  0.4232 -0.8448
 6336TIP3    H140423   0.094   6.499   1.551  0.3041 -0.0087 -1.0032
 6336TIP3    H240424  -0.006   6.566   1.459 -1.0174 -1.0098 -0.3073
 6337TIP3   OH240425   4.863   1.076  16.389 -0.0688  0.2737  0.0419
 6337TIP3    H140426   4.769   1.096  16.383  0.6404  3.3873 -2.2894
 6337TIP3    H240427   4.873   0.994  16.340 -1.9706 -1.8951  3.0924
 6338TIP3   OH240428   2.065   5.118  13.602 -0.0271 -0.3242 -0.2476
 6338TIP3    H140429   1.981   5.113  13.556  1.2491 -1.2166 -2.5865
 6338TIP3    H240430   2.061   5.201  13.650 -1.9910 -0.0384 -0.8569
 6339TIP3   OH240431   4.802   4.570  17.238 -0.3490 -0.1282  0.1584
 6339TIP3    H140432   4.786   4.650  17.188  0.6707  0.0776  0.1477
 6339TIP3    H240433   4.777   4.499  17.179  0.3068  0.1324 -0.4500
 6340TIP3   OH240434   0.297   2.869  11.975 -0.2255 -0.1125 -0.6697
 6340TIP3    H140435   0.234   2.862  11.903 -2.6509 -1.7477  1.5049
 6340TIP3    H240436   0.253   2.923  12.040  0.6080 -1.2535  0.8788
 6341TIP3   OH240437   5.914   1.093  16.982 -0.1291  0.2887  0.6071
 6341TIP3    H140438   5.898   1.149  17.058 -1.6581 -0.6950  1.0439
 6341TIP3    H240439   5.985   1.035  17.010 -1.5118 -0.8965  1.7739
 6342TIP3   OH240440   2.709   3.845   6.886  0.4697 -0.3728  0.3079
 6342TIP3    H140441   2.767   3.904   6.935 -0.2536  1.4918 -1.0248
 6342TIP3    H240442   2.678   3.783   6.952  0.7078  1.1664  1.9248
 6343TIP3   OH240443   4.933   0.716  10.080 -0.4703 -0.0976  0.1277
 6343TIP3    H140444   4.997   0.654  10.045  0.2580  0.2532  0.8300
 6343TIP3    H240445   4.984   0.794  10.100 -1.3007  0.5539 -0.2822
 6344TIP3   OH240446   0.843   1.218  15.172 -0.1213 -0.2781 -0.3923
 6344TIP3    H140447   0.762   1.231  15.220  0.3226  0.8890  0.0498
 6344TIP3    H240448   0.884   1.304  15.169  0.2379 -0.4834 -2.1754
 6345TIP3   OH240449   1.955   2.245  16.537 -0.1817 -0.1971 -0.1479
 6345TIP3    H140450   1.861   2.237  16.553 -0.5247  0.8746 -1.4544
 6345TIP3    H240451   1.996   2.199  16.610 -1.7341 -1.7851 -0.2473
 6346TIP3   OH240452   4.423   4.218  15.176 -0.1035  0.2989  0.2314
 6346TIP3    H140453   4.423   4.122  15.172 -0.3402  0.3274 -0.7178
 6346TIP3    H240454   4.389   4.245  15.091  0.7448  1.2405  0.1801
 6347TIP3   OH240455   2.542   5.697  12.441 -0.3048  0.2465 -0.2754
 6347TIP3    H140456   2.513   5.778  12.398 -0.7281 -0.5460 -1.4838
 6347TIP3    H240457   2.637   5.696  12.428 -0.3533  0.3239 -0.6388
 6348TIP3   OH240458   0.905   2.243   3.731 -0.1773 -0.1614 -0.3435
 6348TIP3    H140459   0.886   2.152   3.751 -1.6199 -0.0048 -0.9087
 6348TIP3    H240460   0.822   2.279   3.700  0.1436  1.5708  0.7012
 6349TIP3   OH240461   5.281   1.749   5.827 -0.0613  0.2144  0.5796
 6349TIP3    H140462   5.349   1.776   5.765 -0.8594  0.7278 -0.0834
 6349TIP3    H240463   5.254   1.663   5.796  1.0891 -0.4993  1.5259
 6350TIP3   OH240464   0.051   6.760   1.056 -0.5027 -0.5698  0.2955
 6350TIP3    H140465  -0.035   6.737   1.020 -0.8348 -1.3082  1.5532
 6350TIP3    H240466   0.066   6.850   1.025 -1.0457 -0.9771 -1.1804
 6351TIP3   OH240467   3.671   5.821   5.711 -0.2677 -0.4282 -0.0145
 6351TIP3    H140468   3.724   5.873   5.771  1.3099 -1.0069 -0.8949
 6351TIP3    H240469   3.582   5.855   5.723  0.6737  2.3317 -0.4239
 6352TIP3   OH240470   2.725   6.542   0.243 -0.5799 -0.3365  1.1645
 6352TIP3    H140471   2.734   6.466   0.301  1.2181 -0.3910  0.8504
 6352TIP3    H240472   2.815   6.568   0.224 -1.1641  0.2235 -0.9203
 6353TIP3   OH240473   3.211   5.041  13.342  0.3056 -0.1480  0.7392
 6353TIP3    H140474   3.155   5.069  13.270 -0.3546 -0.5677  1.0772
 6353TIP3    H240475   3.176   4.956  13.368  1.3101 -0.5666  0.7508
 6354TIP3   OH240476   1.605   5.722   3.721  0.4647 -0.0427  0.1315
 6354TIP3    H140477   1.625   5.685   3.635 -0.4560 -1.1406  0.3756
 6354TIP3    H240478   1.587   5.646   3.777 -1.1207  0.7492  0.7317
 6355TIP3   OH240479   2.264   5.087   5.389 -0.2506 -0.1745 -0.1301
 6355TIP3    H140480   2.257   5.000   5.427 -1.2199  0.8839  2.2176
 6355TIP3    H240481   2.343   5.124   5.428 -0.9726  0.7393  0.4808
 6356TIP3   OH240482   4.476   0.040  13.077 -0.1552  0.1520  0.0350
 6356TIP3    H140483   4.433   0.102  13.135  0.2846  1.0768 -0.6126
 6356TIP3    H240484   4.405   0.003  13.024 -0.5833 -0.8489  1.2842
 6357TIP3   OH240485   2.020   4.375   2.555 -0.5494  0.2946 -0.3777
 6357TIP3    H140486   2.017   4.449   2.616  2.2737  1.3914 -1.4707
 6357TIP3    H240487   2.040   4.300   2.609 -0.2248  0.8831  0.3233
 6358TIP3   OH240488   3.979   2.317   6.131  0.0022  0.1797 -0.7711
 6358TIP3    H140489   3.998   2.308   6.225 -0.1640  0.5064 -0.7058
 6358TIP3    H240490   4.002   2.407   6.110 -2.7763  1.0498 -0.3760
 6359TIP3   OH240491   3.087   6.680   3.887 -0.2216 -0.0289 -0.6805
 6359TIP3    H140492   3.059   6.645   3.803 -1.3786  0.0163 -0.3227
 6359TIP3    H240493   3.016   6.659   3.947 -0.4934  2.0078 -0.2327
 6360TIP3   OH240494   4.761   2.131   5.672 -0.1931 -0.3777  0.2090
 6360TIP3    H140495   4.822   2.185   5.622  1.6247  0.1402  2.8908
 6360TIP3    H240496   4.688   2.189   5.692  0.2159  0.1047  0.2838
 6361TIP3   OH240497   3.029   3.830   6.938  0.1020  0.0681  0.4157
 6361TIP3    H140498   3.092   3.820   6.867  1.4748 -0.5428  1.6782
 6361TIP3    H240499   2.984   3.746   6.942  0.7783 -0.2764  0.9506
 6362TIP3   OH240500   1.822   4.044   3.671 -0.2410 -0.4000 -0.0845
 6362TIP3    H140501   1.768   4.065   3.595 -0.1196 -0.7957 -0.2806
 6362TIP3    H240502   1.840   3.950   3.663 -0.1730 -0.4276  0.3959
 6363TIP3   OH240503   0.751   3.142  15.886  0.3939 -0.5496 -0.0605
 6363TIP3    H140504   0.729   3.114  15.797 -2.1074 -0.7601  0.5866
 6363TIP3    H240505   0.845   3.162  15.882  0.1910  0.0791 -2.8868
 6364TIP3   OH240506   4.571   6.536   6.345 -0.1170  0.0361 -0.1561
 6364TIP3    H140507   4.639   6.602   6.332  1.3783 -1.0499  1.8165
 6364TIP3    H240508   4.601   6.461   6.294  0.0985 -0.3981  0.6071
 6365TIP3   OH240509   1.178   3.638  14.840 -0.0899 -0.0292  0.2379
 6365TIP3    H140510   1.243   3.584  14.794 -0.7546 -1.0297  0.4727
 6365TIP3    H240511   1.190   3.616  14.932 -1.6579 -1.1997  0.1707
 6366TIP3   OH240512   2.216   1.501  13.008 -0.1398  0.0169  0.1221
 6366TIP3    H140513   2.238   1.547  13.090 -0.9178 -1.0318  0.9385
 6366TIP3    H240514   2.278   1.428  13.005 -0.2449 -0.0604 -0.1234
 6367TIP3   OH240515   4.463   4.074   0.802  0.5090 -0.1345 -0.2480
 6367TIP3    H140516   4.487   4.133   0.873 -1.7313 -0.2019  0.6077
 6367TIP3    H240517   4.413   4.004   0.844  2.7358 -2.4545 -1.3126
 6368TIP3   OH240518   2.192   2.819   1.164  0.0127  0.5727 -0.6473
 6368TIP3    H140519   2.254   2.880   1.204 -0.7911  0.9575  0.0173
 6368TIP3    H240520   2.107   2.862   1.171 -0.4325 -0.2307 -0.9784
 6369TIP3   OH240521   1.563   0.252  12.267 -0.6643 -0.2208 -0.0422
 6369TIP3    H140522   1.508   0.322  12.301  0.4061  0.6640 -0.1070
 6369TIP3    H240523   1.585   0.199  12.344  0.2569  0.7368  0.3681
 6370TIP3   OH240524   3.587   6.035  16.636  0.2764 -0.4425 -0.3639
 6370TIP3    H140525   3.494   6.059  16.640 -0.8792 -4.4597 -1.0891
 6370TIP3    H240526   3.621   6.084  16.561 -0.8106  2.3864  0.9296
 6371TIP3   OH240527   3.563   6.105   4.766 -0.5420  0.3301 -0.0467
 6371TIP3    H140528   3.567   6.177   4.703 -2.0038  0.9327  0.5272
 6371TIP3    H240529   3.548   6.148   4.851  1.0323 -0.4923  0.6842
 6372TIP3   OH240530   2.279   3.272  15.161 -0.5080  0.0924  0.4906
 6372TIP3    H140531   2.264   3.358  15.199  0.7687  0.2784  0.5955
 6372TIP3    H240532   2.316   3.291  15.074 -1.1775 -0.3421  0.1091
 6373TIP3   OH240533   0.339   6.689  15.341 -0.0642  0.4195  0.1151
 6373TIP3    H140534   0.352   6.773  15.385  1.6021 -0.1806  0.8413
 6373TIP3    H240535   0.424   6.670  15.300 -1.0629  0.1000 -1.8489
 6374TIP3   OH240536   2.587   2.515   5.448  0.3660 -0.3285 -0.0227
 6374TIP3    H140537   2.565   2.530   5.539  1.2641  0.8221  0.0167
 6374TIP3    H240538   2.536   2.580   5.399  2.8666  1.7363 -0.0009
 6375TIP3   OH240539   0.858   2.635  12.716 -0.1684  0.3052 -0.2918
 6375TIP3    H140540   0.802   2.667  12.787 -1.3777 -0.4885 -0.8818
 6375TIP3    H240541   0.908   2.712  12.689 -0.9051  1.0009  0.2932
 6376TIP3   OH240542   1.572   5.056   0.497  0.1187  0.1184  0.9610
 6376TIP3    H140543   1.637   5.048   0.427  1.2620 -2.3583  2.2077
 6376TIP3    H240544   1.534   4.969   0.504 -0.5285  0.5335  2.8847
 6377TIP3   OH240545   3.481   2.616  10.809 -0.1752 -0.3559  0.0415
 6377TIP3    H140546   3.416   2.667  10.763 -0.1407 -0.4786 -0.1448
 6377TIP3    H240547   3.500   2.542  10.751  2.3767  1.2759 -1.3304
 6378TIP3   OH240548   1.192   1.617  11.629  0.3162  0.2726  0.1937
 6378TIP3    H140549   1.130   1.655  11.692  0.5332 -0.1155  0.6408
 6378TIP3    H240550   1.218   1.691  11.575 -1.3220  0.2554 -0.6588
 6379TIP3   OH240551   4.738   4.378   0.313  0.3588 -0.4515  0.1031
 6379TIP3    H140552   4.695   4.315   0.255 -0.0713 -0.0824  0.0150
 6379TIP3    H240553   4.705   4.463   0.284 -0.5711 -0.3282  1.4857
 6380TIP3   OH240554   3.910   1.910  17.036 -0.3258 -0.0058 -0.2418
 6380TIP3    H140555   3.852   1.985  17.029 -0.1816  0.2874  1.5061
 6380TIP3    H240556   3.995   1.942  17.004 -0.6110  0.1656 -0.8237
 6381TIP3   OH240557   0.395   5.579  13.733 -0.3736  0.1080 -0.4245
 6381TIP3    H140558   0.484   5.593  13.766 -0.1967  0.4829 -1.0479
 6381TIP3    H240559   0.400   5.496  13.686 -0.3741  0.0970 -0.4048
 6382TIP3   OH240560   6.202   0.855   0.374 -0.2824 -0.4834 -0.3788
 6382TIP3    H140561   6.183   0.945   0.403  0.5569 -0.7972  1.2472
 6382TIP3    H240562   6.291   0.861   0.339 -0.0442 -0.7754  0.1772
 6383TIP3   OH240563   5.977   3.806  10.930  0.1061  0.7034 -0.5742
 6383TIP3    H140564   5.914   3.813  11.002  0.4141 -2.8443  0.1512
 6383TIP3    H240565   5.923   3.808  10.851 -0.9653 -1.9536  0.0284
 6384TIP3   OH240566   3.617   4.331  12.799 -0.6146  0.3052 -0.4187
 6384TIP3    H140567   3.594   4.366  12.886 -1.2825 -1.2766  0.0696
 6384TIP3    H240568   3.629   4.237  12.814  2.9976  0.5695 -1.3244
 6385TIP3   OH240569   5.466   5.367   3.206  0.0437 -0.1864 -0.3562
 6385TIP3    H140570   5.401   5.353   3.137 -1.6276  0.9424  0.9551
 6385TIP3    H240571   5.493   5.458   3.196  0.1766 -0.1685  0.1595
 6386TIP3   OH240572   2.735   6.269  11.880  0.3936  0.0327  0.0815
 6386TIP3    H140573   2.710   6.288  11.789 -1.2222  0.5196  0.6158
 6386TIP3    H240574   2.673   6.202  11.909  0.8546 -0.0657  0.8632
 6387TIP3   OH240575   3.473   6.513  13.318 -0.3192 -0.1922  1.1278
 6387TIP3    H140576   3.491   6.420  13.312  0.6686 -0.0522  1.7606
 6387TIP3    H240577   3.558   6.553  13.335 -0.6951  0.8519  0.6093
 6388TIP3   OH240578   1.214   0.500  15.586  0.1868 -0.2340  0.2384
 6388TIP3    H140579   1.277   0.473  15.652  0.6605  1.5705  0.5518
 6388TIP3    H240580   1.225   0.595  15.579 -1.1651 -0.1445 -1.0747
 6389TIP3   OH240581   4.356   1.223  15.846 -0.2328 -0.2654  0.2321
 6389TIP3    H140582   4.448   1.241  15.826  0.3864 -2.3433  1.0968
 6389TIP3    H240583   4.334   1.287  15.914  1.0266 -0.6891  1.0804
 6390TIP3   OH240584   6.003   5.361   3.134  0.1660 -0.0613  0.1317
 6390TIP3    H140585   5.987   5.451   3.163 -0.7641 -0.7009  1.6963
 6390TIP3    H240586   6.091   5.341   3.168 -0.5031 -0.4563  1.6778
 6391TIP3   OH240587   3.409   4.429   3.229 -0.0782 -0.3487 -0.0731
 6391TIP3    H140588   3.379   4.508   3.185 -1.5570  0.3513  2.0946
 6391TIP3    H240589   3.335   4.403   3.284  0.7312 -2.7056 -0.0522
 6392TIP3   OH240590   5.038   2.808  11.174 -0.6635  0.1011  0.2191
 6392TIP3    H140591   5.019   2.717  11.150 -0.6063 -0.2369  1.4272
 6392TIP3    H240592   4.960   2.856  11.147 -0.1292 -0.0704 -1.6912
 6393TIP3   OH240593   0.561   1.098   1.712  0.1432  0.1451 -0.2514
 6393TIP3    H140594   0.600   1.040   1.777  2.2698 -0.2418 -1.8263
 6393TIP3    H240595   0.629   1.162   1.693 -0.2718 -0.0458 -2.4588
 6394TIP3   OH240596   3.372   3.182  11.749  0.2684  0.2240 -0.1604
 6394TIP3    H140597   3.392   3.272  11.723 -2.4222  0.7908 -0.4981
 6394TIP3    H240598   3.337   3.142  11.670  1.0353 -0.9879  0.1080
 6395TIP3   OH240599   2.360   0.683   0.887  0.2034  0.0845 -0.1922
 6395TIP3    H140600   2.297   0.665   0.957  0.6042 -0.1224  0.1193
 6395TIP3    H240601   2.429   0.734   0.930  0.6474 -0.3857 -0.3429
 6396TIP3   OH240602   2.012   4.774  14.045 -0.1304  0.6090 -0.4062
 6396TIP3    H140603   1.950   4.735  13.984  0.9829  0.4242 -1.4418
 6396TIP3    H240604   2.097   4.761  14.004  0.7122 -0.1378  1.5239
 6397TIP3   OH240605   5.786   4.137  12.608  0.8998  0.1660  0.1384
 6397TIP3    H140606   5.779   4.124  12.702  1.3249  2.1833  0.4617
 6397TIP3    H240607   5.859   4.080  12.582 -0.0120 -1.3256  0.8150
 6398TIP3   OH240608   5.311   0.267  10.119  0.1805  0.5979 -0.0074
 6398TIP3    H140609   5.363   0.289  10.196 -0.9725  0.3177  0.8745
 6398TIP3    H240610   5.354   0.190  10.081 -0.6190 -0.7281  1.7384
 6399TIP3   OH240611   4.295   2.156  13.388  0.2002 -0.0724 -0.2592
 6399TIP3    H140612   4.220   2.171  13.330  0.2290 -0.8094 -0.4927
 6399TIP3    H240613   4.353   2.230  13.372 -0.6197  0.6697  0.1477
 6400TIP3   OH240614   3.806   4.070   2.388  0.2245 -0.3574 -0.4826
 6400TIP3    H140615   3.821   4.022   2.469  1.2855 -1.8568 -1.5463
 6400TIP3    H240616   3.717   4.046   2.362 -1.2717  2.4657  1.7597
 6401TIP3   OH240617   6.662   6.410   0.863 -0.0898  0.1448  0.2132
 6401TIP3    H140618   6.639   6.319   0.844  1.5166  0.2175 -2.1871
 6401TIP3    H240619   6.701   6.407   0.950  0.5842 -1.5769 -0.1344
 6402TIP3   OH240620   0.960   3.314  11.956 -0.0282  0.2271 -0.4563
 6402TIP3    H140621   0.882   3.370  11.957 -0.3457 -0.2250  0.6469
 6402TIP3    H240622   0.945   3.250  12.026  0.6643 -0.7884 -1.2120
 6403TIP3   OH240623   1.871   5.449  16.764 -0.4560 -0.1620  0.1253
 6403TIP3    H140624   1.832   5.416  16.683 -1.5067 -2.1704  1.4041
 6403TIP3    H240625   1.798   5.485  16.814  0.2913  1.7057 -0.1028
 6404TIP3   OH240626   6.731   1.400  17.201  0.1674 -0.4288  0.0592
 6404TIP3    H140627   6.803   1.421  17.259  0.0935  0.4111 -0.1530
 6404TIP3    H240628   6.770   1.400  17.113  0.6888 -3.4583  0.2054
 6405TIP3   OH240629   3.862   6.288  14.015  0.0579 -0.2234  0.2526
 6405TIP3    H140630   3.859   6.379  13.985 -0.0822 -0.2739  0.1076
 6405TIP3    H240631   3.771   6.269  14.041 -0.0845 -0.5822 -0.5031
 6406TIP3   OH240632   6.278   1.517  14.126  0.6804  0.7183 -0.4019
 6406TIP3    H140633   6.195   1.538  14.169  1.6022 -0.4146  2.0359
 6406TIP3    H240634   6.309   1.601  14.091 -0.7788  1.4182 -0.0364
 6407TIP3   OH240635   0.287   0.869  13.632  0.9941  0.2461  0.1228
 6407TIP3    H140636   0.358   0.832  13.684 -0.3104 -1.0748  1.0313
 6407TIP3    H240637   0.250   0.938  13.687 -0.1706 -0.9242  0.8263
 6408TIP3   OH240638   0.385   0.057  15.585  0.2530 -0.3138  0.1233
 6408TIP3    H140639   0.380   0.086  15.676  0.4388 -0.2528  0.1137
 6408TIP3    H240640   0.477   0.035  15.572  0.5682  1.4383 -0.6114
 6409TIP3   OH240641   0.928   6.753  12.609  0.0355 -0.3701 -0.4824
 6409TIP3    H140642   0.855   6.769  12.549  0.2524  0.3859 -0.5485
 6409TIP3    H240643   0.922   6.823  12.674  0.1024 -0.8925  0.0985
 6410TIP3   OH240644   6.375   0.033   4.549  0.4626  1.2899  0.0907
 6410TIP3    H140645   6.311   0.089   4.592  0.2389  0.2829  1.0870
 6410TIP3    H240646   6.452   0.089   4.536  0.1000  1.9309  0.7123
 6411TIP3   OH240647   2.680   6.468   3.694  0.2986 -0.0434 -0.8720
 6411TIP3    H140648   2.761   6.463   3.645  1.1925 -0.5985  0.6470
 6411TIP3    H240649   2.683   6.394   3.755  0.3294  1.9636  1.6567
 6412TIP3   OH240650   2.090   6.095  15.250 -0.2873 -0.5337  0.5032
 6412TIP3    H140651   2.049   6.180  15.233 -1.7868 -1.4474 -0.5330
 6412TIP3    H240652   2.023   6.044  15.295  0.5951 -1.1902  1.0957
 6413TIP3   OH240653   5.550   4.507   5.040 -0.9023  0.3722 -0.0220
 6413TIP3    H140654   5.470   4.504   5.092  0.0411  1.0109  1.5121
 6413TIP3    H240655   5.619   4.479   5.100 -0.0489 -0.8756 -1.5170
 6414TIP3   OH240656   0.506   0.857   4.682  0.1129 -0.3784  0.6721
 6414TIP3    H140657   0.465   0.803   4.750 -0.7890  0.3345  0.6989
 6414TIP3    H240658   0.585   0.892   4.723 -1.3109  1.4274  1.9427
 6415TIP3   OH240659   5.946   5.119   3.241 -0.6662  0.2203  0.5979
 6415TIP3    H140660   5.927   5.194   3.184  0.3195 -0.1493 -0.2263
 6415TIP3    H240661   5.867   5.109   3.294 -1.4830  0.7415 -0.5092
 6416TIP3   OH240662   2.834   0.184  14.410  0.4148  0.3991  0.2960
 6416TIP3    H140663   2.844   0.099  14.367  1.7274  0.6596  0.0646
 6416TIP3    H240664   2.820   0.246  14.338 -0.7482  0.3675  0.4768
 6417TIP3   OH240665   6.109   0.803  14.574 -0.1658 -0.1359 -0.3768
 6417TIP3    H140666   6.071   0.768  14.493 -1.4264 -0.4993  0.3592
 6417TIP3    H240667   6.034   0.817  14.632  0.7300  0.0929  0.7517
 6418TIP3   OH240668   1.889   0.163  13.562  0.4679 -0.6870  0.9097
 6418TIP3    H140669   1.868   0.256  13.569  2.5795 -0.2474  2.1056
 6418TIP3    H240670   1.901   0.135  13.653 -0.5800 -2.2388  0.5797
 6419TIP3   OH240671   6.512   3.906  13.342  0.4126 -0.7655  0.2145
 6419TIP3    H140672   6.566   3.939  13.270 -0.5592  0.6030  0.0908
 6419TIP3    H240673   6.425   3.942  13.325 -0.0040 -1.0644  1.6643
 6420TIP3   OH240674   3.132   3.365  16.042  0.5671 -0.5670  0.2811
 6420TIP3    H140675   3.043   3.330  16.038  1.0994 -2.0706  1.2019
 6420TIP3    H240676   3.124   3.445  16.094  0.0250 -1.6349  1.8757
 6421TIP3   OH240677   0.387   4.460  16.564 -0.1807  0.0178  0.0227
 6421TIP3    H140678   0.312   4.401  16.564  0.3204 -0.6442 -2.4420
 6421TIP3    H240679   0.463   4.403  16.577  0.1659  0.3209 -0.6660
 6422TIP3   OH240680   0.969   2.768  14.423  0.2775 -0.1674 -0.0130
 6422TIP3    H140681   1.013   2.683  14.421  1.6176  0.5298 -1.4910
 6422TIP3    H240682   0.998   2.812  14.343  0.4771  2.1089  1.2720
 6423TIP3   OH240683   4.204   1.648   3.436  0.2872  0.0742  0.4693
 6423TIP3    H140684   4.189   1.710   3.365  0.5956  1.5234  1.6479
 6423TIP3    H240685   4.299   1.634   3.436  0.3707  0.6326  1.0515
 6424TIP3   OH240686   2.326   2.065   2.218 -0.0108 -0.0872 -0.8042
 6424TIP3    H140687   2.382   1.999   2.176  0.4839  1.8712 -3.4159
 6424TIP3    H240688   2.386   2.138   2.235 -1.0054  0.5504 -0.0309
 6425TIP3   OH240689   2.580   1.393  16.190  0.1804  0.1406 -0.8716
 6425TIP3    H140690   2.535   1.319  16.230 -1.1704  1.3096 -0.1910
 6425TIP3    H240691   2.673   1.374  16.201 -0.1572  0.3731  2.6696
 6426TIP3   OH240692   0.123   6.366   4.081  0.1881 -0.4568  0.5004
 6426TIP3    H140693   0.158   6.449   4.112  1.2441 -0.3568 -0.8858
 6426TIP3    H240694   0.044   6.390   4.031  0.0086 -0.3672  0.8293
 6427TIP3   OH240695   0.248   6.038   1.726  0.1013 -0.5309 -0.2159
 6427TIP3    H140696   0.266   5.970   1.660  0.2691 -0.6052 -0.0953
 6427TIP3    H240697   0.293   6.116   1.693  1.8053 -1.0844  0.7683
 6428TIP3   OH240698   2.291   4.668  14.652  0.3310 -0.3334 -0.3970
 6428TIP3    H140699   2.324   4.706  14.734  0.4636  0.8451 -0.9922
 6428TIP3    H240700   2.218   4.613  14.680  0.9364 -0.6377  0.6141
 6429TIP3   OH240701   3.394   2.146   2.905  0.2841 -0.4176 -0.0048
 6429TIP3    H140702   3.409   2.065   2.954 -0.3052 -1.5914 -1.7104
 6429TIP3    H240703   3.307   2.135   2.867  0.7954  0.3985 -1.4501
 6430TIP3   OH240704   4.701   4.276  13.222  0.6789  0.2033 -0.1602
 6430TIP3    H140705   4.733   4.200  13.270  0.6419 -0.8587 -1.7563
 6430TIP3    H240706   4.607   4.262  13.214  0.3911  1.3461  1.1238
 6431TIP3   OH240707   2.479   0.783  13.432  0.3126 -0.5358 -0.1534
 6431TIP3    H140708   2.442   0.695  13.426  0.6282 -0.8021  1.5947
 6431TIP3    H240709   2.506   0.792  13.523  0.5750  1.2616 -0.3844
 6432TIP3   OH240710   4.090   3.038  12.294  0.2441  0.0455 -1.1421
 6432TIP3    H140711   4.020   2.973  12.297 -2.3449  2.7057 -0.6674
 6432TIP3    H240712   4.077   3.083  12.210 -0.3509  2.3340  0.1322
 6433TIP3   OH240713   3.153   0.918   4.046 -0.5011 -0.5525 -0.8297
 6433TIP3    H140714   3.174   0.953   3.960 -0.8453 -0.9941 -1.0972
 6433TIP3    H240715   3.061   0.940   4.059  0.0752  1.2888  0.2997
 6434TIP3   OH240716   3.630   3.809  15.329 -0.3117  0.3395 -0.0945
 6434TIP3    H140717   3.579   3.882  15.294  0.4926  1.3239  0.7911
 6434TIP3    H240718   3.575   3.771  15.397 -0.2268  0.8611  0.2638
 6435TIP3   OH240719   3.524   0.677   2.614 -0.2434  0.7939 -0.6583
 6435TIP3    H140720   3.582   0.699   2.687  0.6002  1.0946 -1.4106
 6435TIP3    H240721   3.576   0.696   2.536 -1.1767  0.5698 -1.3373
 6436TIP3   OH240722   2.451   0.103  16.775 -0.4448  0.4718  0.4826
 6436TIP3    H140723   2.421   0.193  16.767 -2.5727 -0.2026  0.7046
 6436TIP3    H240724   2.472   0.076  16.685  0.0141  1.1067  0.3975
 6437TIP3   OH240725   5.578   0.463  13.535 -0.2229  0.5248 -1.2510
 6437TIP3    H140726   5.628   0.383  13.521  0.6221  0.7863  0.2040
 6437TIP3    H240727   5.579   0.477  13.630 -1.4417  1.5690 -1.3655
 6438TIP3   OH240728   4.868   0.243   5.224  0.6458 -0.0998  0.6558
 6438TIP3    H140729   4.915   0.282   5.150  2.2123 -1.6600  0.7978
 6438TIP3    H240730   4.928   0.176   5.257 -1.2603 -1.3890  1.5275
 6439TIP3   OH240731   5.178   2.467   2.251 -0.4103 -0.5589  0.1517
 6439TIP3    H140732   5.083   2.469   2.261 -0.2038  2.0252  2.0824
 6439TIP3    H240733   5.203   2.379   2.281 -2.1730 -1.3473 -0.5890
 6440TIP3   OH240734   4.814   6.161  11.423  0.0382  0.7389 -0.1147
 6440TIP3    H140735   4.785   6.249  11.447  0.5133  1.3558 -1.7380
 6440TIP3    H240736   4.902   6.154  11.460  0.0378  0.9742 -0.0681
 6441TIP3   OH240737   2.833   5.182  15.989  0.0306 -0.1088  0.4024
 6441TIP3    H140738   2.813   5.253  15.929  0.4997 -0.3469 -0.0411
 6441TIP3    H240739   2.787   5.204  16.070  0.3464  0.7994  0.3341
 6442TIP3   OH240740   0.102   2.589   6.506 -0.0024  0.3365  0.7579
 6442TIP3    H140741   0.053   2.545   6.576 -0.7169 -0.9511 -0.5166
 6442TIP3    H240742   0.189   2.549   6.509  0.3204  1.1080  1.6574
 6443TIP3   OH240743   0.269   6.718  13.915  0.3258 -0.1700 -0.0504
 6443TIP3    H140744   0.361   6.702  13.936  0.7885  2.7850  0.3180
 6443TIP3    H240745   0.227   6.737  13.999 -0.2996  0.0874 -0.4132
 6444TIP3   OH240746   2.691   1.356  11.979  0.1199  0.2652 -0.1784
 6444TIP3    H140747   2.615   1.396  11.937 -0.4255 -0.2337  0.3247
 6444TIP3    H240748   2.669   1.353  12.072  1.5648  1.8799  0.2348
 6445TIP3   OH240749   5.169   2.702   5.321  0.0868  0.1176  0.3807
 6445TIP3    H140750   5.197   2.611   5.313 -0.9847 -0.3574  1.7464
 6445TIP3    H240751   5.075   2.697   5.337 -0.1353  1.5105 -0.4293
 6446TIP3   OH240752   2.938   6.319   1.876 -0.6162 -0.4730 -0.4442
 6446TIP3    H140753   2.846   6.320   1.850 -0.2219 -0.1927 -1.8667
 6446TIP3    H240754   2.956   6.410   1.901 -0.8877 -0.6557  0.4198
 6447TIP3   OH240755   2.800   5.328  13.293 -0.0588  0.0375 -0.1836
 6447TIP3    H140756   2.783   5.360  13.204 -0.0151  1.3453  0.2679
 6447TIP3    H240757   2.866   5.260  13.281 -2.1934 -1.9022 -1.4650
 6448TIP3   OH240758   3.301   4.944  16.447  0.3115  0.4090  0.2297
 6448TIP3    H140759   3.385   4.982  16.473  0.9003 -0.6389 -0.0902
 6448TIP3    H240760   3.252   4.936  16.529  0.5304  0.9929  0.4226
 6449TIP3   OH240761   2.931   4.198   5.162  0.3638  0.0879  0.0427
 6449TIP3    H140762   2.892   4.278   5.198  0.1940 -0.3472  0.8294
 6449TIP3    H240763   2.859   4.134   5.161  0.6919 -0.2845  0.1250
 6450TIP3   OH240764   1.044   5.716  12.326 -0.6575 -0.1937 -0.3287
 6450TIP3    H140765   1.095   5.729  12.407  4.8117 -0.1892 -3.5107
 6450TIP3    H240766   1.022   5.623  12.327  1.7795 -0.8139 -0.0209
 6451TIP3   OH240767   1.502   6.351  12.853 -0.6353 -0.1302 -0.0901
 6451TIP3    H140768   1.489   6.405  12.932 -1.3335 -1.3756  0.6544
 6451TIP3    H240769   1.523   6.415  12.785 -1.3591  1.0903  0.7969
 6452TIP3   OH240770   6.159   0.282  14.614  0.0995 -0.0086 -0.1550
 6452TIP3    H140771   6.182   0.332  14.693 -0.6760  0.8063 -0.4301
 6452TIP3    H240772   6.124   0.200  14.647  0.0837  0.1963  0.3439
 6453TIP3   OH240773   6.274   2.345  11.766 -0.3613  0.7926  0.5713
 6453TIP3    H140774   6.359   2.373  11.732 -0.7479 -1.0725 -2.1738
 6453TIP3    H240775   6.290   2.324  11.858  2.1038  0.6927  0.1435
 6454TIP3   OH240776   0.584   4.396  12.829  0.5620  0.4983 -0.5061
 6454TIP3    H140777   0.660   4.362  12.781  2.1422  1.6298  1.1214
 6454TIP3    H240778   0.514   4.333  12.811  2.4600 -1.7157 -0.3520
 6455TIP3   OH240779   5.787   2.067  12.918  0.2974 -0.1470  0.3170
 6455TIP3    H140780   5.871   2.113  12.909  2.1539 -3.3941  0.2406
 6455TIP3    H240781   5.778   2.053  13.012  0.2750 -0.5961  0.2452
 6456TIP3   OH240782   3.860   3.698  10.932  0.7429  0.6636  0.1622
 6456TIP3    H140783   3.899   3.713  10.846 -0.0379  1.1911 -0.1023
 6456TIP3    H240784   3.772   3.733  10.925 -0.2683 -1.7119  0.3369
 6457TIP3   OH240785   5.506   5.339   2.810  1.1212  0.3219  0.7328
 6457TIP3    H140786   5.509   5.424   2.852 -0.8542  1.0101 -0.4341
 6457TIP3    H240787   5.596   5.306   2.815  1.4292  1.4305  3.2526
 6458TIP3   OH240788   2.623   0.151  11.575 -0.4200  1.1254  0.1831
 6458TIP3    H140789   2.639   0.240  11.543  0.6461  0.1887 -1.9599
 6458TIP3    H240790   2.700   0.131  11.629 -0.1676  1.1185 -0.1810
 6459TIP3   OH240791   4.384   5.142   1.329 -0.0261  0.0133  0.1988
 6459TIP3    H140792   4.380   5.109   1.239  0.0204  0.2761  0.1001
 6459TIP3    H240793   4.478   5.155   1.346 -0.1481  1.5388 -0.2882
 6460TIP3   OH240794   0.277   1.112   2.175 -0.1301 -0.5084  0.5628
 6460TIP3    H140795   0.371   1.111   2.191 -0.0227 -0.4320 -0.0655
 6460TIP3    H240796   0.266   1.066   2.092 -0.3650  2.1315 -0.9071
 6461TIP3   OH240797   3.373   1.378  11.433  0.4978  0.5165  0.3048
 6461TIP3    H140798   3.306   1.385  11.501  3.2178  1.1828  3.0265
 6461TIP3    H240799   3.406   1.288  11.439 -0.9438 -0.2152 -1.8906
 6462TIP3   OH240800   0.325   0.568  12.384 -0.0581  0.0495 -0.5201
 6462TIP3    H140801   0.267   0.501  12.347  0.6688 -0.7557 -0.2293
 6462TIP3    H240802   0.385   0.589  12.312  1.1677 -1.2999  0.0777
 6463TIP3   OH240803   1.711   4.730   1.364  0.0586 -0.4222 -0.4958
 6463TIP3    H140804   1.756   4.654   1.401 -0.2385 -0.0563  0.6173
 6463TIP3    H240805   1.782   4.784   1.329  0.5026  0.0786  1.1294
 6464TIP3   OH240806   2.676   4.822   1.017 -0.5412 -0.0486  0.2288
 6464TIP3    H140807   2.596   4.856   1.058 -0.5968  1.2276 -0.9053
 6464TIP3    H240808   2.747   4.861   1.068 -0.6252 -1.1112  1.1814
 6465TIP3   OH240809   2.634   5.567   2.392  0.0941  0.2438  0.7171
 6465TIP3    H140810   2.679   5.517   2.461 -0.9343  1.1773  2.0848
 6465TIP3    H240811   2.561   5.610   2.437 -0.3103  1.2595 -0.8721
 6466TIP3   OH240812   4.105   4.809   5.452 -0.3070  0.3976 -0.1091
 6466TIP3    H140813   4.140   4.827   5.364  0.9007  0.5633  0.3893
 6466TIP3    H240814   4.077   4.895   5.484 -0.8029  0.3281 -0.3534
 6467TIP3   OH240815   0.970   4.065   4.568  0.2854  0.2152 -0.0357
 6467TIP3    H140816   0.943   3.974   4.555  0.7092  0.1723 -0.6757
 6467TIP3    H240817   0.912   4.098   4.637 -0.7998 -0.1350 -0.7545
 6468TIP3   OH240818   2.013   2.685   2.999  0.5897  0.0596  0.0166
 6468TIP3    H140819   1.937   2.700   3.055  1.0835  0.9470  0.4379
 6468TIP3    H240820   1.990   2.605   2.950  0.0390 -0.5438  1.2446
 6469TIP3   OH240821   1.763   1.929   2.870 -0.2783 -0.6353  0.7982
 6469TIP3    H140822   1.812   1.888   2.942  1.2990  1.3672  0.8880
 6469TIP3    H240823   1.818   2.002   2.842 -2.0328  0.0844 -0.8339
 6470TIP3   OH240824   0.713   1.975   1.808  0.5269 -0.5972  0.1227
 6470TIP3    H140825   0.732   1.905   1.744  1.5286  1.1303 -1.5394
 6470TIP3    H240826   0.714   2.055   1.756 -1.1968  0.6138  1.9027
 6471TIP3   OH240827   5.764   0.300   0.368 -0.9350  0.0337  0.0215
 6471TIP3    H140828   5.719   0.275   0.287  1.1995 -0.5202 -1.0401
 6471TIP3    H240829   5.750   0.227   0.427 -0.5273 -0.6227 -0.6850
 6472TIP3   OH240830   2.960   5.935  11.941  0.2356  0.4656 -0.0430
 6472TIP3    H140831   3.018   6.010  11.956  1.7099 -0.3790 -1.3246
 6472TIP3    H240832   3.001   5.888  11.867 -0.3496 -1.9000  1.0998
 6473TIP3   OH240833   1.177   5.309  14.530  0.5583 -0.0909 -0.7175
 6473TIP3    H140834   1.176   5.225  14.577 -0.5234  1.5032  2.2135
 6473TIP3    H240835   1.229   5.291  14.451 -0.3862 -3.7337 -0.6222
 6474TIP3   OH240836   5.371   5.367   3.629  0.1215 -0.0562  0.4055
 6474TIP3    H140837   5.308   5.328   3.691 -0.1574  0.1620  0.2570
 6474TIP3    H240838   5.397   5.449   3.670 -0.4368  0.3228 -0.0033
 6475TIP3   OH240839   0.750   1.867   0.080 -0.2351 -0.3424  0.1028
 6475TIP3    H140840   0.664   1.834   0.107 -1.1430  1.5338 -0.4222
 6475TIP3    H240841   0.810   1.794   0.098 -1.6488 -1.0615  2.0821
 6476TIP3   OH240842   2.701   2.403   2.850 -0.0186 -0.1588 -0.3653
 6476TIP3    H140843   2.692   2.355   2.768  1.0223  0.5703 -0.9220
 6476TIP3    H240844   2.634   2.472   2.846 -0.8824 -0.9700  0.0164
 6477TIP3   OH240845   0.376   5.809   1.595 -0.2958 -0.2786 -0.4746
 6477TIP3    H140846   0.292   5.783   1.558 -0.0748 -0.7948 -0.6239
 6477TIP3    H240847   0.382   5.760   1.677  1.7730 -3.6493 -2.5248
 6478TIP3   OH240848   1.859   0.934  11.993  0.5071 -0.1873  0.0594
 6478TIP3    H140849   1.942   0.970  12.022  0.4614  0.5829 -0.7435
 6478TIP3    H240850   1.793   0.983  12.041  0.4566  0.5953 -0.7900
 6479TIP3   OH240851   3.365   4.313  13.443 -0.2323 -0.4943 -0.6850
 6479TIP3    H140852   3.344   4.306  13.536 -0.2704  0.2483 -0.6341
 6479TIP3    H240853   3.460   4.301  13.439 -0.1496  0.0675 -0.4812
 6480TIP3   OH240854   2.166   1.854   1.446 -0.2779  0.4724 -0.3245
 6480TIP3    H140855   2.103   1.813   1.504 -0.0822 -0.2512 -0.6131
 6480TIP3    H240856   2.171   1.795   1.370 -1.3584  1.9791 -1.5759
 6481TIP3   OH240857   6.726   4.448   3.678 -0.4660  0.5040  0.4208
 6481TIP3    H140858   6.734   4.353   3.678 -0.2327  0.5177 -0.6818
 6481TIP3    H240859   6.676   4.468   3.758 -0.0050 -0.4904  0.9655
 6482TIP3   OH240860   2.513   1.660  14.816 -0.0761 -0.1909  0.2637
 6482TIP3    H140861   2.530   1.577  14.861 -0.2152 -0.1410  0.4059
 6482TIP3    H240862   2.519   1.726  14.885  1.2383  0.0427 -0.0589
 6483TIP3   OH240863   4.892   1.821   4.353  0.2549 -0.0690  0.8347
 6483TIP3    H140864   4.984   1.847   4.345 -0.1235  1.0409  0.0256
 6483TIP3    H240865   4.874   1.772   4.272 -0.0930  0.4293  0.6078
 6484TIP3   OH240866   4.067   0.241  16.570  0.5452  0.3773  0.5262
 6484TIP3    H140867   4.085   0.150  16.594 -2.9739 -0.9416 -1.5502
 6484TIP3    H240868   4.120   0.256  16.492 -4.4201 -2.4284 -3.6135
 6485TIP3   OH240869   4.747   6.540  16.460  0.9498 -0.6600  0.3394
 6485TIP3    H140870   4.676   6.560  16.399  0.5809 -0.7879  0.7270
 6485TIP3    H240871   4.738   6.605  16.529  2.0398  0.1833 -0.2931
 6486TIP3   OH240872   2.870   2.908  15.502  0.1959  0.5037 -0.5950
 6486TIP3    H140873   2.824   2.951  15.574 -1.1044 -0.1417 -1.0192
 6486TIP3    H240874   2.832   2.821  15.498  1.9804 -0.3083 -0.5132
 6487TIP3   OH240875   2.423   3.403   5.689  0.4731  0.0639 -0.3847
 6487TIP3    H140876   2.456   3.433   5.773 -3.9444 -1.4931  2.1075
 6487TIP3    H240877   2.470   3.321   5.673  1.1214  0.1947  0.7694
 6488TIP3   OH240878   1.480   6.118  15.857 -0.0622  0.8428  0.1942
 6488TIP3    H140879   1.561   6.098  15.810  1.7946  0.1122  3.5993
 6488TIP3    H240880   1.493   6.206  15.893  0.0805 -0.0846  2.4726
 6489TIP3   OH240881   1.131   4.856   3.824 -0.2265  0.3802  0.8645
 6489TIP3    H140882   1.169   4.929   3.872 -1.2774  3.0891 -2.2520
 6489TIP3    H240883   1.182   4.850   3.744 -1.6619 -0.7877  0.0053
 6490TIP3   OH240884   1.959   5.286   3.953 -0.3891  0.1489  0.1221
 6490TIP3    H140885   1.925   5.254   4.037 -0.8397  1.7789  0.5603
 6490TIP3    H240886   1.949   5.381   3.957  2.9987  0.5762 -0.2611
 6491TIP3   OH240887   6.776   0.822  12.073 -0.0590  0.6198  0.4025
 6491TIP3    H140888   6.720   0.757  12.031  1.5324 -0.9124  0.5927
 6491TIP3    H240889   6.855   0.826  12.018  1.0605  0.2929  1.9459
 6492TIP3   OH240890   5.072   6.212  16.319  0.4643  0.1555  0.3824
 6492TIP3    H140891   5.161   6.240  16.296  0.4018  0.7627  0.8705
 6492TIP3    H240892   5.041   6.166  16.241  0.7862  0.9466 -0.2228
 6493TIP3   OH240893   3.924   4.658   1.302 -0.2638 -0.0676 -0.6549
 6493TIP3    H140894   3.865   4.597   1.258 -0.6407 -0.5037  0.4367
 6493TIP3    H240895   3.868   4.708   1.361  0.7461 -1.9114  1.9179
 6494TIP3   OH240896   2.131   5.419  13.203 -0.5662 -0.0453  0.5081
 6494TIP3    H140897   2.124   5.514  13.199  0.4212 -0.0037 -0.2037
 6494TIP3    H240898   2.048   5.391  13.243 -0.9303  1.0940  0.5649
 6495TIP3   OH240899   0.113   2.401  14.925 -0.8091  0.6224  0.1770
 6495TIP3    H140900   0.187   2.430  14.871 -1.0611  1.6963  0.4002
 6495TIP3    H240901   0.137   2.313  14.952 -1.0625 -0.3033 -2.4069
 6496TIP3   OH240902   0.429   5.730   2.509  1.0853  0.1517  0.5528
 6496TIP3    H140903   0.417   5.798   2.575  1.0825  0.9127 -0.2321
 6496TIP3    H240904   0.340   5.713   2.476  0.8696 -1.3624  1.8618
 6497TIP3   OH240905   1.829   1.890   1.767 -0.2233 -0.5341  0.1683
 6497TIP3    H140906   1.822   1.979   1.799  0.4258  0.0664 -1.3173
 6497TIP3    H240907   1.923   1.869   1.773  0.3521  0.5752 -3.8283
 6498TIP3   OH240908   4.413   2.533   6.353  0.0876  0.1192  0.1810
 6498TIP3    H140909   4.328   2.503   6.386 -0.3315  0.3813 -0.6579
 6498TIP3    H240910   4.427   2.480   6.274 -0.0351  1.1794 -0.5631
 6499TIP3   OH240911   1.830   0.891   5.639  0.0009 -0.0289 -0.1646
 6499TIP3    H140912   1.895   0.851   5.696  1.3612  1.4207 -0.6571
 6499TIP3    H240913   1.790   0.818   5.592 -0.1868 -1.1221  1.6273
 6500TIP3   OH240914   1.780   3.579  16.141  0.4428 -0.4485  0.0462
 6500TIP3    H140915   1.750   3.530  16.064 -0.4424  1.5881 -0.9466
 6500TIP3    H240916   1.802   3.666  16.107  0.0107  0.4993  2.0875
 6501TIP3   OH240917   3.422   4.498  15.381  0.7208 -0.4871  0.1335
 6501TIP3    H140918   3.348   4.547  15.344  1.2659  0.3459  0.1455
 6501TIP3    H240919   3.386   4.411  15.397 -0.8011  0.4069  1.8706
 6502TIP3   OH240920   4.897   2.658  11.990  0.3110 -0.2655  0.3528
 6502TIP3    H140921   4.863   2.588  11.935 -0.6252 -0.6706  1.4176
 6502TIP3    H240922   4.832   2.728  11.983  0.9705  0.2922 -0.2814
 6503TIP3   OH240923   1.545   3.501  15.017 -0.4075 -0.3679  0.1259
 6503TIP3    H140924   1.578   3.590  15.004  1.1730 -0.8635  0.5984
 6503TIP3    H240925   1.609   3.446  14.972 -0.3165 -1.3888  1.4875
 6504TIP3   OH240926   5.911   3.839   4.254  0.3358 -0.1353  0.5110
 6504TIP3    H140927   5.962   3.783   4.195 -0.6568 -0.1529 -0.3559
 6504TIP3    H240928   5.852   3.887   4.195 -1.2740 -0.7915  1.5670
 6505TIP3   OH240929   2.462   5.048   2.081 -0.7452  1.5126  0.4729
 6505TIP3    H140930   2.370   5.053   2.107 -0.6751  2.7078  0.5313
 6505TIP3    H240931   2.483   5.137   2.052  0.6368  1.4774  1.3171
 6506TIP3   OH240932   3.957   0.266   3.802  0.5721  0.4454  0.1843
 6506TIP3    H140933   3.895   0.338   3.802 -1.0521 -0.9167 -0.2416
 6506TIP3    H240934   3.903   0.188   3.787  2.7615 -0.4150 -4.0325
 6507TIP3   OH240935   0.415   3.227  12.054  0.4595  0.3376 -0.3003
 6507TIP3    H140936   0.365   3.257  11.978 -2.2871 -1.7227  0.6145
 6507TIP3    H240937   0.497   3.193  12.018 -0.7021 -0.3654 -2.3227
 6508TIP3   OH240938   0.987   5.992  11.905 -0.0840 -0.3078 -0.3102
 6508TIP3    H140939   0.980   5.925  11.973 -0.7197 -1.2934 -1.3387
 6508TIP3    H240940   1.065   6.042  11.929  1.2071 -2.2790 -0.2913
 6509TIP3   OH240941   0.888   3.241  12.974  0.0550  0.3828 -0.0299
 6509TIP3    H140942   0.890   3.196  13.059 -0.7141 -0.5523 -0.4864
 6509TIP3    H240943   0.899   3.170  12.910 -3.1065  0.5346 -0.8487
 6510TIP3   OH240944   2.384   6.423  14.848  0.1342  0.1765 -0.2942
 6510TIP3    H140945   2.410   6.403  14.758  2.2314  0.0118  0.3366
 6510TIP3    H240946   2.299   6.381  14.858  0.2581 -0.5026 -1.9326
 6511TIP3   OH240947   1.427   6.371   0.884  0.0691 -0.4146 -0.3115
 6511TIP3    H140948   1.451   6.317   0.809 -2.6754 -1.5216 -0.4227
 6511TIP3    H240949   1.465   6.325   0.959  0.5056 -0.7377 -0.7237
 6512TIP3   OH240950   1.743   5.326  11.461 -0.7603 -0.1629 -0.4633
 6512TIP3    H140951   1.684   5.381  11.514 -1.4322 -1.0723 -0.2552
 6512TIP3    H240952   1.703   5.327  11.374 -1.1352 -0.8452 -0.3024
 6513TIP3   OH240953   2.564   0.016  16.210 -0.0857 -0.0222  0.4168
 6513TIP3    H140954   2.556   0.079  16.138  0.2781  0.2740  0.6357
 6513TIP3    H240955   2.474  -0.010  16.229 -0.2919  0.9073  0.7403
 6514TIP3   OH240956   6.283   1.298  11.752 -0.3058  0.2236  0.6294
 6514TIP3    H140957   6.283   1.393  11.744  2.6182  0.2953  0.7027
 6514TIP3    H240958   6.326   1.268  11.672  0.5125 -0.9030  1.4786
 6515TIP3   OH240959   0.251   6.562   1.092 -0.5352  0.5302 -0.2151
 6515TIP3    H140960   0.337   6.588   1.060 -0.8389  2.4658  0.4844
 6515TIP3    H240961   0.193   6.632   1.064 -1.1019  1.4725  3.1346
 6516TIP3   OH240962   3.203   4.319   2.607  0.2507 -0.3873 -0.0387
 6516TIP3    H140963   3.214   4.279   2.693 -1.2519 -1.3040 -0.2376
 6516TIP3    H240964   3.276   4.285   2.555  0.7907 -0.3449  0.6850
 6517TIP3   OH240965   1.327   0.074  13.890  0.7584 -0.4674  0.0170
 6517TIP3    H140966   1.399   0.107  13.837  0.1014  0.4306 -0.3341
 6517TIP3    H240967   1.298   0.150  13.942  0.3312 -0.9159  0.4421
 6518TIP3   OH240968   1.177   5.533  13.607 -0.0552  0.1588 -0.2320
 6518TIP3    H140969   1.190   5.561  13.697 -1.0029  2.1946 -0.7050
 6518TIP3    H240970   1.251   5.570  13.559  0.0052 -0.2299 -0.4445
 6519TIP3   OH240971   4.086   2.361   0.108  0.2671 -0.0917 -0.0558
 6519TIP3    H140972   4.040   2.314   0.177  0.2973 -0.8411 -0.5398
 6519TIP3    H240973   4.178   2.335   0.118  0.4999  0.9399  0.5370
 6520TIP3   OH240974   0.085   4.440  12.640 -0.3971 -0.1279 -0.5205
 6520TIP3    H140975   0.073   4.509  12.706  1.5809 -0.0748 -0.1934
 6520TIP3    H240976   0.113   4.487  12.562  0.1269 -0.4847 -0.5452
 6521TIP3   OH240977   2.129   0.742   2.884  0.5041  0.2049  0.2963
 6521TIP3    H140978   2.163   0.653   2.896  0.5389  0.4125  1.8348
 6521TIP3    H240979   2.197   0.799   2.921 -0.1535  0.7919  0.6094
 6522TIP3   OH240980   2.786   6.519   4.157  0.1428 -0.5542  0.1975
 6522TIP3    H140981   2.719   6.524   4.090  0.2409  0.3228  0.1520
 6522TIP3    H240982   2.783   6.605   4.201  1.5765 -0.3060 -0.1512
 6523TIP3   OH240983   3.364   0.342   3.919  0.3200 -0.1848 -0.2735
 6523TIP3    H140984   3.298   0.273   3.920 -1.6939  1.6887  0.6734
 6523TIP3    H240985   3.318   0.419   3.888  2.0413  1.2042  0.5004
 6524TIP3   OH240986   5.747   4.064   4.511 -0.1571  0.3689  0.6350
 6524TIP3    H140987   5.839   4.090   4.517  0.4352 -1.6348  0.4773
 6524TIP3    H240988   5.716   4.102   4.429  0.7492  0.4203  0.3131
 6525TIP3   OH240989   4.995   0.264   1.444 -0.1299 -0.0093  0.4932
 6525TIP3    H140990   5.053   0.201   1.486 -1.9276 -2.2921 -0.3552
 6525TIP3    H240991   4.907   0.241   1.475 -1.0446  0.7910 -1.3906
 6526TIP3   OH240992   2.345   6.537   2.456 -0.6065 -0.0596  0.4294
 6526TIP3    H140993   2.261   6.541   2.502 -0.1398  1.4445  1.1601
 6526TIP3    H240994   2.376   6.627   2.455  0.2934 -0.3681 -1.1694
 6527TIP3   OH240995   0.264   4.375  14.827  0.3039 -0.4141 -0.4825
 6527TIP3    H140996   0.247   4.464  14.858  0.0641 -0.5406 -0.2586
 6527TIP3    H240997   0.333   4.342  14.885 -1.2318 -1.2148  0.9129
 6528TIP3   OH240998   0.834   5.465  16.832 -0.3644 -0.4585 -0.2722
 6528TIP3    H140999   0.801   5.397  16.892  0.5221 -1.1079 -0.5130
 6528TIP3    H241000   0.809   5.548  16.874  1.8538 -0.8560  1.9317
 6529TIP3   OH241001   5.480   0.795  12.448  0.2820  0.2244  0.0400
 6529TIP3    H141002   5.420   0.870  12.445  0.5511  0.4097 -1.0113
 6529TIP3    H241003   5.509   0.791  12.539  0.7113  1.7728 -0.0169
 6530TIP3   OH241004   2.049   5.422  12.553  0.3419 -0.9423 -0.4759
 6530TIP3    H141005   2.018   5.511  12.567  0.5178 -0.8898 -0.4134
 6530TIP3    H241006   2.144   5.431  12.548  0.3023 -1.0110 -1.3258
 6531TIP3   OH241007   6.704   2.177   1.712  0.0542  0.5553 -0.6880
 6531TIP3    H141008   6.798   2.165   1.705 -0.2594 -1.3147 -2.0200
 6531TIP3    H241009   6.666   2.107   1.659 -2.1274  0.0295  1.4530
 6532TIP3   OH241010   0.039   3.036   3.338 -0.4067 -0.4096 -0.3155
 6532TIP3    H141011   0.125   3.077   3.332 -1.6403  2.3701  0.5079
 6532TIP3    H241012   0.015   3.018   3.247  0.5331 -0.1686 -0.6172
 6533TIP3   OH241013   0.009   0.131  13.448  0.5804  0.3546 -0.0930
 6533TIP3    H141014  -0.020   0.041  13.436  0.4129  0.5442 -1.1176
 6533TIP3    H241015   0.047   0.132  13.536  0.8741 -0.7843 -0.1995
 6534TIP3   OH241016   3.244   5.089   4.235 -0.2385  0.1032 -0.5057
 6534TIP3    H141017   3.200   5.088   4.150  0.2743  0.6425 -0.7853
 6534TIP3    H241018   3.173   5.086   4.299 -0.5462 -2.5520 -0.9424
 6535TIP3   OH241019   5.932   0.392   2.684  0.2317 -0.5779  0.0339
 6535TIP3    H141020   5.860   0.419   2.627  1.1891  0.1076 -0.8843
 6535TIP3    H241021   5.914   0.434   2.768  0.6020  1.2789 -0.7818
 6536TIP3   OH241022   2.425   6.176  13.953 -0.3548 -0.1977 -0.0032
 6536TIP3    H141023   2.399   6.116  14.023 -3.1771  1.3743  0.3736
 6536TIP3    H241024   2.481   6.240  13.996  1.3515 -1.6140 -0.0777
 6537TIP3   OH241025   2.394   1.542   1.744 -0.6934 -0.5848 -0.1388
 6537TIP3    H141026   2.393   1.583   1.830 -0.9342 -0.3863 -0.2344
 6537TIP3    H241027   2.464   1.587   1.697 -0.1879 -1.0791  0.1367
 6538TIP3   OH241028   4.585   3.831  16.872 -0.9371 -0.2348 -0.9801
 6538TIP3    H141029   4.497   3.829  16.836 -0.3990 -2.2790 -2.2852
 6538TIP3    H241030   4.609   3.738  16.881  1.0853  0.2957 -0.6625
 6539TIP3   OH241031   1.214   0.978  13.047 -0.3405 -0.8676  0.2926
 6539TIP3    H141032   1.304   0.955  13.025  0.1006  0.6032  0.5357
 6539TIP3    H241033   1.213   0.986  13.142 -0.5173  0.0007  0.2208
 6540TIP3   OH241034   6.746   1.599   4.553  0.1416  0.2814 -0.3425
 6540TIP3    H141035   6.723   1.522   4.501  0.4368 -0.3097  0.4014
 6540TIP3    H241036   6.667   1.618   4.604  0.3976 -0.1353  0.2160
 6541TIP3   OH241037   0.998   1.282  16.330 -0.1534 -0.0102  0.2807
 6541TIP3    H141038   1.004   1.259  16.423 -1.2566  4.2811  1.5050
 6541TIP3    H241039   0.907   1.267  16.307 -1.0075  3.4154  1.2309
 6542TIP3   OH241040   5.715   1.111  16.426  0.4419 -0.4016 -0.1948
 6542TIP3    H141041   5.769   1.185  16.397 -0.5600  1.5403  2.6636
 6542TIP3    H241042   5.635   1.152  16.461 -0.9735 -2.9699 -0.2958
 6543TIP3   OH241043   0.368   3.790   4.091 -0.4027 -0.0173  0.4672
 6543TIP3    H141044   0.306   3.717   4.089 -0.7017  0.2448 -0.2195
 6543TIP3    H241045   0.443   3.757   4.141 -1.0018 -0.4089  1.1119
 6544TIP3   OH241046   1.226   1.454   6.394  0.1732  0.6152 -0.2829
 6544TIP3    H141047   1.180   1.397   6.332 -0.7051 -0.2391  1.1287
 6544TIP3    H241048   1.309   1.474   6.351  0.3815 -1.5289 -0.9249
 6545TIP3   OH241049   1.414   3.923   5.676 -0.3409 -0.4056 -0.1618
 6545TIP3    H141050   1.447   4.005   5.639 -0.3624  0.5361  1.7999
 6545TIP3    H241051   1.474   3.856   5.644 -0.2041  0.4104 -1.6329
 6546TIP3   OH241052   6.033   2.770   5.299  0.4389 -0.2357 -0.2089
 6546TIP3    H141053   6.019   2.694   5.242  0.8926  1.5503 -2.7932
 6546TIP3    H241054   6.066   2.838   5.240  0.0550  1.9682  2.0453
 6547TIP3   OH241055   6.445   2.133  12.606  0.1802  0.6522  0.2941
 6547TIP3    H141056   6.532   2.122  12.645 -0.3558 -3.2367  0.5571
 6547TIP3    H241057   6.422   2.047  12.573 -4.3937  1.1037  1.9370
 6548TIP3   OH241058   4.857   4.301   5.975 -0.2231 -0.0607 -0.3448
 6548TIP3    H141059   4.794   4.268   6.039  2.5672  0.1625  2.6518
 6548TIP3    H241060   4.858   4.395   5.989  1.2829 -0.1366  0.1838
 6549TIP3   OH241061   4.496   3.579  16.930  0.1662  0.3807  0.3095
 6549TIP3    H141062   4.561   3.517  16.964  1.3607  0.8484 -1.0569
 6549TIP3    H241063   4.460   3.622  17.009  0.1559 -1.2081  1.1878
 6550TIP3   OH241064   4.591   3.523  10.945 -0.0685 -0.3312 -0.1158
 6550TIP3    H141065   4.594   3.503  10.851 -0.9256 -1.6645  0.1370
 6550TIP3    H241066   4.514   3.579  10.955 -2.7113 -3.8866  0.4458
 6551TIP3   OH241067   1.012   6.498  13.221  0.5709  0.4478 -0.6975
 6551TIP3    H141068   0.969   6.465  13.300 -0.1408 -1.7158 -1.9348
 6551TIP3    H241069   1.014   6.593  13.232 -1.8331  0.3618  0.7544
 6552TIP3   OH241070   0.970   4.879  17.064 -0.5938  1.1478  0.4021
 6552TIP3    H141071   1.033   4.903  16.996 -2.5692  2.8617 -0.8799
 6552TIP3    H241072   1.023   4.865  17.142  1.6972 -0.4902 -1.3786
 6553TIP3   OH241073   2.742   3.291   0.052 -0.3443 -0.3183 -0.0336
 6553TIP3    H141074   2.801   3.359   0.019  0.7591 -0.8327  0.8480
 6553TIP3    H241075   2.681   3.339   0.109 -0.9897  0.2587 -1.1936
 6554TIP3   OH241076   5.941   5.054   2.448 -0.1547  0.3536  0.3184
 6554TIP3    H141077   5.972   5.016   2.366  1.8142 -0.8688  1.5995
 6554TIP3    H241078   5.955   5.148   2.437  0.3141  0.1788 -0.6429
 6555TIP3   OH241079   0.003   4.930   0.689  0.3461 -0.1025 -0.2032
 6555TIP3    H141080  -0.092   4.928   0.693  0.3887 -0.0976  1.4899
 6555TIP3    H241081   0.024   4.991   0.618 -0.9046 -0.2432 -0.6933
 6556TIP3   OH241082   4.485   5.100  13.096  0.2039  0.3545  0.4525
 6556TIP3    H141083   4.402   5.126  13.056 -0.9844 -1.4810  1.6267
 6556TIP3    H241084   4.531   5.054  13.026 -0.4816 -0.0301  0.2418
 6557TIP3   OH241085   1.160   1.532   1.987 -0.3789  0.1132  0.2567
 6557TIP3    H141086   1.083   1.587   1.973  0.5828  0.8745 -2.5658
 6557TIP3    H241087   1.135   1.471   2.056 -2.3387  2.4902  1.7228
 6558TIP3   OH241088   2.017   4.360   3.295 -0.1701  0.2624 -0.2929
 6558TIP3    H141089   2.103   4.401   3.302 -0.6454  1.1442  0.5519
 6558TIP3    H241090   2.031   4.271   3.327  0.4104  0.4308 -0.0670
 6559TIP3   OH241091   4.139   1.256   2.106 -0.1605 -0.1582  0.0521
 6559TIP3    H141092   4.048   1.282   2.120  0.2373  1.0471  0.4576
 6559TIP3    H241093   4.133   1.174   2.056 -1.4441  0.6697 -1.1926
 6560TIP3   OH241094   0.297   2.582   4.326 -0.4447 -0.3884 -0.0761
 6560TIP3    H141095   0.361   2.555   4.391  0.4665 -0.0858 -0.8367
 6560TIP3    H241096   0.333   2.552   4.243  0.4488  2.8403 -0.9171
 6561TIP3   OH241097   3.226   2.218  11.306 -0.1158 -0.2788 -0.4882
 6561TIP3    H141098   3.221   2.140  11.361 -2.3598  1.0439  1.2669
 6561TIP3    H241099   3.137   2.231  11.274 -0.0438  2.2854  0.2763
 6562TIP3   OH241100   2.069   4.587   3.939 -0.0366 -0.5469  0.0977
 6562TIP3    H141101   2.064   4.610   3.846 -0.4915  1.8318  0.6608
 6562TIP3    H241102   1.978   4.576   3.965 -0.1142  1.5243  0.8468
 6563TIP3   OH241103   4.464   0.890  11.489  0.5286 -0.1689  0.3766
 6563TIP3    H141104   4.448   0.899  11.583 -0.9458  0.9608  0.0401
 6563TIP3    H241105   4.390   0.838  11.458  0.9621 -0.4529 -0.1785
 6564TIP3   OH241106   4.896   6.642  13.132 -0.0799  0.0829  0.2461
 6564TIP3    H141107   4.910   6.581  13.060 -1.6437  0.3753 -0.3244
 6564TIP3    H241108   4.832   6.598  13.189 -3.0629  2.1182 -1.3899
 6565TIP3   OH241109   0.715   4.272   5.396  0.2269 -0.8129 -0.5949
 6565TIP3    H141110   0.651   4.333   5.432  1.3671 -0.3291  0.6616
 6565TIP3    H241111   0.665   4.218   5.334 -0.8358  1.2610 -1.5955
 6566TIP3   OH241112   3.968   6.063  12.929  0.3186 -0.1950  0.1205
 6566TIP3    H141113   3.970   6.077  13.023 -0.3418 -2.2594  0.4777
 6566TIP3    H241114   4.055   6.092  12.899  0.5175  0.5187  1.3384
 6567TIP3   OH241115   1.820   0.894   1.253  0.2428  0.1498 -0.4428
 6567TIP3    H141116   1.824   0.829   1.183 -0.1040 -1.4629  0.9842
 6567TIP3    H241117   1.741   0.945   1.234 -0.8493 -1.4218 -0.2856
 6568TIP3   OH241118   0.489   0.089  12.580 -0.4174  0.4297 -0.0161
 6568TIP3    H141119   0.477   0.016  12.520 -1.0790  1.0219 -0.6233
 6568TIP3    H241120   0.437   0.066  12.657  0.0783 -0.1310  0.1498
 6569TIP3   OH241121   0.705   3.383  12.414  0.0561 -0.2263  0.2091
 6569TIP3    H141122   0.617   3.421  12.417  0.2416  0.3858 -1.6450
 6569TIP3    H241123   0.764   3.458  12.420  0.4507 -0.4846 -0.4402
 6570TIP3   OH241124   6.500   3.536  14.942 -0.5419 -0.5211  0.2530
 6570TIP3    H141125   6.434   3.605  14.947  0.0488  0.1727 -1.2610
 6570TIP3    H241126   6.456   3.458  14.977 -1.9554  0.0737 -0.1744
 6571TIP3   OH241127   3.925   0.711   2.047  0.2618 -0.2344  0.5426
 6571TIP3    H141128   3.847   0.750   2.087  1.2296  0.5936  1.6519
 6571TIP3    H241129   3.935   0.758   1.964  0.1743  0.3752  0.8749
 6572TIP3   OH241130   2.034   2.549  15.311 -0.3623 -0.0277 -0.3179
 6572TIP3    H141131   2.009   2.568  15.221 -1.4088 -0.3069 -0.0951
 6572TIP3    H241132   2.025   2.632  15.357  0.1878  0.1186 -0.4729
 6573TIP3   OH241133   4.160   1.250   3.352 -0.0748 -0.0133 -0.2179
 6573TIP3    H141134   4.090   1.273   3.292 -0.3034  0.7180  0.3234
 6573TIP3    H241135   4.219   1.194   3.301 -1.7124 -1.7042 -0.2888
 6574TIP3   OH241136   2.611   6.286  13.490 -0.5190  0.0668  0.2322
 6574TIP3    H141137   2.641   6.238  13.567 -0.0141  0.0297  0.0131
 6574TIP3    H241138   2.591   6.218  13.426  0.0431  0.1464 -0.0232
 6575TIP3   OH241139   1.723   3.187   1.657 -0.0599 -0.4365  0.0481
 6575TIP3    H141140   1.680   3.249   1.597  0.1289 -2.0557 -1.8362
 6575TIP3    H241141   1.711   3.102   1.615 -0.1879 -1.6684  2.5189
 6576TIP3   OH241142   4.884   4.961   0.079  0.1303  0.2906 -0.1152
 6576TIP3    H141143   4.791   4.942   0.064  0.3010  0.2001 -1.0963
 6576TIP3    H241144   4.924   4.956  -0.008  0.9006  1.1910  0.1763
 6577TIP3   OH241145   5.082   3.716  11.216 -0.0109  0.2024 -0.3736
 6577TIP3    H141146   5.178   3.707  11.219  0.1897  2.3016 -0.2293
 6577TIP3    H241147   5.057   3.730  11.307 -0.4633 -0.2566 -0.4255
 6578TIP3   OH241148   2.354   2.968  15.135 -0.4358  0.0385  0.2499
 6578TIP3    H141149   2.426   2.996  15.078  1.5874 -1.5181  1.9735
 6578TIP3    H241150   2.342   3.041  15.196  0.2917 -0.0512  0.5086
 6579TIP3   OH241151   6.069   2.000  10.687  0.0141 -0.0036  0.2714
 6579TIP3    H141152   6.016   1.935  10.641  1.4373 -0.4412 -0.7871
 6579TIP3    H241153   6.079   2.071  10.623  1.9442 -0.5826 -0.1020
 6580TIP3   OH241154   5.089   5.838  16.029  0.1469 -0.0211 -0.1095
 6580TIP3    H141155   5.029   5.801  15.964  2.2107 -2.8646 -0.5202
 6580TIP3    H241156   5.086   5.776  16.102  0.0832  1.5769  1.2585
 6581TIP3   OH241157   3.869   5.407   4.630  0.8730 -0.1909  0.0329
 6581TIP3    H141158   3.807   5.333   4.634 -0.0267  0.5080 -0.7887
 6581TIP3    H241159   3.916   5.394   4.548  1.1524 -0.1979  0.1952
 6582TIP3   OH241160   4.741   0.994   0.082 -0.2126  0.9272 -0.0595
 6582TIP3    H141161   4.816   1.016   0.138  0.7308  0.6975 -1.2307
 6582TIP3    H241162   4.723   0.902   0.103 -1.8251  1.6826  2.1138
 6583TIP3   OH241163   0.348   2.037   2.117  0.0399  0.1005  0.2901
 6583TIP3    H141164   0.385   2.028   2.029 -1.9243  0.8641 -0.6560
 6583TIP3    H241165   0.414   2.085   2.166  1.1312 -0.2584 -0.7824
 6584TIP3   OH241166   1.374   2.072   3.938 -0.7190  0.2649  0.5535
 6584TIP3    H141167   1.376   1.994   3.883  0.6698  2.3583 -2.5379
 6584TIP3    H241168   1.286   2.107   3.926  0.5289  2.4616 -3.1008
 6585TIP3   OH241169   4.656   1.253  13.291  0.3581 -0.3016  0.3420
 6585TIP3    H141170   4.624   1.261  13.201 -1.4851 -0.0616  0.9926
 6585TIP3    H241171   4.658   1.343  13.324 -1.9330 -0.6476  1.5064
 6586TIP3   OH241172   2.164   4.878  12.719 -0.2954  0.2764 -1.0398
 6586TIP3    H141173   2.203   4.801  12.760  0.4808  2.0428  1.7096
 6586TIP3    H241174   2.071   4.873  12.744 -0.1687  0.4288 -0.5268
 6587TIP3   OH241175   2.670   1.403  16.541  0.1086 -0.3710  0.1948
 6587TIP3    H141176   2.625   1.420  16.624 -1.0850  3.0524 -1.0994
 6587TIP3    H241177   2.756   1.442  16.552  0.9723 -2.4153  0.8193
 6588TIP3   OH241178   6.435   1.959  12.239  0.2472 -0.0674  0.0435
 6588TIP3    H141179   6.400   1.910  12.165  1.8861 -4.8102  2.1598
 6588TIP3    H241180   6.529   1.965  12.222  0.1125  2.1657 -0.0323
 6589TIP3   OH241181   1.701   0.848  14.196 -0.4317  0.0742 -0.0365
 6589TIP3    H141182   1.781   0.796  14.197 -0.2991  0.2764 -0.1522
 6589TIP3    H241183   1.701   0.895  14.279 -1.1358 -0.9959  0.5820
 6590TIP3   OH241184   4.345   1.758   2.057 -0.1931 -0.0523 -0.1460
 6590TIP3    H141185   4.269   1.756   1.998 -0.6122 -0.5223  0.3902
 6590TIP3    H241186   4.416   1.717   2.007 -0.3260  0.2954 -0.6169
 6591TIP3   OH241187   5.445   1.036  16.112  0.0405  0.2340 -0.1190
 6591TIP3    H141188   5.492   0.961  16.150 -1.1467 -0.3005  0.3192
 6591TIP3    H241189   5.504   1.110  16.126  2.0370 -0.9100 -2.1985
 6592TIP3   OH241190   1.392   5.647  13.455 -0.8399  0.7373 -0.3060
 6592TIP3    H141191   1.401   5.608  13.368 -1.8372  2.6932 -1.3091
 6592TIP3    H241192   1.394   5.741  13.440  1.5766  1.1275  2.1017
 6593TIP3   OH241193   2.105   5.352  13.749 -0.1082  0.2555  0.0548
 6593TIP3    H141194   2.016   5.367  13.718  0.4034  0.3364 -1.3803
 6593TIP3    H241195   2.111   5.402  13.830 -0.6709  2.0148 -0.9742
 6594TIP3   OH241196   5.369   6.287   2.640  0.1373  0.1953  0.5065
 6594TIP3    H141197   5.437   6.225   2.613 -0.5779 -2.1141  3.7004
 6594TIP3    H241198   5.288   6.251   2.604 -0.1264 -0.1479  1.4214
 6595TIP3   OH241199   6.282   3.034   1.775 -0.8329 -0.0365 -0.0606
 6595TIP3    H141200   6.234   3.079   1.844 -0.2179  2.1821 -1.0575
 6595TIP3    H241201   6.367   3.015   1.812 -1.0280 -0.2160  0.2967
 6596TIP3   OH241202   6.706   1.535  16.889  0.5378 -0.4946 -0.1131
 6596TIP3    H141203   6.611   1.545  16.886  0.6225  0.9577  1.6425
 6596TIP3    H241204   6.740   1.623  16.907  2.0760 -1.3384  1.3322
 6597TIP3   OH241205   4.908   3.873   4.238  0.2937 -0.0203 -0.4884
 6597TIP3    H141206   4.922   3.832   4.323 -0.6657 -1.6204 -1.0659
 6597TIP3    H241207   4.976   3.836   4.182 -1.3109 -1.8257 -1.3171
 6598TIP3   OH241208   3.081   0.859  16.056  0.1794  0.6955  0.3422
 6598TIP3    H141209   3.094   0.938  16.108  0.2859 -0.1131  1.5576
 6598TIP3    H241210   3.091   0.888  15.965  4.0574  1.3419  0.8939
 6599TIP3   OH241211   1.841   6.609   4.492  0.3813  0.0315  0.3868
 6599TIP3    H141212   1.807   6.521   4.474  1.2518  0.0864 -1.6193
 6599TIP3    H241213   1.771   6.668   4.463  0.0594  0.0319  1.1440
 6600TIP3   OH241214   5.743   0.236   1.843  0.2161  0.0300 -0.1509
 6600TIP3    H141215   5.704   0.192   1.768  0.5470 -0.7292  0.1261
 6600TIP3    H241216   5.739   0.329   1.820  0.0274 -0.1751 -0.9709
 6601TIP3   OH241217   0.294   3.346  15.592 -0.1993  1.2412  0.6109
 6601TIP3    H141218   0.222   3.409  15.586  0.4909  1.8284 -2.1389
 6601TIP3    H241219   0.268   3.275  15.534  1.1792  1.2025  0.0207
 6602TIP3   OH241220   6.216   3.498   3.584  0.0325  0.4280  0.1732
 6602TIP3    H141221   6.226   3.459   3.670 -1.1324 -2.6812 -1.0461
 6602TIP3    H241222   6.130   3.540   3.586 -0.4749 -0.5986  0.1885
 6603TIP3   OH241223   1.649   2.540  12.655  0.1101 -0.7649  0.1178
 6603TIP3    H141224   1.730   2.498  12.683 -1.1882 -1.2222  3.4874
 6603TIP3    H241225   1.675   2.627  12.628  1.8070 -1.1123  0.5644
 6604TIP3   OH241226   0.795   2.768  14.085  0.5685  0.1566  0.4752
 6604TIP3    H141227   0.799   2.862  14.073 -1.0217  0.2212  0.2601
 6604TIP3    H241228   0.886   2.738  14.081  1.0942  1.7017  0.7885
 6605TIP3   OH241229   5.103   5.952  17.215  0.3325  0.0420  0.3779
 6605TIP3    H141230   5.089   6.044  17.191  1.6807  0.8688  2.5992
 6605TIP3    H241231   5.086   5.903  17.134  2.7503  2.5034 -1.7090
 6606TIP3   OH241232   6.509   3.162   5.952 -0.2787 -0.0689  0.3452
 6606TIP3    H141233   6.524   3.130   6.042  0.0282  1.5971  0.8934
 6606TIP3    H241234   6.507   3.257   5.960 -0.1647  0.1000 -1.4439
 6607TIP3   OH241235   3.063   3.831   6.383 -0.1264  0.1764  0.4733
 6607TIP3    H141236   3.133   3.883   6.423  0.3348 -0.7092  0.8276
 6607TIP3    H241237   3.040   3.766   6.449  0.3961 -1.0724 -0.5422
 6608TIP3   OH241238   5.199   5.547  16.398  0.1704  0.1527 -0.1435
 6608TIP3    H141239   5.111   5.521  16.372 -0.3233  1.7266 -0.1144
 6608TIP3    H241240   5.195   5.643  16.403  1.4635  0.1458  1.3581
 6609TIP3   OH241241   6.610   3.668  12.848  0.3075  0.2806 -0.6364
 6609TIP3    H141242   6.526   3.658  12.805 -0.2582 -0.1448  0.5382
 6609TIP3    H241243   6.590   3.716  12.929  0.6321 -2.6561  1.2788
 6610TIP3   OH241244   1.012   1.783   4.387 -0.4943 -0.0443 -0.1173
 6610TIP3    H141245   1.049   1.859   4.342 -2.9334 -0.6859 -3.4162
 6610TIP3    H241246   0.951   1.821   4.451  2.7964  0.8714  2.5847
 6611TIP3   OH241247   0.903   1.549  14.277 -0.4269 -0.1128 -0.5608
 6611TIP3    H141248   0.889   1.628  14.329  1.3850  0.5891 -1.0988
 6611TIP3    H241249   0.921   1.582  14.189  0.6509 -1.1223 -0.7172
 6612TIP3   OH241250   0.037   2.193   3.073  0.5157  0.2734  0.1122
 6612TIP3    H141251  -0.054   2.211   3.099  0.2509  0.8842 -1.2071
 6612TIP3    H241252   0.088   2.260   3.120  0.2518  0.1963  0.5184
 6613TIP3   OH241253   3.942   2.487  15.042  0.1334 -0.6238  0.5088
 6613TIP3    H141254   3.874   2.487  15.109  1.4244  0.6971  1.8317
 6613TIP3    H241255   4.022   2.460  15.087  0.7943 -0.8337 -0.7455
 6614TIP3   OH241256   5.003   5.319   0.829  0.0180  0.0354  0.0954
 6614TIP3    H141257   4.907   5.309   0.827  0.0306 -0.3542  1.0980
 6614TIP3    H241258   5.021   5.354   0.917  0.9491 -1.4731  0.5238
 6615TIP3   OH241259   1.647   0.704  13.477 -0.7603  0.2589  0.2680
 6615TIP3    H141260   1.734   0.704  13.436 -0.8456  1.8021  0.0468
 6615TIP3    H241261   1.642   0.789  13.521 -2.4779  0.5273 -0.4253
 6616TIP3   OH241262   6.133   0.894   4.291 -0.1128  0.1618  0.2924
 6616TIP3    H141263   6.175   0.966   4.337  0.5355  0.6711 -1.0577
 6616TIP3    H241264   6.118   0.928   4.202  1.3809 -1.8027 -0.7404
 6617TIP3   OH241265   1.050   3.879  13.726  0.0105  0.3915  0.4194
 6617TIP3    H141266   1.143   3.899  13.711 -0.0031  1.3310  1.4624
 6617TIP3    H241267   1.006   3.963  13.714 -0.5248  0.2449  1.3658
 6618TIP3   OH241268   2.825   3.139  13.471  0.2566 -0.1850 -0.1023
 6618TIP3    H141269   2.877   3.119  13.392 -0.5690  0.5269 -0.8407
 6618TIP3    H241270   2.798   3.054  13.504  0.6563 -0.4988 -0.5678
 6619TIP3   OH241271   5.698   0.089  15.485  0.4382 -0.5254  0.2329
 6619TIP3    H141272   5.773   0.133  15.443 -0.9660  0.7912 -0.9313
 6619TIP3    H241273   5.680   0.014  15.429  0.5530 -0.5581  0.2380
 6620TIP3   OH241274   2.150   5.135  14.316 -0.5013 -0.1998  0.8548
 6620TIP3    H141275   2.081   5.091  14.265 -1.6821  2.5928 -0.0350
 6620TIP3    H241276   2.169   5.075  14.388 -0.3803 -3.2498 -1.6024
 6621TIP3   OH241277   5.861   5.520  13.357  0.4276  0.1036  0.2371
 6621TIP3    H141278   5.769   5.508  13.333  0.2514 -0.5734  1.2199
 6621TIP3    H241279   5.860   5.592  13.420  0.8012  1.3687 -1.1651
 6622TIP3   OH241280   2.454   4.876  14.829 -0.3246 -0.0239 -0.0121
 6622TIP3    H141281   2.385   4.910  14.888 -1.5809 -1.1492 -0.8097
 6622TIP3    H241282   2.509   4.953  14.811 -0.3097  0.4945  2.0716
 6623TIP3   OH241283   2.442   4.114   1.754  0.1723 -0.0443 -0.7000
 6623TIP3    H141284   2.422   4.199   1.714 -0.7160  0.3800  0.5978
 6623TIP3    H241285   2.527   4.090   1.718 -0.7195  0.1907 -3.0093
 6624TIP3   OH241286   1.432   4.784   2.606  0.2375  0.4660 -0.4701
 6624TIP3    H141287   1.341   4.814   2.604 -0.1874 -0.9128 -2.2477
 6624TIP3    H241288   1.432   4.713   2.670 -0.3005 -0.6647 -1.7134
 6625TIP3   OH241289   2.523   5.780   3.424  0.0901 -0.3879  0.1682
 6625TIP3    H141290   2.446   5.817   3.380 -1.2754 -1.0595  1.9170
 6625TIP3    H241291   2.584   5.854   3.431 -0.9742  0.5238  0.0334
 6626TIP3   OH241292   4.859   4.613   5.920  0.3027 -0.0622 -0.1027
 6626TIP3    H141293   4.797   4.626   5.992 -0.9003  0.7893 -1.2551
 6626TIP3    H241294   4.909   4.695   5.917  0.3038 -0.0686 -0.2787
 6627TIP3   OH241295   6.407   0.757  14.618  0.7657  0.1097 -0.3014
 6627TIP3    H141296   6.414   0.754  14.523  1.6928 -0.8516 -0.2116
 6627TIP3    H241297   6.318   0.787  14.635  1.2827  2.4379 -1.4762
 6628TIP3   OH241298   4.653   2.798   4.772  0.0917 -0.8723 -0.4629
 6628TIP3    H141299   4.615   2.859   4.836 -0.1197 -0.2919 -1.1365
 6628TIP3    H241300   4.745   2.792   4.797 -0.1439 -1.2147  0.3407
 6629TIP3   OH241301   2.476   0.589   5.271  0.0132  0.0624  0.7201
 6629TIP3    H141302   2.461   0.533   5.195  1.3052 -0.4156  0.8045
 6629TIP3    H241303   2.389   0.624   5.293 -0.6670 -1.2655  0.1774
 6630TIP3   OH241304   3.955   0.370  12.306  0.1240  0.9575 -0.6018
 6630TIP3    H141305   3.868   0.370  12.346 -0.6011 -0.4256 -2.1434
 6630TIP3    H241306   3.966   0.460  12.274 -0.4942  1.2939  0.1103
 6631TIP3   OH241307   1.870   4.774  15.894  0.4186  0.3364 -0.1865
 6631TIP3    H141308   1.871   4.723  15.975 -1.2659  2.0477  0.9803
 6631TIP3    H241309   1.777   4.789  15.876  0.8214  1.4516 -1.4749
 6632TIP3   OH241310   0.985   1.351   0.748  0.2476 -0.1277 -0.4654
 6632TIP3    H141311   0.984   1.447   0.740 -1.9962 -0.2224 -1.6317
 6632TIP3    H241312   0.909   1.331   0.803  0.2360 -1.2961 -0.9058
 6633TIP3   OH241313   2.070   3.148   3.415  0.1593  0.0977 -0.2425
 6633TIP3    H141314   2.084   3.170   3.323 -0.2954 -0.9106 -0.5586
 6633TIP3    H241315   2.158   3.144   3.452  0.3042  1.2360 -0.4594
 6634TIP3   OH241316   2.810   4.258  14.013  0.2853 -0.2936 -0.1963
 6634TIP3    H141317   2.778   4.349  14.016  1.0841 -0.0297  0.6764
 6634TIP3    H241318   2.897   4.262  14.055 -0.4235 -1.7651  1.4790
 6635TIP3   OH241319   0.288   2.039   4.173 -0.3091  0.2672  0.7042
 6635TIP3    H141320   0.207   2.052   4.123  1.2392 -0.8496 -2.2133
 6635TIP3    H241321   0.294   1.944   4.184  0.6615  0.3332  0.7759
 6636TIP3   OH241322   3.617   0.709  11.425  0.5169  0.1690  0.1184
 6636TIP3    H141323   3.662   0.624  11.425 -1.6774 -1.0216  0.1904
 6636TIP3    H241324   3.599   0.726  11.333 -1.4554 -0.7847  0.3016
 6637TIP3   OH241325   0.944   5.813  14.184 -0.0999 -0.0487  0.1449
 6637TIP3    H141326   0.858   5.772  14.186  0.0534 -0.3780  0.0090
 6637TIP3    H241327   0.967   5.816  14.091  0.2985 -0.5194  0.2259
 6638TIP3   OH241328   1.830   5.494   5.098  0.3418 -0.3404 -0.0542
 6638TIP3    H141329   1.748   5.530   5.131 -0.0280 -0.3591 -0.9421
 6638TIP3    H241330   1.898   5.551   5.135 -0.1983  0.9324 -0.9794
 6639TIP3   OH241331   6.008   5.388  15.107 -0.3682 -0.4258  0.2546
 6639TIP3    H141332   5.913   5.378  15.098 -0.3533  0.6789 -1.2991
 6639TIP3    H241333   6.041   5.299  15.123 -1.6388 -0.8291  0.6818
 6640TIP3   OH241334   4.220   5.586  15.553 -0.4346 -0.2113  0.1118
 6640TIP3    H141335   4.252   5.611  15.640 -0.2406  0.3414 -0.1190
 6640TIP3    H241336   4.160   5.514  15.570 -1.5291  0.8424  0.8610
 6641TIP3   OH241337   4.900   1.359   1.419 -0.0021  0.1465 -0.2362
 6641TIP3    H141338   4.918   1.376   1.512  1.4725  0.5525 -0.5885
 6641TIP3    H241339   4.851   1.436   1.390 -1.1800 -0.3482  0.3935
 6642TIP3   OH241340   2.930   0.124  12.990  0.2833  0.6113 -0.4327
 6642TIP3    H141341   2.915   0.029  12.986 -1.6475  0.7060  2.3690
 6642TIP3    H241342   2.974   0.137  13.074  0.6191  2.1877 -0.8536
 6643TIP3   OH241343   6.152   5.712  15.943  0.6435 -0.5655  0.6161
 6643TIP3    H141344   6.140   5.805  15.958  0.8342  0.1992 -3.4551
 6643TIP3    H241345   6.246   5.698  15.956  0.5619 -0.2849  1.5598
 6644TIP3   OH241346   2.746   2.140   2.214 -0.0219  0.1045  0.2324
 6644TIP3    H141347   2.669   2.197   2.213 -0.1590 -0.0855 -0.1593
 6644TIP3    H241348   2.796   2.168   2.292 -1.3695 -0.9700  1.4992
 6645TIP3   OH241349   2.311   0.384   5.540 -0.2453  0.0037 -0.1027
 6645TIP3    H141350   2.344   0.295   5.525 -1.3498 -0.1805 -1.5923
 6645TIP3    H241351   2.269   0.408   5.457  0.6185  2.1792  0.0606
 6646TIP3   OH241352   3.622   1.173   0.345  0.5366 -0.1399  0.4700
 6646TIP3    H141353   3.549   1.185   0.284  1.4231  0.5953 -0.4483
 6646TIP3    H241354   3.581   1.134   0.422 -0.9018  0.6179  0.1178
 6647TIP3   OH241355   0.976   2.355   2.665  0.5676 -0.5642  0.5421
 6647TIP3    H141356   1.016   2.314   2.588  0.5849  0.9668 -0.2710
 6647TIP3    H241357   1.019   2.312   2.739  2.2826 -0.3777 -0.3097
 6648TIP3   OH241358   6.609   6.524  11.619  0.6479  0.1645  0.3575
 6648TIP3    H141359   6.514   6.538  11.616  0.4778 -0.6727  1.5549
 6648TIP3    H241360   6.628   6.509  11.711  1.7483 -1.0515 -0.0640
 6649TIP3   OH241361   1.921   1.973   5.111 -0.5088 -0.2184 -0.2227
 6649TIP3    H141362   1.983   1.962   5.183  0.9009  0.8980 -1.2219
 6649TIP3    H241363   1.843   2.010   5.151  0.4831  0.9577  0.6320
 6650TIP3   OH241364   0.587   3.687   4.529  0.5089 -0.6925 -0.0754
 6650TIP3    H141365   0.669   3.644   4.508  0.1953 -1.4198  0.1788
 6650TIP3    H241366   0.569   3.743   4.453  1.3510 -0.3454 -0.0267
 6651TIP3   OH241367   2.992   1.233   6.574  0.2682 -0.1943 -0.4913
 6651TIP3    H141368   2.956   1.292   6.508 -0.2925  1.1795  1.0056
 6651TIP3    H241369   2.965   1.146   6.545 -0.8643  0.4713 -1.5200
 6652TIP3   OH241370   2.966   3.675   0.040 -0.2302 -0.1288  0.1124
 6652TIP3    H141371   2.967   3.728   0.120  0.2783  0.3119 -0.1863
 6652TIP3    H241372   3.052   3.689   0.000  1.1099 -3.6014  1.6118
 6653TIP3   OH241373   3.404   0.585  15.111 -0.1345 -0.1374  0.1057
 6653TIP3    H141374   3.439   0.625  15.031 -2.7003  0.8253 -0.5736
 6653TIP3    H241375   3.440   0.639  15.182  2.6308 -1.3438 -0.3009
 6654TIP3   OH241376   3.274   4.100   5.021 -0.2775  0.1295  0.1675
 6654TIP3    H141377   3.244   4.017   5.059  0.1658 -0.1318 -0.0447
 6654TIP3    H241378   3.222   4.110   4.942  0.5694 -0.6017 -0.4961
 6655TIP3   OH241379   6.404   3.966  11.163  0.1741  0.2847  0.1269
 6655TIP3    H141380   6.380   4.021  11.089 -0.6052 -0.5563 -0.2483
 6655TIP3    H241381   6.485   3.922  11.136 -0.4980 -0.5704 -0.5127
 6656TIP3   OH241382   2.789   1.268  15.322  0.6699 -0.0934 -0.0172
 6656TIP3    H141383   2.814   1.217  15.245  0.1313 -0.5195  0.0900
 6656TIP3    H241384   2.742   1.344  15.286  1.0940  0.1133 -0.1484
 6657TIP3   OH241385   3.923   5.280  16.669 -0.0506 -0.3134 -0.0751
 6657TIP3    H141386   3.915   5.331  16.588  2.0178 -0.7858 -0.6054
 6657TIP3    H241387   3.933   5.347  16.737 -5.2176  0.2308  0.3371
 6658TIP3   OH241388   1.189   2.262  14.716  0.1504  0.4267 -0.0558
 6658TIP3    H141389   1.144   2.320  14.777 -0.9164 -1.1119  0.6559
 6658TIP3    H241390   1.267   2.311  14.689 -0.7662  2.2019  0.4518
 6659TIP3   OH241391   0.035   3.329   5.923  0.2715 -0.2120 -0.4087
 6659TIP3    H141392   0.053   3.236   5.935 -0.3024  0.0478  2.7576
 6659TIP3    H241393  -0.056   3.340   5.950  0.7449  1.5039  0.5408
 6660TIP3   OH241394   6.431   3.187   4.268  0.4675  0.5323 -0.2809
 6660TIP3    H141395   6.513   3.149   4.234  1.2496  0.2283  1.8575
 6660TIP3    H241396   6.404   3.126   4.337 -0.7624  1.4439  0.0505
 6661TIP3   OH241397   0.273   5.545  16.625 -0.4654  0.3394  0.3825
 6661TIP3    H141398   0.206   5.477  16.634  0.3750 -1.1806 -3.6981
 6661TIP3    H241399   0.351   5.507  16.664 -0.5347 -0.2128 -0.0059
 6662TIP3   OH241400   6.596   3.973   1.595  0.2697  0.7060 -0.1426
 6662TIP3    H141401   6.645   4.015   1.524 -1.8960  2.1721 -0.7999
 6662TIP3    H241402   6.551   3.900   1.552  0.0446  0.7633 -0.0025
 6663TIP3   OH241403   2.634   5.972  11.354  0.2503  0.6488  0.1934
 6663TIP3    H141404   2.545   5.953  11.324  0.1242  2.0300 -0.3130
 6663TIP3    H241405   2.623   5.998  11.446  0.2605 -0.2382  0.4511
 6664TIP3   OH241406   5.789   3.702   4.727  0.1915 -0.7905  0.7901
 6664TIP3    H141407   5.718   3.762   4.747 -0.9893 -1.2576 -1.8071
 6664TIP3    H241408   5.774   3.627   4.783 -0.5884 -0.3120  1.2271
 6665TIP3   OH241409   6.406   3.738   1.403  0.0812 -0.3991  0.0528
 6665TIP3    H141410   6.322   3.774   1.375 -0.0374  0.3570  1.4017
 6665TIP3    H241411   6.397   3.725   1.497  1.3921 -0.5643  0.1594
 6666TIP3   OH241412   4.316   1.254   3.591  0.3260  0.2298  0.3312
 6666TIP3    H141413   4.268   1.247   3.508  0.6562  0.6232  0.1036
 6666TIP3    H241414   4.252   1.228   3.657  0.7758 -2.4606 -0.2299
 6667TIP3   OH241415   1.167   0.537   3.165  0.2655 -0.2419 -0.4148
 6667TIP3    H141416   1.222   0.459   3.174  0.8118 -0.1129 -2.3322
 6667TIP3    H241417   1.078   0.503   3.157  0.5591 -0.7159 -1.7921
 6668TIP3   OH241418   4.019   4.558   5.567 -0.3325  0.6034  0.1975
 6668TIP3    H141419   3.925   4.576   5.558 -0.1788  1.0984 -0.4856
 6668TIP3    H241420   4.060   4.621   5.508  0.4779  0.9140  1.0860
 6669TIP3   OH241421   1.594   6.116   4.314 -0.5430  0.4391  0.1513
 6669TIP3    H141422   1.513   6.159   4.339  0.3324  1.5323  1.1991
 6669TIP3    H241423   1.627   6.078   4.396 -0.4730 -0.8225 -0.4470
 6670TIP3   OH241424   3.609   4.612   4.416 -0.1870 -0.1524  0.4989
 6670TIP3    H141425   3.622   4.620   4.321 -2.8071  0.2122  0.1221
 6670TIP3    H241426   3.687   4.650   4.455  0.9671 -0.3906 -1.5221
 6671TIP3   OH241427   0.787   6.738   1.616 -0.3443  0.0140 -0.2368
 6671TIP3    H141428   0.809   6.816   1.668 -1.2862  0.8032 -1.0055
 6671TIP3    H241429   0.700   6.757   1.580 -0.8861 -1.7163  0.1667
 6672TIP3   OH241430   0.734   0.483  14.597  0.6728 -0.2421 -0.2800
 6672TIP3    H141431   0.737   0.398  14.553  1.5599 -1.4738  2.0865
 6672TIP3    H241432   0.700   0.464  14.684 -2.1216  2.3295 -0.7290
 6673TIP3   OH241433   0.739   1.944  12.217  0.2770  0.4534  0.6521
 6673TIP3    H141434   0.786   1.868  12.182  0.4513  0.8547  0.0044
 6673TIP3    H241435   0.751   2.012  12.151  1.9201  1.7280  2.1979
 6674TIP3   OH241436   1.853   0.660  16.773  0.0725 -0.4640 -0.5334
 6674TIP3    H141437   1.866   0.571  16.806  1.2711  0.0476  0.4250
 6674TIP3    H241438   1.825   0.648  16.683  0.6498 -1.8113 -0.5529
 6675TIP3   OH241439   2.568   5.279   0.219 -0.3609  0.4543 -0.4274
 6675TIP3    H141440   2.493   5.222   0.237  1.5188 -1.3210  2.2521
 6675TIP3    H241441   2.601   5.303   0.305  0.5987  3.3562 -1.5539
 6676TIP3   OH241442   4.829   1.293   4.604  0.0975  0.1077  0.1372
 6676TIP3    H141443   4.889   1.285   4.678  0.7474 -0.2281 -0.4097
 6676TIP3    H241444   4.746   1.257   4.635 -0.0919  1.4583  1.2063
 6677TIP3   OH241445   5.413   4.633   3.545  0.0491 -0.1032  0.2761
 6677TIP3    H141446   5.413   4.548   3.501 -1.1352  0.8491 -1.6047
 6677TIP3    H241447   5.387   4.696   3.477 -1.4257  1.4551  2.2078
 6678TIP3   OH241448   2.799   6.202   1.423  0.4010 -0.5834  0.4567
 6678TIP3    H141449   2.822   6.113   1.399 -0.1651 -1.6035  3.4665
 6678TIP3    H241450   2.872   6.233   1.476 -0.1101  0.1555  0.7486
 6679TIP3   OH241451   2.761   4.927   5.001 -0.1083  0.3291  0.5263
 6679TIP3    H141452   2.700   4.981   5.050 -2.3921  0.9432 -2.8469
 6679TIP3    H241453   2.808   4.988   4.945  0.7918 -0.6251  0.2188
 6680TIP3   OH241454   1.445   6.458  13.119  0.0586 -0.2118 -0.3529
 6680TIP3    H141455   1.438   6.545  13.081 -0.1355  0.3300  0.9232
 6680TIP3    H241456   1.527   6.459  13.167 -0.1732 -0.5869  0.0499
 6681TIP3   OH241457   0.159   0.092   1.275  0.1111  0.1885 -0.0422
 6681TIP3    H141458   0.164   0.004   1.238  0.9286  0.7404 -1.3014
 6681TIP3    H241459   0.068   0.119   1.264 -0.0070 -0.2817 -0.1987
 6682TIP3   OH241460   1.045   0.867   5.658 -0.1999  0.4195  0.0575
 6682TIP3    H141461   1.105   0.837   5.726 -1.9140 -1.4595  0.8037
 6682TIP3    H241462   1.071   0.820   5.579 -1.2615 -1.1783  0.6185
 6683TIP3   OH241463   3.134   6.272   0.288  0.9652 -0.0383 -0.5089
 6683TIP3    H141464   3.200   6.318   0.340 -0.3859 -0.6991  1.8944
 6683TIP3    H241465   3.152   6.179   0.303  0.4123 -0.2306 -1.0018
 6684TIP3   OH241466   1.490   5.057  13.475 -0.3616 -0.2571 -0.1078
 6684TIP3    H141467   1.535   5.050  13.559  0.1145 -0.1469 -0.3552
 6684TIP3    H241468   1.455   5.146  13.473 -0.4687 -0.2953  0.0171
 6685TIP3   OH241469   3.286   2.135  13.955 -0.2229 -0.4067  0.3343
 6685TIP3    H141470   3.377   2.108  13.947 -0.7227 -2.2629  0.6375
 6685TIP3    H241471   3.289   2.219  13.999  1.2688 -1.1884  1.7626
 6686TIP3   OH241472   5.002   4.455  14.029  0.0503  0.1433  0.2176
 6686TIP3    H141473   4.954   4.523  14.077  1.9007  0.6856  1.3539
 6686TIP3    H241474   4.934   4.400  13.991 -1.5129  3.3137 -1.7503
 6687TIP3   OH241475   3.106   5.420   1.506  0.1578 -0.0543 -0.4634
 6687TIP3    H141476   3.137   5.349   1.562 -0.1758 -0.6830 -1.0676
 6687TIP3    H241477   3.185   5.470   1.486  0.3581 -0.1115  0.1648
 6688TIP3   OH241478   2.836   2.748  16.938  0.8468 -0.0079 -0.0072
 6688TIP3    H141479   2.900   2.727  17.006  1.3170 -1.6614 -0.9231
 6688TIP3    H241480   2.765   2.792  16.985  2.8187  2.2361  0.9435
 6689TIP3   OH241481   2.639   1.189   3.494 -0.2562 -0.3545 -0.1691
 6689TIP3    H141482   2.671   1.253   3.557 -1.2954  1.0413 -1.0306
 6689TIP3    H241483   2.707   1.183   3.428  0.1929 -0.7443  0.3239
 6690TIP3   OH241484   2.538   2.973   3.455  0.4350  0.4079  0.4306
 6690TIP3    H141485   2.596   2.945   3.526  0.7731  0.5572  0.2192
 6690TIP3    H241486   2.478   2.900   3.442  0.7525  0.1395  0.4682
 6691TIP3   OH241487   2.692   5.799  15.354  0.2210  0.6223  0.6090
 6691TIP3    H141488   2.600   5.784  15.334  0.9238 -2.5637 -0.4102
 6691TIP3    H241489   2.730   5.712  15.359  3.2308  1.9066  0.9016
 6692TIP3   OH241490   2.522   0.258   3.290  0.3262  0.6000 -0.1610
 6692TIP3    H141491   2.472   0.335   3.317 -1.4596 -0.3696 -0.5832
 6692TIP3    H241492   2.545   0.215   3.373  0.6703  1.1881  0.0486
 6693TIP3   OH241493   2.746   0.028  14.737 -0.0553 -0.3613  0.5462
 6693TIP3    H141494   2.704   0.096  14.684 -1.6405 -0.4872  1.6074
 6693TIP3    H241495   2.799   0.077  14.800 -0.5161 -0.1208  0.7528
 6694TIP3   OH241496   1.131   6.011   3.447 -0.0362  0.3424  0.4108
 6694TIP3    H141497   1.217   6.040   3.478  0.9152 -0.8347 -1.0527
 6694TIP3    H241498   1.075   6.017   3.523  1.5891  0.1873  1.6538
 6695TIP3   OH241499   4.969   5.486   2.416  0.2486  0.0508  0.0120
 6695TIP3    H141500   4.997   5.576   2.427  1.8130 -0.6815  2.3403
 6695TIP3    H241501   4.873   5.491   2.413  0.3592  1.9120 -1.5057
 6696TIP3   OH241502   3.721   0.470  11.327  0.1839 -0.6416  0.0760
 6696TIP3    H141503   3.760   0.414  11.394  1.5327  0.8667  0.6093
 6696TIP3    H241504   3.738   0.424  11.244  1.3784 -0.9738  0.4886
 6697TIP3   OH241505   0.892   1.494  15.136  0.0443  0.3002  0.4270
 6697TIP3    H141506   0.890   1.573  15.189  2.3456 -0.8405  2.3058
 6697TIP3    H241507   0.905   1.525  15.047  2.9616  1.9721  1.3786
 6698TIP3   OH241508   3.056   1.595  13.898  0.2038 -0.1050 -0.6027
 6698TIP3    H141509   3.095   1.658  13.838 -0.3870  1.1821  0.3243
 6698TIP3    H241510   3.036   1.519  13.844  0.6232  0.6366 -1.8173
 6699TIP3   OH241511   3.769   1.176  11.586  0.3007  0.1139  0.0989
 6699TIP3    H141512   3.842   1.114  11.582  1.7576  1.6355  1.9546
 6699TIP3    H241513   3.811   1.262  11.582 -1.3594  1.0126  1.3976
 6700TIP3   OH241514   0.893   4.889   4.344  0.9753 -0.0309  0.1323
 6700TIP3    H141515   0.931   4.931   4.421  0.7525  0.2340  0.0984
 6700TIP3    H241516   0.968   4.867   4.290  1.1594 -0.5600  0.5986
 6701TIP3   OH241517   2.280   1.440   1.528 -0.0839  0.0983 -0.3154
 6701TIP3    H141518   2.191   1.444   1.561  0.2336 -2.3515  0.9507
 6701TIP3    H241519   2.332   1.489   1.591 -0.1795 -0.5944  0.3097
 6702TIP3   OH241520   3.595   1.891  16.796 -0.5207  0.7662  0.2109
 6702TIP3    H141521   3.529   1.867  16.860  2.0768 -1.0219  2.3307
 6702TIP3    H241522   3.654   1.950  16.844  0.1469  1.3179 -1.2567
 6703TIP3   OH241523   3.054   6.342  12.214 -0.7272  0.1310 -0.3789
 6703TIP3    H141524   2.962   6.369  12.218 -0.9073 -0.6524  1.1103
 6703TIP3    H241525   3.099   6.402  12.274 -0.3687  0.1372 -0.6545
 6704TIP3   OH241526   1.625   3.778  12.693 -0.2873  0.6922  0.0144
 6704TIP3    H141527   1.657   3.799  12.605 -0.6535 -0.7310 -0.4685
 6704TIP3    H241528   1.545   3.830  12.703 -2.0136 -1.5252 -1.7512
 6705TIP3   OH241529   0.545   6.458   5.179 -0.1044 -0.1846 -0.5087
 6705TIP3    H141530   0.457   6.465   5.142 -0.7947  2.0675  1.3836
 6705TIP3    H241531   0.604   6.467   5.105 -1.4607  2.2985 -1.3244
 6706TIP3   OH241532   4.802   5.305   4.370  0.3332 -0.2540 -0.1496
 6706TIP3    H141533   4.776   5.397   4.368  0.4542 -0.2391 -2.3256
 6706TIP3    H241534   4.896   5.306   4.388  0.7975  0.1924 -2.4254
 6707TIP3   OH241535   2.933   5.606   6.171 -0.2205  0.3114  0.6602
 6707TIP3    H141536   2.934   5.701   6.181  1.0469  0.5775 -1.6203
 6707TIP3    H241537   2.842   5.581   6.182 -0.8287  2.0006 -0.3837
 6708TIP3   OH241538   4.410   0.864  11.751 -0.0205 -0.1776 -0.3057
 6708TIP3    H141539   4.461   0.912  11.816  0.6008  0.0618 -0.9756
 6708TIP3    H241540   4.419   0.772  11.778 -0.4949 -0.0100  0.4610
 6709TIP3   OH241541   5.155   5.142  14.882 -0.1076 -0.0688 -0.4590
 6709TIP3    H141542   5.171   5.117  14.791 -1.1442 -2.8589  0.0833
 6709TIP3    H241543   5.175   5.063  14.933 -1.2363  0.9157  1.5732
 6710TIP3   OH241544   2.946   6.297   5.460  0.1386 -0.0534  0.0713
 6710TIP3    H141545   2.866   6.299   5.409  0.1908  1.3164  0.0216
 6710TIP3    H241546   3.010   6.255   5.403 -0.5731 -1.2883  0.1689
 6711TIP3   OH241547   2.511   2.787   3.097 -0.2921  0.1084  0.4766
 6711TIP3    H141548   2.519   2.799   3.002  0.0802 -1.6297  0.2684
 6711TIP3    H241549   2.417   2.791   3.114 -0.5362 -1.7019 -0.2969
 6712TIP3   OH241550   3.603   1.845   1.413  0.0889  0.0701  0.4565
 6712TIP3    H141551   3.521   1.837   1.461 -0.7590 -0.2300 -1.0170
 6712TIP3    H241552   3.652   1.913   1.459 -3.4952  4.6563 -2.1941
 6713TIP3   OH241553   0.729   1.061  12.497  0.0109  0.1177  0.0741
 6713TIP3    H141554   0.674   0.984  12.496  1.7942 -1.1778 -1.2770
 6713TIP3    H241555   0.736   1.088  12.405  0.6232  0.9789  0.3567
 6714TIP3   OH241556   1.047   4.915  11.296  0.7203 -0.2629  0.4615
 6714TIP3    H141557   1.059   4.827  11.262  0.1482 -0.6295  1.2006
 6714TIP3    H241558   1.028   4.903  11.389  1.6324  0.6897  0.7862
 6715TIP3   OH241559   5.150   2.083   4.079  0.4367 -0.6348 -0.7150
 6715TIP3    H141560   5.062   2.098   4.044 -0.1540 -1.5082  0.3816
 6715TIP3    H241561   5.192   2.025   4.016  0.0681 -0.5905 -1.0012
 6716TIP3   OH241562   5.526   4.373   0.416  0.0708  0.0969  0.0350
 6716TIP3    H141563   5.434   4.398   0.415  0.0864  0.1491 -0.2655
 6716TIP3    H241564   5.557   4.394   0.327 -0.1288 -1.8017 -0.5051
 6717TIP3   OH241565   3.836   4.038   5.045 -0.7378 -0.1281 -0.1595
 6717TIP3    H141566   3.922   4.007   5.018  1.2088  2.1003  3.1888
 6717TIP3    H241567   3.806   3.974   5.109 -1.6739 -0.9521 -1.3875
 6718TIP3   OH241568   2.908   4.724   1.605 -0.3841  0.4993 -0.0674
 6718TIP3    H141569   2.923   4.643   1.556 -2.0860 -1.0012  1.8019
 6718TIP3    H241570   2.994   4.747   1.639 -0.1278 -1.3430  0.5894
 6719TIP3   OH241571   4.547   5.545   4.866 -0.1535 -0.4215 -0.2737
 6719TIP3    H141572   4.515   5.471   4.916  0.6899 -0.9009 -0.4358
 6719TIP3    H241573   4.550   5.514   4.775  0.2786 -0.2184 -0.3299
 6720TIP3   OH241574   3.752   4.425  16.732  0.0096  0.2006 -0.3574
 6720TIP3    H141575   3.727   4.347  16.781  0.0873 -0.1899 -0.9379
 6720TIP3    H241576   3.690   4.492  16.761  0.6886  0.2514  1.0237
 6721TIP3   OH241577   0.594   0.618   1.705 -0.0557  0.0794 -0.1094
 6721TIP3    H141578   0.631   0.581   1.785 -2.0935  0.3654  1.0074
 6721TIP3    H241579   0.593   0.546   1.643  0.4485 -0.4509  0.4942
 6722TIP3   OH241580   2.986   4.153   1.307 -0.0681 -0.1140  0.1256
 6722TIP3    H141581   2.998   4.207   1.384  1.6300  0.2130 -0.3597
 6722TIP3    H241582   3.016   4.207   1.234  0.6120 -1.2841 -0.4839
 6723TIP3   OH241583   0.358   3.992  16.420 -0.0252 -0.5979  0.7564
 6723TIP3    H141584   0.282   4.045  16.397 -2.5135 -4.3743 -0.1434
 6723TIP3    H241585   0.337   3.956  16.506  0.1730 -2.5572  0.0200
 6724TIP3   OH241586   0.930   0.193   4.524  0.5896  0.2142  0.3623
 6724TIP3    H141587   0.995   0.125   4.544  0.5440  0.1068  0.1420
 6724TIP3    H241588   0.903   0.175   4.435  0.9322  0.8180  0.1325
 6725TIP3   OH241589   1.514   5.458   1.929 -0.2562 -0.1732 -0.2097
 6725TIP3    H141590   1.549   5.416   1.851 -0.5684 -0.3829 -0.2345
 6725TIP3    H241591   1.591   5.499   1.970 -0.3596  1.3410 -1.4780
 6726TIP3   OH241592   4.617   0.564   2.204  0.4547 -0.3248  0.7207
 6726TIP3    H141593   4.689   0.624   2.187  0.1667 -0.4403 -0.9561
 6726TIP3    H241594   4.544   0.620   2.231  0.9756 -0.1607  1.8283
 6727TIP3   OH241595   0.038   6.661  15.367 -0.3335 -0.1900  0.0918
 6727TIP3    H141596   0.090   6.730  15.408 -0.7158 -0.1101  0.4504
 6727TIP3    H241597   0.101   6.592  15.346  0.4223  1.1596 -2.2669
 6728TIP3   OH241598   3.811   6.042  15.544 -0.1004 -0.1961 -0.0496
 6728TIP3    H141599   3.794   6.047  15.450  0.6664 -0.0524 -0.1846
 6728TIP3    H241600   3.899   6.080  15.555 -0.1014 -0.3915  0.6984
 6729TIP3   OH241601   2.750   2.895   3.614 -0.0160 -0.5200 -0.3959
 6729TIP3    H141602   2.784   2.960   3.675 -0.8235 -0.8696  0.4357
 6729TIP3    H241603   2.745   2.814   3.666 -2.2590 -0.4373 -0.4465
 6730TIP3   OH241604   6.684   5.365   0.234 -0.4226 -0.4354  0.0178
 6730TIP3    H141605   6.742   5.381   0.309 -1.2840 -0.0444  0.6145
 6730TIP3    H241606   6.605   5.328   0.273 -0.2675 -1.7248 -0.8789
 6731TIP3   OH241607   3.915   0.689   4.450  0.3449  0.2004  0.4151
 6731TIP3    H141608   3.862   0.769   4.451 -1.0620 -0.6843 -1.0017
 6731TIP3    H241609   3.852   0.618   4.456  1.4826 -0.8438  0.3223
 6732TIP3   OH241610   0.265   6.446  14.338 -0.2439 -0.4825 -0.0920
 6732TIP3    H141611   0.248   6.364  14.386  0.1758 -0.8952 -0.6452
 6732TIP3    H241612   0.180   6.490  14.336 -0.3767 -0.6981  0.5941
 6733TIP3   OH241613   5.038   6.479  10.988 -0.3202 -0.2925  0.2134
 6733TIP3    H141614   4.944   6.481  11.008 -0.5066  0.7413 -0.7498
 6733TIP3    H241615   5.049   6.402  10.933 -0.5080 -0.7045  0.7424
 6734TIP3   OH241616   5.612   4.754   1.325  0.1478 -0.0426  1.0413
 6734TIP3    H141617   5.629   4.678   1.381  0.4503 -1.1196 -0.4767
 6734TIP3    H241618   5.518   4.753   1.311  0.3117 -0.9063 -0.0345
 6735TIP3   OH241619   4.546   6.191   0.498 -0.6831 -0.1722 -0.1526
 6735TIP3    H141620   4.536   6.096   0.492  0.4021 -0.2010 -1.9327
 6735TIP3    H241621   4.457   6.225   0.506 -1.2003 -1.2399 -1.2821
 6736TIP3   OH241622   0.233   2.405   5.830  0.0984 -0.6844  0.4495
 6736TIP3    H141623   0.160   2.370   5.882 -1.1729  1.3994  0.0964
 6736TIP3    H241624   0.214   2.376   5.741  1.2134 -2.5344  0.7894
 6737TIP3   OH241625   3.736   0.161   4.668  0.2491 -0.1261  0.5286
 6737TIP3    H141626   3.681   0.092   4.705 -0.2840  0.3919  0.7153
 6737TIP3    H241627   3.688   0.242   4.685  2.1029  0.5790  2.7029
 6738TIP3   OH241628   6.179   0.740   5.622 -0.3557 -0.3082 -0.3560
 6738TIP3    H141629   6.194   0.731   5.716 -0.8119 -0.0995 -0.2613
 6738TIP3    H241630   6.247   0.686   5.581  1.3996  1.5330  0.0241
 6739TIP3   OH241631   5.439   0.664   5.036 -0.3214 -0.0158  0.0135
 6739TIP3    H141632   5.419   0.655   5.129 -1.0174  0.3502 -0.0935
 6739TIP3    H241633   5.429   0.758   5.018  0.0542 -0.0488 -0.3705
 6740TIP3   OH241634   0.616   1.228  15.326 -0.0205 -0.6828 -0.1544
 6740TIP3    H141635   0.580   1.315  15.309  0.0373 -0.6520 -0.1156
 6740TIP3    H241636   0.539   1.173  15.339 -0.0740 -0.7404 -0.6894
 6741TIP3   OH241637   5.486   4.267  12.700  0.6839  0.6238 -0.2433
 6741TIP3    H141638   5.422   4.208  12.660  0.9077 -0.4892  1.0105
 6741TIP3    H241639   5.555   4.274  12.635  0.4152 -0.1082 -0.6208
 6742TIP3   OH241640   0.367   3.276  12.510 -0.6369 -0.2006  0.4910
 6742TIP3    H141641   0.301   3.294  12.577  0.7952 -0.3183  1.9660
 6742TIP3    H241642   0.318   3.235  12.439 -2.2749  0.3903  1.2396
 6743TIP3   OH241643   6.341   4.864   1.189 -0.1763 -0.5899 -0.2128
 6743TIP3    H141644   6.247   4.857   1.170 -0.6864 -2.7291  2.6243
 6743TIP3    H241645   6.383   4.810   1.122 -1.2643 -1.9921  0.1998
 6744TIP3   OH241646   4.772   4.613  13.628  0.2953  0.3773 -0.8219
 6744TIP3    H141647   4.749   4.530  13.669 -2.5182  2.5408  2.2236
 6744TIP3    H241648   4.859   4.634  13.664 -1.9182  2.0137  4.0524
 6745TIP3   OH241649   3.951   1.703   2.375  0.4728  0.3022  0.1942
 6745TIP3    H141650   3.891   1.640   2.414  0.7027 -0.2571 -0.3439
 6745TIP3    H241651   4.015   1.723   2.444  0.2930  0.0896  0.4210
 6746TIP3   OH241652   4.851   1.093  15.162  0.5503 -0.1633 -0.0342
 6746TIP3    H141653   4.785   1.126  15.224 -0.3722 -1.1223 -0.4768
 6746TIP3    H241654   4.858   0.999  15.183 -0.0005 -0.5619 -1.5746
 6747TIP3   OH241655   4.047   3.214  12.051 -0.0478  0.0470  0.2266
 6747TIP3    H141656   3.972   3.164  12.019  0.1684  1.3038 -2.2940
 6747TIP3    H241657   4.009   3.280  12.108 -0.8741  0.6886 -1.0543
 6748TIP3   OH241658   6.007   5.380   1.910  0.4801  0.0689  0.7648
 6748TIP3    H141659   5.970   5.341   1.988  1.0382  0.1044  1.0477
 6748TIP3    H241660   6.090   5.335   1.897  0.4228  0.1107  0.2330
 6749TIP3   OH241661   1.604   4.376   3.287  0.2724  0.3799  0.2275
 6749TIP3    H141662   1.540   4.307   3.273 -0.7904  1.3970 -0.0005
 6749TIP3    H241663   1.683   4.345   3.243 -0.1485 -0.7526  0.2661
 6750TIP3   OH241664   2.066   2.881   0.247 -0.1737  0.0613  0.4721
 6750TIP3    H141665   2.066   2.902   0.153  1.9504 -0.3660  0.3566
 6750TIP3    H241666   1.983   2.835   0.261 -0.6892  0.4659 -1.1239
 6751TIP3   OH241667   2.362   1.300   3.068  0.1574  0.1979  0.1084
 6751TIP3    H141668   2.270   1.283   3.088  0.6632 -0.0091  2.3552
 6751TIP3    H241669   2.407   1.286   3.151  2.4365 -1.2635 -1.3380
 6752TIP3   OH241670   3.457   1.731   0.575  0.0896  0.3460 -0.0361
 6752TIP3    H141671   3.493   1.740   0.663 -1.8248  1.6971  0.6416
 6752TIP3    H241672   3.376   1.782   0.577 -0.8869 -1.0541 -2.0576
 6753TIP3   OH241673   0.841   5.281  14.643 -0.3409 -0.7230 -0.3469
 6753TIP3    H141674   0.848   5.186  14.634 -0.4186 -0.7309 -0.3212
 6753TIP3    H241675   0.768   5.306  14.586 -1.0425 -0.8158  0.4944
 6754TIP3   OH241676   4.069   5.115   3.149  0.1526  0.9049  0.1897
 6754TIP3    H141677   4.025   5.195   3.178 -0.0685  1.3155 -1.2169
 6754TIP3    H241678   4.130   5.145   3.081  0.0868 -0.1155 -0.3312
 6755TIP3   OH241679   6.356   0.657   3.061 -0.0222  0.4179  0.1999
 6755TIP3    H141680   6.261   0.646   3.068  0.3791 -2.6623  1.4919
 6755TIP3    H241681   6.383   0.689   3.147  0.1879  0.6803  0.0366
 6756TIP3   OH241682   5.428   6.238  11.594  0.0870 -0.3752 -0.2532
 6756TIP3    H141683   5.393   6.220  11.681  0.8112 -0.4822  0.0202
 6756TIP3    H241684   5.420   6.154  11.548  3.8056 -1.6000  1.1427
 6757TIP3   OH241685   3.170   2.631  10.217 -0.0778 -0.7566 -0.0906
 6757TIP3    H141686   3.219   2.597  10.292 -0.7419 -0.3095  0.5572
 6757TIP3    H241687   3.174   2.561  10.152  0.8643 -0.9770  0.2027
 6758TIP3   OH241688   4.770   5.101  13.697 -0.4149 -0.0268 -0.1777
 6758TIP3    H141689   4.811   5.183  13.723 -0.5894  0.9498 -2.7630
 6758TIP3    H241690   4.842   5.042  13.677 -0.2834 -0.1346  0.6318
 6759TIP3   OH241691   0.700   0.416  13.697 -0.2357  0.4008 -0.3172
 6759TIP3    H141692   0.609   0.440  13.683 -0.0141  1.7778  0.4970
 6759TIP3    H241693   0.748   0.499  13.693  1.3809 -0.6247 -3.6666
 6760TIP3   OH241694   0.807   1.156   3.086 -0.0886  0.8351  0.1862
 6760TIP3    H141695   0.772   1.186   3.002  0.6548  2.0729  0.3057
 6760TIP3    H241696   0.768   1.069   3.098 -0.9921  1.0598 -0.9553
 6761TIP3   OH241697   4.035   5.392   2.845  0.1210  0.3482  0.3511
 6761TIP3    H141698   4.037   5.449   2.768 -0.2454  1.5221  1.1781
 6761TIP3    H241699   4.085   5.315   2.820 -0.2962  0.5590 -1.1821
 6762TIP3   OH241700   2.404   4.922  13.863  0.1751  0.0992  0.1098
 6762TIP3    H141701   2.315   4.894  13.841  0.2157  0.8731 -1.0744
 6762TIP3    H241702   2.456   4.901  13.786  0.8444  0.4826  0.4489
 6763TIP3   OH241703   6.457   5.206  13.168  0.8384 -0.3418  0.1456
 6763TIP3    H141704   6.424   5.251  13.246 -0.0558  0.3402 -0.6108
 6763TIP3    H241705   6.388   5.218  13.103  0.7898 -2.4433 -0.2074
 6764TIP3   OH241706   1.419   4.075  12.461 -0.0488  0.3917 -0.2225
 6764TIP3    H141707   1.383   4.045  12.378 -0.3032  2.0067 -0.7018
 6764TIP3    H241708   1.397   4.168  12.465  0.1800  0.3922  1.5346
 6765TIP3   OH241709   2.781   6.056  13.143 -0.1678 -0.8397  0.2726
 6765TIP3    H141710   2.784   6.000  13.221  3.2169 -0.3873  0.5536
 6765TIP3    H241711   2.815   5.999  13.073  2.5618  0.5284  0.4062
 6766TIP3   OH241712   0.145   3.372  16.504 -0.2772 -0.1834 -0.3638
 6766TIP3    H141713   0.162   3.399  16.414  1.3407  0.3838  0.0812
 6766TIP3    H241714   0.150   3.454  16.555  1.3951 -0.8315  0.5642
 6767TIP3   OH241715   1.389   1.863   3.743  0.5062 -0.0988 -0.4103
 6767TIP3    H141716   1.370   1.926   3.674 -2.1603 -0.6466 -0.2552
 6767TIP3    H241717   1.476   1.830   3.722  2.0013  3.6295 -0.4385
 6768TIP3   OH241718   1.106   4.193  11.821 -0.9293  0.2189 -0.1021
 6768TIP3    H141719   1.053   4.231  11.891  0.6696 -0.2531  1.4028
 6768TIP3    H241720   1.098   4.099  11.833  0.7926  0.1324  0.6090
 6769TIP3   OH241721   2.402   5.301  16.890 -0.1358  0.1966 -0.0013
 6769TIP3    H141722   2.388   5.317  16.983 -0.1483  1.5237 -0.2244
 6769TIP3    H241723   2.384   5.208  16.879 -2.7108  0.5665  0.8351
 6770TIP3   OH241724   0.313   0.015  16.765 -0.1023 -0.1937 -0.4392
 6770TIP3    H141725   0.277  -0.071  16.787 -1.7503  0.6838  0.3969
 6770TIP3    H241726   0.378   0.032  16.833 -0.3479 -0.4378 -0.1429
 6771TIP3   OH241727   2.895   1.269  17.030 -0.0792 -0.4190 -0.3515
 6771TIP3    H141728   2.945   1.342  16.994 -1.8086  2.2143  2.4192
 6771TIP3    H241729   2.939   1.248  17.112 -0.0139 -2.0950 -0.7890
 6772TIP3   OH241730   2.432   4.268  15.369  0.4278 -0.3860 -0.1452
 6772TIP3    H141731   2.489   4.345  15.363 -0.6461  0.3660 -0.9474
 6772TIP3    H241732   2.365   4.293  15.433 -0.1638 -0.4888 -0.7210
 6773TIP3   OH241733   2.573   1.469  14.589 -0.2676 -0.0787  0.2742
 6773TIP3    H141734   2.538   1.528  14.657 -0.8380 -0.5568  0.3969
 6773TIP3    H241735   2.595   1.389  14.637 -3.0341 -1.3628 -0.4898
 6774TIP3   OH241736   4.832   0.180  10.881  0.4441  0.1399  0.3641
 6774TIP3    H141737   4.808   0.088  10.887  0.7319  0.1278  1.4550
 6774TIP3    H241738   4.751   0.224  10.855 -0.1690 -0.1821  1.7140
 6775TIP3   OH241739   2.455   2.533  11.035  0.1649  0.4366  0.8208
 6775TIP3    H141740   2.454   2.617  10.988  0.5454 -1.8732 -3.5979
 6775TIP3    H241741   2.531   2.539  11.093  0.5573  2.9281  0.1287
 6776TIP3   OH241742   0.351   4.145   2.678 -0.0454 -0.2489 -0.1770
 6776TIP3    H141743   0.341   4.167   2.586 -0.3251 -1.4111 -0.4299
 6776TIP3    H241744   0.267   4.169   2.718 -0.1152 -0.2428 -0.3283
 6777TIP3   OH241745   3.580   6.144  11.116 -0.5001 -0.1542  0.4981
 6777TIP3    H141746   3.644   6.120  11.183 -1.8913  0.3972  2.0609
 6777TIP3    H241747   3.503   6.091  11.137 -1.2104  0.5788 -0.2226
 6778TIP3   OH241748   1.481   6.099   4.725  0.2472 -1.4869 -0.5100
 6778TIP3    H141749   1.441   6.087   4.811 -0.4286 -1.1819 -0.7769
 6778TIP3    H241750   1.535   6.021   4.712  2.6697 -0.2033  1.4262
 6779TIP3   OH241751   4.051   3.142  10.762  0.0302  0.9593  0.1696
 6779TIP3    H141752   3.990   3.215  10.774  0.3635  1.5186 -1.3392
 6779TIP3    H241753   4.012   3.089  10.693  1.5068  1.6697 -1.2653
 6780TIP3   OH241754   1.789   3.489  13.333 -0.3868 -0.0539 -0.3214
 6780TIP3    H141755   1.754   3.420  13.388 -2.4966  2.4085  1.5568
 6780TIP3    H241756   1.731   3.564  13.348  1.6101  2.0441 -2.5136
 6781TIP3   OH241757   2.617   3.906   2.093  0.3676 -0.1576 -0.6084
 6781TIP3    H141758   2.693   3.873   2.044  2.2253  1.1094  1.3209
 6781TIP3    H241759   2.542   3.881   2.040  2.1248 -1.5165 -2.5533
 6782TIP3   OH241760   0.349   5.897  16.449  0.2540 -0.4489 -0.0872
 6782TIP3    H141761   0.400   5.977  16.457 -0.0239 -0.2289 -0.4815
 6782TIP3    H241762   0.383   5.854  16.370 -0.3485 -0.1618 -0.5102
 6783TIP3   OH241763   4.412   1.976  12.048 -0.1042  0.1318 -0.0498
 6783TIP3    H141764   4.476   2.038  12.082  1.9967 -1.3106 -1.2816
 6783TIP3    H241765   4.428   1.895  12.097 -2.6169  0.4147  1.3378
 6784TIP3   OH241766   5.296   4.881   5.022  0.3788 -0.1030  0.6829
 6784TIP3    H141767   5.378   4.874   5.071  0.1632  0.2598  1.1019
 6784TIP3    H241768   5.301   4.812   4.956  2.5215  2.0299 -1.5132
 6785TIP3   OH241769   3.747   3.689  11.500  0.2132  0.3654 -0.1566
 6785TIP3    H141770   3.737   3.605  11.455 -0.9581  0.6307 -0.4059
 6785TIP3    H241771   3.810   3.672  11.570  0.4428 -0.5659 -0.5902
 6786TIP3   OH241772   1.601   6.748   4.474 -0.2109 -0.0727  0.3083
 6786TIP3    H141773   1.567   6.813   4.536  0.0326 -0.4936  0.8912
 6786TIP3    H241774   1.570   6.777   4.389 -2.2994 -0.6122  0.8479
 6787TIP3   OH241775   6.636   4.211   1.221  0.1330 -0.3480 -0.3135
 6787TIP3    H141776   6.596   4.124   1.221 -1.5416  0.3961  0.4381
 6787TIP3    H241777   6.680   4.217   1.306  0.2364 -0.4572 -0.3593
 6788TIP3   OH241778   5.478   4.187  13.645  0.1401  0.5701 -0.3152
 6788TIP3    H141779   5.476   4.129  13.721  0.3412  0.6611 -0.2371
 6788TIP3    H241780   5.488   4.275  13.683  0.4427  0.5964 -0.4550
 6789TIP3   OH241781   3.540   6.264   1.848  0.8518  0.7005  0.0012
 6789TIP3    H141782   3.486   6.285   1.925  0.9206 -0.9791  0.5377
 6789TIP3    H241783   3.537   6.168   1.843  1.4094  0.7642 -1.6977
 6790TIP3   OH241784   3.675   4.448   3.802  0.2040 -0.1245  0.1217
 6790TIP3    H141785   3.735   4.466   3.730 -1.0149  0.5384 -0.7311
 6790TIP3    H241786   3.613   4.385   3.767 -0.5817  0.4331  0.4967
 6791TIP3   OH241787   2.638   3.882   6.581  0.1151  0.3614 -0.2708
 6791TIP3    H141788   2.594   3.965   6.596  1.6100  1.4984 -1.9139
 6791TIP3    H241789   2.661   3.850   6.669  0.1512  2.0276  0.3392
 6792TIP3   OH241790   4.968   0.091   2.233  0.4551  0.4408  0.7033
 6792TIP3    H141791   4.877   0.073   2.254  0.0288  0.9495 -0.6561
 6792TIP3    H241792   4.993   0.160   2.295 -0.1633  0.5136  0.8770
 6793TIP3   OH241793   3.506   0.809   0.172 -0.0713 -0.0151  0.3471
 6793TIP3    H141794   3.594   0.774   0.162  0.2229  1.0301 -0.9193
 6793TIP3    H241795   3.473   0.816   0.083 -0.0819  2.9304  0.5305
 6794TIP3   OH241796   6.442   2.056  11.156 -0.2275 -0.4499 -0.0809
 6794TIP3    H141797   6.495   1.990  11.201  2.5542  1.1537 -0.8737
 6794TIP3    H241798   6.377   2.083  11.222  2.3800  0.2828  2.3095
 6795TIP3   OH241799   2.429   5.572   2.182  0.0557 -0.1312  0.1168
 6795TIP3    H141800   2.397   5.660   2.163 -1.0488 -0.6551 -0.4620
 6795TIP3    H241801   2.484   5.583   2.260  0.3811  1.1567 -0.2833
 6796TIP3   OH241802   1.375   5.993   0.853 -0.2859 -0.6924  0.0346
 6796TIP3    H141803   1.425   5.916   0.826  2.1995  0.2308  1.8421
 6796TIP3    H241804   1.437   6.066   0.844 -2.1999  0.9275 -0.4226
 6797TIP3   OH241805   6.674   5.733  14.217  0.3442  0.9669  0.7129
 6797TIP3    H141806   6.710   5.768  14.299  1.0006 -1.3713  1.4612
 6797TIP3    H241807   6.600   5.679  14.245  0.8712 -0.2381 -0.1879
 6798TIP3   OH241808   1.329   5.301  12.902 -0.4387  0.5883  0.1412
 6798TIP3    H141809   1.342   5.210  12.875  1.5305  1.3292 -1.5584
 6798TIP3    H241810   1.376   5.308  12.985  1.0097  0.5139 -0.6606
 6799TIP3   OH241811   2.832   1.140   1.424 -0.2736  0.3961 -0.1202
 6799TIP3    H141812   2.912   1.153   1.373  1.2849 -1.7100  1.7265
 6799TIP3    H241813   2.855   1.166   1.512 -1.9970  0.8870  0.2102
 6800TIP3   OH241814   5.535   6.060   4.179  0.1083  0.2833 -0.0127
 6800TIP3    H141815   5.481   6.039   4.103  1.1138 -0.7362 -0.4708
 6800TIP3    H241816   5.488   6.022   4.253  0.2591 -0.7140 -0.4211
 6801TIP3   OH241817   1.128   5.004  16.839 -0.1585  0.5455  0.2301
 6801TIP3    H141818   1.176   5.027  16.760  2.0052 -0.1969  1.2898
 6801TIP3    H241819   1.113   5.087  16.884  1.3020  0.6634  0.5214
 6802TIP3   OH241820   4.441   0.019  13.543 -0.2494 -0.3048  0.0227
 6802TIP3    H141821   4.528   0.053  13.564  1.0687 -2.0072 -2.4621
 6802TIP3    H241822   4.455  -0.073  13.522 -2.6164 -0.5591 -0.6027
 6803TIP3   OH241823   6.649   0.728  16.402  0.0602 -0.0343 -0.2057
 6803TIP3    H141824   6.679   0.671  16.332 -0.2732 -0.6605  0.1442
 6803TIP3    H241825   6.556   0.744  16.382  0.3152  0.9068 -0.6445
 6804TIP3   OH241826   6.120   1.331   0.777 -0.3438 -0.6498 -0.0431
 6804TIP3    H141827   6.163   1.318   0.693 -3.9546  0.9769 -2.2987
 6804TIP3    H241828   6.033   1.292   0.765 -1.3849  0.7855  2.4958
 6805TIP3   OH241829   6.195   3.258  12.271 -0.7635 -0.3387 -0.2357
 6805TIP3    H141830   6.110   3.213  12.274 -0.6512 -0.5902 -0.7997
 6805TIP3    H241831   6.211   3.285  12.362 -1.7275  0.2310 -0.2200
 6806TIP3   OH241832   3.681   1.527   1.991 -0.4538 -0.3917  0.5061
 6806TIP3    H141833   3.637   1.463   1.934  0.1984 -1.9625  1.7008
 6806TIP3    H241834   3.731   1.583   1.932 -0.9233 -1.0937 -0.5681
 6807TIP3   OH241835   1.060   3.084   1.468  0.5119  0.5567  0.2417
 6807TIP3    H141836   1.108   3.035   1.534  0.3059 -1.9290 -1.3625
 6807TIP3    H241837   1.110   3.072   1.387 -0.9020  0.8473 -0.7097
 6808TIP3   OH241838   3.589   5.369  14.048  0.2960 -0.3528 -0.4038
 6808TIP3    H141839   3.541   5.439  14.003  0.6632  0.8850  1.0773
 6808TIP3    H241840   3.625   5.411  14.126  1.0490 -2.0592  0.1957
 6809TIP3   OH241841   3.508   5.687  11.950 -0.4345  0.0371 -0.1183
 6809TIP3    H141842   3.561   5.766  11.943  1.6013 -1.2513  0.3187
 6809TIP3    H241843   3.556   5.631  12.011 -1.2470 -1.9985 -1.2929
 6810TIP3   OH241844   1.190   3.407  16.592 -0.1244 -0.4438 -0.0556
 6810TIP3    H141845   1.172   3.365  16.509 -2.3551  1.7936 -0.7773
 6810TIP3    H241846   1.111   3.393  16.644 -0.9638  2.8026 -0.3443
 6811TIP3   OH241847   3.286   5.641  14.313  0.4905 -0.0815  0.6818
 6811TIP3    H141848   3.369   5.679  14.342  0.9563 -1.1332  0.7641
 6811TIP3    H241849   3.226   5.653  14.387  0.5645  0.6864  0.6174
 6812TIP3   OH241850   4.372   1.865   0.427  0.1569  0.1731 -0.6235
 6812TIP3    H141851   4.343   1.815   0.503 -1.5042 -0.7567 -1.8166
 6812TIP3    H241852   4.455   1.825   0.402 -0.1887 -0.7168 -0.3718
 6813TIP3   OH241853   1.913   5.984   1.326 -0.1893  0.4644 -0.1307
 6813TIP3    H141854   1.920   6.016   1.236  0.2221 -0.2194 -0.3428
 6813TIP3    H241855   1.999   6.002   1.365 -0.3329  0.6651  0.0991
 6814TIP3   OH241856   4.511   5.012   4.662  0.6360  0.0509 -0.3626
 6814TIP3    H141857   4.555   5.005   4.578  1.5696 -0.3452  0.1582
 6814TIP3    H241858   4.564   4.960   4.722 -0.2293  0.0176  0.3954
 6815TIP3   OH241859   3.467   6.037  11.476 -0.6052  0.0561 -0.1715
 6815TIP3    H141860   3.427   6.065  11.558 -1.4249 -1.0725 -0.1820
 6815TIP3    H241861   3.560   6.058  11.487 -1.1303  2.5856 -0.1113
 6816TIP3   OH241862   5.217   1.825   5.233  0.8582  0.4486 -0.4595
 6816TIP3    H141863   5.159   1.761   5.192  0.4390 -0.0432  0.8878
 6816TIP3    H241864   5.188   1.829   5.324  1.7037  1.6200 -0.2312
 6817TIP3   OH241865   0.383   5.662   1.843  0.4376 -0.2716 -0.0920
 6817TIP3    H141866   0.305   5.700   1.885  1.5964  0.1930  1.6773
 6817TIP3    H241867   0.393   5.577   1.885  0.3744 -0.7114 -0.9634
 6818TIP3   OH241868   3.332   2.595  11.944 -0.3241 -0.0046 -0.1523
 6818TIP3    H141869   3.297   2.511  11.914 -2.8134  1.4183 -1.3779
 6818TIP3    H241870   3.374   2.633  11.867  0.6634 -0.0382  0.3622
 6819TIP3   OH241871   2.824   2.695  13.118 -0.3263  0.0501  0.1005
 6819TIP3    H141872   2.883   2.724  13.049 -2.5952  1.5438 -1.2657
 6819TIP3    H241873   2.864   2.615  13.151  0.5436 -0.9972 -3.2974
 6820TIP3   OH241874   1.346   3.602  14.215  0.0664 -0.5691 -0.2600
 6820TIP3    H141875   1.398   3.584  14.137 -0.7274 -0.3367 -0.8489
 6820TIP3    H241876   1.324   3.695  14.208  2.5062  0.2138  1.7631
 6821TIP3   OH241877   2.252   5.168   5.131  0.5974  0.1153  0.0347
 6821TIP3    H141878   2.263   5.142   5.223 -0.3720 -1.1101 -0.1815
 6821TIP3    H241879   2.157   5.173   5.119  0.6633 -2.1594 -1.5659
 6822TIP3   OH241880   2.540   0.954   2.252 -0.3656 -0.1088  0.0102
 6822TIP3    H141881   2.476   0.922   2.315 -1.7194 -0.9499 -1.7569
 6822TIP3    H241882   2.509   0.922   2.168  0.8971  1.8146 -1.2188
 6823TIP3   OH241883   3.923   4.886  12.940 -0.5192  0.6286  0.3037
 6823TIP3    H141884   3.931   4.803  12.987  1.1482 -0.5763 -2.0108
 6823TIP3    H241885   3.829   4.896  12.924 -0.8949  0.0992  2.1530
 6824TIP3   OH241886   3.446   4.050  15.272 -0.0959 -0.7858 -0.4456
 6824TIP3    H141887   3.389   4.113  15.228  0.5904  1.5639  1.8669
 6824TIP3    H241888   3.420   4.053  15.364  2.6588 -0.8138  0.4103
 6825TIP3   OH241889   0.106   3.499  11.564 -0.3866  0.8675 -0.0916
 6825TIP3    H141890   0.154   3.515  11.483  0.4780 -1.0920  0.0181
 6825TIP3    H241891   0.015   3.524  11.544 -0.7095 -2.0545 -2.4760
 6826TIP3   OH241892   4.790   4.257  16.860 -0.7650 -0.1228 -0.1989
 6826TIP3    H141893   4.868   4.311  16.852 -0.7612 -0.3229 -1.7378
 6826TIP3    H241894   4.791   4.202  16.782 -3.2012  0.9021 -1.0233
 6827TIP3   OH241895   6.501   1.245  13.855 -0.2664  0.2168 -0.1442
 6827TIP3    H141896   6.591   1.266  13.879  0.4867 -3.7952  0.7884
 6827TIP3    H241897   6.508   1.190  13.778 -1.9901  0.5497 -0.5683
 6828TIP3   OH241898   6.520   0.579  12.934 -0.5293 -0.2721  0.1381
 6828TIP3    H141899   6.558   0.614  13.015  0.8855 -1.1630 -0.1355
 6828TIP3    H241900   6.574   0.615  12.864 -1.3573 -0.0236 -0.3815
 6829TIP3   OH241901   3.784   1.564  13.654  0.8116 -0.3475 -0.1282
 6829TIP3    H141902   3.816   1.573  13.744  1.9689 -1.2975 -0.4324
 6829TIP3    H241903   3.748   1.476  13.649 -0.1394  0.0533 -0.3222
 6830TIP3   OH241904   1.157   3.933  13.277 -0.0462  0.3246 -0.4387
 6830TIP3    H141905   1.192   3.927  13.188 -1.5187 -2.8570 -0.8758
 6830TIP3    H241906   1.202   3.863  13.325 -1.5655 -0.0185  0.5022
 6831TIP3   OH241907   6.055   0.054   1.961  0.3297  0.0826 -0.4086
 6831TIP3    H141908   5.989  -0.011   1.937  0.7367 -0.5460  0.1609
 6831TIP3    H241909   6.047   0.063   2.056  1.3297 -0.2911 -0.2832
 6832TIP3   OH241910   0.412   0.202  10.872  0.0079 -0.4278  0.1805
 6832TIP3    H141911   0.384   0.279  10.922  1.7572 -0.2077  0.8723
 6832TIP3    H241912   0.390   0.223  10.782 -2.0244 -0.2855  0.6840
 6833TIP3   OH241913   4.546   1.960  10.766  0.0470  0.0584  0.8915
 6833TIP3    H141914   4.532   1.994  10.678  0.6260 -2.6595 -0.3119
 6833TIP3    H241915   4.625   2.004  10.797  0.1809  0.5869 -0.1873
 6834TIP3   OH241916   2.133   1.564  11.390  0.0197  0.0450 -0.0755
 6834TIP3    H141917   2.065   1.629  11.407 -0.9785 -1.4903  1.9683
 6834TIP3    H241918   2.203   1.587  11.451 -0.3628 -0.8336  0.6994
 6835TIP3   OH241919   4.568   4.081   3.874  0.1602  0.3317  0.0650
 6835TIP3    H141920   4.633   4.130   3.823 -1.0659  0.1168 -1.7300
 6835TIP3    H241921   4.620   4.025   3.931  1.5722  1.7783  0.2341
 6836TIP3   OH241922   1.772   0.218   2.594  0.2039 -0.2885 -0.2453
 6836TIP3    H141923   1.751   0.276   2.667 -1.3493 -1.0474 -0.0406
 6836TIP3    H241924   1.808   0.275   2.526  1.9707  0.3746  1.2339
 6837TIP3   OH241925   2.701   3.097  11.768  0.4570  0.1111  0.2495
 6837TIP3    H141926   2.689   3.191  11.778 -0.3044  0.0964 -0.4583
 6837TIP3    H241927   2.796   3.085  11.770  0.4964  0.6506  2.3513
 6838TIP3   OH241928   2.023   5.779  13.984  0.1137 -0.1593  0.2833
 6838TIP3    H141929   2.074   5.697  13.988  0.8647  0.1810 -1.7918
 6838TIP3    H241930   2.067   5.831  13.917 -2.4283  0.5393 -0.8966
 6839TIP3   OH241931   2.712   3.961  16.717 -0.3489 -0.2998  0.1944
 6839TIP3    H141932   2.687   4.042  16.762 -1.0075 -2.1320  3.3048
 6839TIP3    H241933   2.657   3.893  16.758  1.5513 -2.6133 -0.9909
 6840TIP3   OH241934   1.884   3.544   1.526  0.1427  0.2463  0.6775
 6840TIP3    H141935   1.878   3.505   1.613 -0.7945  2.6280  1.7380
 6840TIP3    H241936   1.961   3.601   1.530  0.7584 -0.4827 -0.4333
 6841TIP3   OH241937   6.240   2.882  13.597  0.3466 -0.0074  0.4951
 6841TIP3    H141938   6.318   2.844  13.637 -0.4070 -0.8533  1.1837
 6841TIP3    H241939   6.179   2.808  13.588 -0.0024  0.4359 -0.9533
 6842TIP3   OH241940   2.886   2.855   4.476 -0.0617 -0.0171  0.0886
 6842TIP3    H141941   2.903   2.950   4.471  1.1464 -0.2637 -0.6087
 6842TIP3    H241942   2.816   2.840   4.413 -1.3145  0.6482  1.2950
 6843TIP3   OH241943   3.927   2.157   3.784  0.3319  0.0707 -0.3109
 6843TIP3    H141944   3.855   2.096   3.766  2.3084 -2.4839  0.0651
 6843TIP3    H241945   3.987   2.145   3.711  1.5716  0.2922  0.6580
 6844TIP3   OH241946   1.852   1.493   4.720  0.3363 -0.3731 -0.4749
 6844TIP3    H141947   1.947   1.496   4.708  0.3731 -1.4521 -0.5009
 6844TIP3    H241948   1.818   1.567   4.669  1.1403 -0.1259 -0.6474
 6845TIP3   OH241949   2.045   5.153   0.577  0.4583  0.0919  0.1112
 6845TIP3    H141950   2.105   5.223   0.606 -0.9802  2.1467 -1.7050
 6845TIP3    H241951   1.991   5.135   0.654  1.3279  0.4813  0.8251
 6846TIP3   OH241952   2.969   3.059  11.824 -0.2913 -0.6030 -0.9400
 6846TIP3    H141953   2.950   3.046  11.917  0.9485  0.5019 -0.5152
 6846TIP3    H241954   3.012   2.979  11.796 -0.3428 -0.7913 -0.4688
 6847TIP3   OH241955   5.969   0.927  11.406 -0.6738 -0.4764  0.2206
 6847TIP3    H141956   6.037   0.867  11.375 -1.0454 -1.7506  1.7691
 6847TIP3    H241957   5.896   0.915  11.345 -0.3529 -0.8408 -0.0902
 6848TIP3   OH241958   0.971   3.460  16.097 -0.1575  0.1689  0.0651
 6848TIP3    H141959   0.950   3.461  16.191 -0.2276 -0.2186  0.0538
 6848TIP3    H241960   0.886   3.472  16.054  0.1361  2.3961  0.0829
 6849TIP3   OH241961   3.755   0.956  15.117  0.0252 -0.2570 -0.1475
 6849TIP3    H141962   3.783   0.872  15.154  0.9112  0.0931 -0.0054
 6849TIP3    H241963   3.810   0.968  15.040  0.8917  0.8480  0.6249
 6850TIP3   OH241964   1.444   0.220  13.672  0.1458  0.6534 -0.0810
 6850TIP3    H141965   1.515   0.157  13.683  0.6425  1.1567 -0.4020
 6850TIP3    H241966   1.484   0.305  13.692 -1.3849  0.5223  4.0336
 6851TIP3   OH241967   0.735   3.310   2.025  0.4796 -0.3023  0.2711
 6851TIP3    H141968   0.690   3.225   2.025 -1.2907  0.6065 -0.4425
 6851TIP3    H241969   0.745   3.332   1.933 -0.7446  1.1250  0.4666
 6852TIP3   OH241970   1.905   5.124   0.825 -0.0878  0.6333 -0.8128
 6852TIP3    H141971   1.830   5.065   0.829 -0.0023  0.5558 -0.3331
 6852TIP3    H241972   1.867   5.211   0.826 -0.1511  0.5998 -0.0544
 6853TIP3   OH241973   0.954   1.088   5.898 -0.0979 -0.1738 -0.2067
 6853TIP3    H141974   0.917   1.002   5.878  1.1246 -0.6681 -0.4051
 6853TIP3    H241975   1.038   1.069   5.939 -1.0917  0.8920  2.4242
 6854TIP3   OH241976   5.724   1.805  12.335  0.3145 -0.0899 -0.0969
 6854TIP3    H141977   5.766   1.735  12.285 -0.7645 -1.3616  0.7633
 6854TIP3    H241978   5.753   1.791  12.425  1.8328  1.8875 -0.2252
 6855TIP3   OH241979   4.099   4.758  16.268  0.3827 -0.0842 -0.1065
 6855TIP3    H141980   4.023   4.814  16.280  0.8486  0.2650  1.2410
 6855TIP3    H241981   4.163   4.813  16.222  0.6406  0.3311  0.7389
 6856TIP3   OH241982   0.850   1.897  15.825 -0.0565 -0.4030  0.1980
 6856TIP3    H141983   0.917   1.921  15.762  0.7368  1.1929  1.6338
 6856TIP3    H241984   0.786   1.847  15.774  0.9097  0.2809 -1.7126
 6857TIP3   OH241985   0.021   4.839  14.924 -0.1172 -0.7055  1.0994
 6857TIP3    H141986  -0.064   4.805  14.895 -0.5883 -0.4130  2.1346
 6857TIP3    H241987   0.000   4.900  14.995  0.8583  0.3958  0.4628
 6858TIP3   OH241988   4.345   4.769  14.128  0.4918 -0.0539  1.1450
 6858TIP3    H141989   4.332   4.762  14.223 -0.2564  0.2209  1.0712
 6858TIP3    H241990   4.259   4.746  14.091  0.8477 -0.4002  0.5251
 6859TIP3   OH241991   1.906   5.058  15.695 -0.4908  0.0238  0.3864
 6859TIP3    H141992   1.819   5.067  15.734 -0.2370  0.1181  0.9452
 6859TIP3    H241993   1.965   5.089  15.763  0.2063 -2.8758  1.1639
 6860TIP3   OH241994   2.079   0.048  16.500  0.1991 -0.6696  0.3786
 6860TIP3    H141995   2.110   0.008  16.581  0.4901  0.5028  0.8514
 6860TIP3    H241996   2.036   0.128  16.527  0.1379 -0.3585 -0.6151
 6861TIP3   OH241997   1.786   2.378   4.278 -0.1360 -0.1620  0.2737
 6861TIP3    H141998   1.740   2.422   4.349  1.1229  0.7247  0.5401
 6861TIP3    H241999   1.808   2.292   4.313  0.0245  0.0873  0.7809
 6862TIP3   OH242000   1.343   3.537   1.903  0.2888  0.0924  0.2835
 6862TIP3    H142001   1.389   3.619   1.919 -1.5316  1.3032 -0.6006
 6862TIP3    H242002   1.327   3.501   1.991  1.8424  0.2213  0.6403
 6863TIP3   OH242003   0.009   1.960   4.097 -0.5566 -0.0131 -0.9668
 6863TIP3    H142004  -0.004   1.875   4.137 -2.3207  0.6668 -0.0299
 6863TIP3    H242005   0.033   1.941   4.006 -0.4547 -1.4935 -0.6317
 6864TIP3   OH242006   1.195   0.088   1.834 -0.2288  0.1104 -0.3682
 6864TIP3    H142007   1.223   0.036   1.758  1.1281 -0.8257  0.7414
 6864TIP3    H242008   1.100   0.097   1.824 -0.0375  0.1341 -2.2517
 6865TIP3   OH242009   1.433   1.733  16.789  0.2763  0.0611 -0.1106
 6865TIP3    H142010   1.366   1.694  16.846 -0.0835 -0.2392 -0.7397
 6865TIP3    H242011   1.409   1.826  16.785  1.4796  0.4930  1.8699
 6866TIP3   OH242012   6.047   3.514   0.185  0.0143  0.5606 -0.0361
 6866TIP3    H142013   6.096   3.589   0.218  3.3226 -1.3473 -0.3295
 6866TIP3    H242014   6.062   3.516   0.090  0.9592 -1.0133  0.0698
 6867TIP3   OH242015   3.597   2.587   6.469 -0.1253 -0.5657 -0.0168
 6867TIP3    H142016   3.634   2.507   6.432 -1.7452 -1.1968 -0.3090
 6867TIP3    H242017   3.552   2.558   6.548  1.6866  0.4924  1.4406
 6868TIP3   OH242018   3.412   5.164   3.965 -0.3160 -0.4279 -0.8988
 6868TIP3    H142019   3.450   5.096   4.020  1.2297 -1.4040 -3.1233
 6868TIP3    H242020   3.381   5.118   3.887 -2.8338  0.8805 -0.7236
 6869TIP3   OH242021   1.827   1.745  17.060  0.3145  0.4299  0.7241
 6869TIP3    H142022   1.911   1.788  17.041  1.5997 -1.4252  1.9940
 6869TIP3    H242023   1.794   1.718  16.974  2.1944 -0.9038  0.3873
 6870TIP3   OH242024   5.183   5.999   5.940  0.1325  0.2477 -0.3367
 6870TIP3    H142025   5.118   5.979   5.873  0.4656 -1.5243 -0.1585
 6870TIP3    H242026   5.132   6.028   6.016 -0.3780  0.0505 -0.6016
 6871TIP3   OH242027   6.389   0.405  11.694  0.6146  0.1371  0.1036
 6871TIP3    H142028   6.322   0.412  11.762  1.4933 -3.0220  1.4105
 6871TIP3    H242029   6.464   0.454  11.729  0.1216  0.8967  0.1124
 6872TIP3   OH242030   6.066   6.065  14.212  0.0739 -0.0775  0.4777
 6872TIP3    H142031   6.006   6.080  14.285 -0.9532 -0.3086 -0.3079
 6872TIP3    H242032   6.011   6.071  14.134  1.1459  0.0714 -0.2754
 6873TIP3   OH242033   2.462   0.783   0.274  0.5771 -0.4559 -0.4292
 6873TIP3    H142034   2.397   0.786   0.204 -0.6634  0.3626  0.7450
 6873TIP3    H242035   2.500   0.695   0.267 -1.9269 -1.6085 -0.0059
 6874TIP3   OH242036   6.571   5.212   4.868  0.0080  0.1758 -0.0050
 6874TIP3    H142037   6.532   5.126   4.854 -0.1240  0.0523  1.0786
 6874TIP3    H242038   6.577   5.250   4.781 -0.2252 -0.8078 -0.4571
 6875TIP3   OH242039   5.530   6.478   0.585 -0.0302 -0.5682 -0.1471
 6875TIP3    H142040   5.507   6.406   0.643  0.3786 -0.3423  0.3016
 6875TIP3    H242041   5.570   6.436   0.509 -3.9257 -1.1369 -1.9715
 6876TIP3   OH242042   1.317   1.409  13.353 -0.3160  0.7938  0.6957
 6876TIP3    H142043   1.376   1.459  13.410  1.3205 -1.0748  0.6899
 6876TIP3    H242044   1.357   1.414  13.267 -2.1524  2.5893 -0.0975
 6877TIP3   OH242045   5.985   5.032   5.084 -0.3396 -0.6309 -0.6976
 6877TIP3    H142046   5.948   5.094   5.147  2.1982 -0.7687  0.9827
 6877TIP3    H242047   6.063   5.076   5.051  0.2023 -1.9751 -1.2214
 6878TIP3   OH242048   3.515   2.046   0.535 -0.4159  0.0519 -0.2095
 6878TIP3    H142049   3.586   2.012   0.589 -0.7085 -1.2983 -0.6694
 6878TIP3    H242050   3.435   2.015   0.577 -0.6812  0.0468 -0.7121
 6879TIP3   OH242051   0.862   5.240  17.023  0.0629 -0.3111  0.1469
 6879TIP3    H142052   0.801   5.302  17.062  0.5585 -0.6748  1.5295
 6879TIP3    H242053   0.884   5.180  17.094  1.5600 -0.5553 -0.5031
 6880TIP3   OH242054   6.456   3.141  12.253  0.3356  0.0400 -0.7925
 6880TIP3    H142055   6.479   3.083  12.180  0.7648  0.7523 -1.2274
 6880TIP3    H242056   6.364   3.163  12.239 -0.5807 -2.6008  0.7949
 6881TIP3   OH242057   3.424   4.059   6.005  0.0730 -0.6258 -0.0777
 6881TIP3    H142058   3.346   4.004   6.008 -0.2019 -0.1692  1.4387
 6881TIP3    H242059   3.493   4.005   6.045  1.0953 -1.8399 -3.2606
 6882TIP3   OH242060   2.610   6.349   2.619 -0.8011 -0.0373  0.6206
 6882TIP3    H142061   2.657   6.267   2.635 -0.6914 -0.1273 -0.1458
 6882TIP3    H242062   2.548   6.327   2.550 -1.8429  0.1360  1.4964
 6883TIP3   OH242063   0.784   4.564  16.874  0.1262  0.1450 -0.2793
 6883TIP3    H142064   0.709   4.524  16.919 -1.4275  2.1143 -1.0712
 6883TIP3    H242065   0.856   4.555  16.935 -0.4235 -2.9305 -0.0068
 6884TIP3   OH242066   1.389   4.524   4.298 -0.1752 -0.0870  0.0986
 6884TIP3    H142067   1.401   4.504   4.205 -0.7398 -0.4648  0.1034
 6884TIP3    H242068   1.321   4.463   4.327 -0.3369  0.3536  0.6475
 6885TIP3   OH242069   2.460   3.095   0.441  0.0200  0.1622  0.0564
 6885TIP3    H142070   2.456   3.000   0.432  1.4576  0.2353 -1.5794
 6885TIP3    H242071   2.378   3.118   0.485 -0.6199 -1.7612 -0.0669
 6886TIP3   OH242072   0.099   2.758  12.928 -0.3776 -0.0154 -0.3838
 6886TIP3    H142073   0.072   2.790  12.842 -1.5565 -1.1835 -0.4698
 6886TIP3    H242074   0.171   2.699  12.911 -1.6390 -1.4845 -0.7482
 6887TIP3   OH242075   1.166   5.864   5.345  0.1295 -0.0190  1.2145
 6887TIP3    H142076   1.226   5.897   5.411  0.5396  0.1970  0.7330
 6887TIP3    H242077   1.218   5.858   5.265 -0.4149 -0.0853  0.8607
 6888TIP3   OH242078   3.220   0.053  13.478 -0.3714  0.6835  0.5251
 6888TIP3    H142079   3.283   0.124  13.489 -0.6537  0.8752  0.9456
 6888TIP3    H242080   3.272  -0.027  13.486  0.0415  0.8414 -0.5213
 6889TIP3   OH242081   0.572   4.284   4.119  0.4791  0.5744  0.1316
 6889TIP3    H142082   0.497   4.230   4.093 -0.2978  0.6091  2.1459
 6889TIP3    H242083   0.533   4.364   4.154  1.3900  0.3248  1.8089
 6890TIP3   OH242084   0.075   6.618  10.955  0.0676 -0.0259 -0.2512
 6890TIP3    H142085   0.039   6.531  10.966 -0.6408  0.5609  2.3095
 6890TIP3    H242086   0.119   6.615  10.870  2.5028 -3.7116  1.0112
 6891TIP3   OH242087   0.660   5.923  11.892 -0.8595  0.0394 -0.6929
 6891TIP3    H142088   0.664   5.975  11.812 -0.6326  1.2089  0.0828
 6891TIP3    H242089   0.671   5.986  11.963 -2.2170 -0.8274  0.3092
 6892TIP3   OH242090   0.201   0.981   5.382  0.4065  0.2400  0.3460
 6892TIP3    H142091   0.213   1.052   5.318  3.5267 -0.3069  0.2779
 6892TIP3    H242092   0.249   1.009   5.459 -0.5721 -0.6253  1.2914
 6893TIP3   OH242093   5.749   2.382   2.670 -0.1544 -0.5448 -0.0972
 6893TIP3    H142094   5.770   2.419   2.585  1.4994 -0.0786  0.4917
 6893TIP3    H242095   5.807   2.307   2.678 -0.2286 -0.5243  0.6664
 6894TIP3   OH242096   0.775   5.334   3.256  0.0360  0.7029 -0.9430
 6894TIP3    H142097   0.803   5.402   3.194 -0.5559  1.2342 -0.6320
 6894TIP3    H242098   0.831   5.348   3.333 -0.3339  1.0719 -0.7394
 6895TIP3   OH242099   4.951   5.269   3.164  0.3702  0.4287 -0.4626
 6895TIP3    H142100   4.881   5.263   3.229  1.2365  0.4270  0.4816
 6895TIP3    H242101   4.916   5.225   3.086 -0.7784  0.6759 -0.0918
 6896TIP3   OH242102   1.770   2.022   5.461  0.3301  0.4097  0.7777
 6896TIP3    H142103   1.816   2.104   5.441  0.6747 -0.2813 -1.3166
 6896TIP3    H242104   1.709   2.011   5.388 -0.7081 -0.4849  1.7746
 6897TIP3   OH242105   1.182   0.160  14.394 -0.0149 -0.2032 -0.2732
 6897TIP3    H142106   1.158   0.170  14.302 -1.8458 -4.2654 -0.3170
 6897TIP3    H242107   1.195   0.250  14.425  0.0292  1.2693 -4.3052
 6898TIP3   OH242108   6.115   1.220   6.103  0.1427 -0.0503 -0.0333
 6898TIP3    H142109   6.205   1.190   6.116  0.5649  0.5327 -1.5266
 6898TIP3    H242110   6.105   1.292   6.165  0.3494 -0.8256  0.9049
 6899TIP3   OH242111   5.100   1.392  11.104 -0.0651 -0.7263  0.3580
 6899TIP3    H142112   5.184   1.415  11.143  1.0078 -2.5700 -0.7617
 6899TIP3    H242113   5.119   1.383  11.010 -1.6637 -0.5313 -0.0008
 6900TIP3   OH242114   1.511   1.001  16.274  0.3625 -0.4995  0.4922
 6900TIP3    H142115   1.573   0.952  16.220  0.1645  0.9088 -1.0668
 6900TIP3    H242116   1.520   1.091  16.245 -0.9396  0.0376  1.6964
 6901TIP3   OH242117   6.219   3.222   0.097  0.2691 -0.1991  0.1330
 6901TIP3    H142118   6.298   3.214   0.150 -1.1424 -1.4445  2.1449
 6901TIP3    H242119   6.154   3.261   0.155 -0.6385  0.7155 -1.4459
 6902TIP3   OH242120   3.946   5.900   6.267 -0.5407 -0.3277 -0.1774
 6902TIP3    H142121   3.961   5.957   6.343 -1.9594  1.1891 -1.0171
 6902TIP3    H242122   4.012   5.925   6.204 -1.0212  0.2297 -0.4590
 6903TIP3   OH242123   4.535   6.607  13.969  0.1880 -0.1406 -1.1099
 6903TIP3    H142124   4.440   6.613  13.967  0.1898  1.7189  1.2982
 6903TIP3    H242125   4.565   6.698  13.967  1.9609 -0.7392 -2.9235
 6904TIP3   OH242126   5.748   6.169  12.574  0.0141 -0.2362  0.3188
 6904TIP3    H142127   5.740   6.161  12.479 -2.4390  1.2075  0.3589
 6904TIP3    H242128   5.755   6.079  12.605  0.9439 -0.7199 -1.2300
 6905TIP3   OH242129   6.646   4.729  11.395  0.4225  0.4059 -0.0197
 6905TIP3    H142130   6.694   4.795  11.345 -1.3741  0.3564 -1.8846
 6905TIP3    H242131   6.679   4.737  11.484  1.6251  2.4885 -0.6336
 6906TIP3   OH242132   0.313   3.687  14.212 -0.2341  0.2055  0.3955
 6906TIP3    H142133   0.253   3.728  14.274  1.1890  0.2628  1.7448
 6906TIP3    H242134   0.400   3.717  14.237  0.4582 -0.4714 -1.0793
 6907TIP3   OH242135   1.472   5.516  14.690 -0.1400 -0.6580  0.1540
 6907TIP3    H142136   1.422   5.593  14.663  1.5390 -0.0004 -1.2259
 6907TIP3    H242137   1.468   5.516  14.786 -0.3300  1.0357  0.1526
 6908TIP3   OH242138   0.018   5.231   1.548  0.1387  0.4243 -0.0447
 6908TIP3    H142139  -0.059   5.216   1.493  0.3752 -1.5193  0.1369
 6908TIP3    H242140   0.002   5.180   1.627  2.2500 -1.1620 -0.6030
 6909TIP3   OH242141   5.862   3.771  11.436 -0.5091  0.1435  0.9877
 6909TIP3    H142142   5.875   3.829  11.361 -0.2502 -2.1420 -0.8094
 6909TIP3    H242143   5.948   3.766  11.478  0.2778 -1.4175 -0.7398
 6910TIP3   OH242144   5.167   4.347   5.121 -0.2803  0.2239 -0.6682
 6910TIP3    H142145   5.102   4.336   5.190  0.5959  0.5333  0.2142
 6910TIP3    H242146   5.181   4.442   5.116  2.0886  0.0031  1.0301
 6911TIP3   OH242147   6.360   5.719   0.451 -0.1727  0.0519  0.2075
 6911TIP3    H142148   6.348   5.692   0.360  0.0546  1.4364 -0.2494
 6911TIP3    H242149   6.277   5.761   0.474 -0.1053  0.0088  0.5247
 6912TIP3   OH242150   2.990   1.259   2.867 -0.7706  0.7192 -0.1493
 6912TIP3    H142151   3.076   1.300   2.875  1.4000 -3.4316 -0.8108
 6912TIP3    H242152   2.940   1.292   2.942  2.7482  0.0818  2.5514
 6913TIP3   OH242153   3.315   4.206   1.302  0.6488 -0.4173 -0.3701
 6913TIP3    H142154   3.258   4.265   1.352  1.2362 -0.2928  0.1590
 6913TIP3    H242155   3.294   4.119   1.336 -1.0844 -0.6706 -1.9861
 6914TIP3   OH242156   0.821   5.973   0.209  0.0131 -0.1601 -0.0987
 6914TIP3    H142157   0.868   5.893   0.185  0.7277  0.1588  0.2168
 6914TIP3    H242158   0.876   6.014   0.275 -0.8596  0.0729  0.5003
 6915TIP3   OH242159   0.329   6.542  11.543 -0.2821  0.1100  0.6010
 6915TIP3    H142160   0.249   6.587  11.567  0.4803  1.9366 -0.2431
 6915TIP3    H242161   0.301   6.455  11.515 -1.9420  0.7397  0.3072
 6916TIP3   OH242162   1.825   2.054   0.967  0.0721 -0.8988 -0.3740
 6916TIP3    H142163   1.851   2.008   0.887 -0.0367 -0.1520 -0.8416
 6916TIP3    H242164   1.762   2.120   0.938  1.1011  0.3285  0.1222
 6917TIP3   OH242165   4.860   5.344  11.456  0.4164 -0.6342 -0.1034
 6917TIP3    H142166   4.769   5.361  11.479  0.6266 -0.4179  0.5813
 6917TIP3    H242167   4.902   5.319  11.538  1.3041  0.7131 -0.1171
 6918TIP3   OH242168   5.234   6.048  13.183  0.3287  0.7478  0.0972
 6918TIP3    H142169   5.202   6.135  13.206 -0.9290 -0.1772  1.9825
 6918TIP3    H242170   5.318   6.040  13.228 -0.9418 -0.0975  2.4108
 6919TIP3   OH242171   0.582   3.073   2.076  0.0262 -0.5163 -0.1240
 6919TIP3    H142172   0.567   3.021   1.998 -2.6301 -0.1556  0.1124
 6919TIP3    H242173   0.594   3.009   2.146 -1.2291 -0.8389 -0.1954
 6920TIP3   OH242174   5.385   6.064  12.367 -0.1812 -0.2115  0.0058
 6920TIP3    H142175   5.347   6.011  12.437  2.6774 -0.7559  1.2060
 6920TIP3    H242176   5.411   6.001  12.301  1.7098 -0.1830  0.7013
 6921TIP3   OH242177   4.058   0.001   1.578 -0.4808  0.0081 -0.2773
 6921TIP3    H142178   4.115   0.024   1.505  0.0578  2.3494  0.8490
 6921TIP3    H242179   3.970   0.023   1.547 -0.3240  0.3742 -0.4618
 6922TIP3   OH242180   3.388   4.450   4.994  0.3972  0.0501  0.2635
 6922TIP3    H142181   3.296   4.429   4.979  0.0266 -0.5846  2.9751
 6922TIP3    H242182   3.392   4.545   4.994 -0.3614  0.0884  0.5237
 6923TIP3   OH242183   4.053   3.705   2.487  0.1383 -0.3118  0.0524
 6923TIP3    H142184   4.105   3.650   2.429  0.4287 -2.3672  2.1743
 6923TIP3    H242185   4.080   3.679   2.575 -1.7843  1.2431  1.1457
 6924TIP3   OH242186   3.418   1.234   2.444 -0.0950  0.2150  0.2856
 6924TIP3    H142187   3.446   1.310   2.495  0.9278  0.3841 -0.5203
 6924TIP3    H242188   3.457   1.159   2.491  0.9117  0.3764 -0.2848
 6925TIP3   OH242189   0.301   0.970   3.619  0.3624 -0.4501 -0.0187
 6925TIP3    H142190   0.333   1.055   3.588  0.2603 -0.4714 -0.1870
 6925TIP3    H242191   0.206   0.973   3.603  0.5193 -1.0639 -1.1718
 6926TIP3   OH242192   5.844   0.570   2.002 -0.4755  0.1795  0.1529
 6926TIP3    H142193   5.796   0.564   1.919 -0.0338  1.3079 -0.1990
 6926TIP3    H242194   5.775   0.584   2.068 -0.7526  0.3107 -0.1604
 6927TIP3   OH242195   0.194   5.374   2.613 -0.4417  0.1347 -0.1534
 6927TIP3    H142196   0.219   5.423   2.691  1.7610 -1.1952  0.0325
 6927TIP3    H242197   0.137   5.305   2.645 -1.0054  0.6741  0.0171
 6928TIP3   OH242198   6.680   4.952  16.559  0.0089  0.4878  0.1099
 6928TIP3    H142199   6.600   4.990  16.523 -1.1791 -2.1580 -0.0968
 6928TIP3    H242200   6.658   4.931  16.650  0.2562 -0.7812 -0.1143
 6929TIP3   OH242201   2.736   0.308   1.734 -0.2971  0.2296  0.3664
 6929TIP3    H142202   2.714   0.226   1.778 -0.0896  0.9719  1.8690
 6929TIP3    H242203   2.757   0.368   1.805 -2.2446  2.1188 -0.6000
 6930TIP3   OH242204   0.820   1.579   1.319  0.0435  0.2045 -0.9118
 6930TIP3    H142205   0.727   1.601   1.330 -0.3352 -0.5881 -2.4082
 6930TIP3    H242206   0.852   1.645   1.258  0.5918  0.7609 -0.0335
 6931TIP3   OH242207   2.409   5.244   3.535  0.1090 -0.5996  0.0750
 6931TIP3    H142208   2.337   5.298   3.567  0.3327 -1.3942  2.0389
 6931TIP3    H242209   2.440   5.288   3.456 -0.2939  1.6600  1.1329
 6932TIP3   OH242210   2.891   0.071  11.772 -0.2478 -0.0145 -0.0705
 6932TIP3    H142211   2.872   0.145  11.829 -0.3827 -0.0289 -0.0974
 6932TIP3    H242212   2.867  -0.006  11.823 -0.4688 -0.0229 -0.1858
 6933TIP3   OH242213   1.676   5.142  13.746 -0.1866  0.7257  0.1597
 6933TIP3    H142214   1.734   5.109  13.678 -0.4700  1.6475 -0.5472
 6933TIP3    H242215   1.646   5.064  13.793 -1.5573 -0.1117 -2.0335
 6934TIP3   OH242216   1.774   2.680  12.940  0.3877 -0.4513 -0.0886
 6934TIP3    H142217   1.761   2.586  12.927  0.5063 -0.7013  1.5545
 6934TIP3    H242218   1.866   2.694  12.918  1.3945 -1.3988  3.3125
 6935TIP3   OH242219   1.357   1.644  12.268  0.1882 -0.5407 -0.3925
 6935TIP3    H142220   1.275   1.616  12.228 -0.9425  1.3571  0.4913
 6935TIP3    H242221   1.353   1.740  12.266  1.5383 -0.4136  1.3108
 6936TIP3   OH242222   5.581   6.386  11.312 -0.3124  0.2181  0.5469
 6936TIP3    H142223   5.659   6.440  11.312  1.4244 -2.2190  0.5154
 6936TIP3    H242224   5.565   6.367  11.405 -1.3165  1.3159  0.6104
 6937TIP3   OH242225   6.044   5.185   5.355  0.1736 -0.3184 -0.0902
 6937TIP3    H142226   5.995   5.263   5.379  1.6582  0.0542  1.8465
 6937TIP3    H242227   6.104   5.214   5.287 -0.6544 -0.2498 -0.8035
 6938TIP3   OH242228   0.556   1.227  13.432  0.1090  0.2582 -0.1129
 6938TIP3    H142229   0.623   1.163  13.408  0.9501  0.5952  1.3174
 6938TIP3    H242230   0.591   1.311  13.401  0.3612  0.4362  0.6506
 6939TIP3   OH242231   4.718   6.586  12.274 -0.2389  0.1540  0.5227
 6939TIP3    H142232   4.748   6.506  12.232 -2.8048 -0.6678  0.1389
 6939TIP3    H242233   4.736   6.573  12.367  0.4322 -0.3594  0.3242
 6940TIP3   OH242234   0.476   3.993  10.406 -0.1012  0.5245 -0.2292
 6940TIP3    H142235   0.418   4.029  10.473 -0.5872 -0.6175 -0.0221
 6940TIP3    H242236   0.540   3.941  10.455 -1.2541 -1.4106 -0.7182
 6941TIP3   OH242237   5.428   6.298   1.480  0.0662 -0.2837  0.2419
 6941TIP3    H142238   5.348   6.308   1.428  0.7541 -1.2949 -1.0371
 6941TIP3    H242239   5.461   6.387   1.490 -1.2240  0.1400  0.7826
 6942TIP3   OH242240   2.181   0.673  14.321 -0.4853  0.0821 -0.1351
 6942TIP3    H142241   2.182   0.748  14.379  1.4397  0.3478 -0.4773
 6942TIP3    H242242   2.185   0.597  14.379 -1.2755  0.2555  0.1586
 6943TIP3   OH242243   2.068   3.131  13.244  0.2130 -0.0389  0.2450
 6943TIP3    H142244   2.132   3.155  13.311  0.1224 -1.7636  0.9959
 6943TIP3    H242245   2.105   3.053  13.202 -0.1983  0.4514 -1.0629
 6944TIP3   OH242246   5.270   5.720  12.260 -0.0379  0.0987  0.0307
 6944TIP3    H142247   5.331   5.777  12.307  0.3473  0.2636 -0.6520
 6944TIP3    H242248   5.310   5.633  12.265 -0.2088  0.0394  0.3672
 6945TIP3   OH242249   1.529   0.430   1.933  0.6035  0.0483 -0.1850
 6945TIP3    H142250   1.467   0.492   1.971  1.3621  0.5357  0.2754
 6945TIP3    H242251   1.615   0.467   1.952  1.0200  0.0797 -1.9807
 6946TIP3   OH242252   0.590   1.595  14.805 -0.6793 -0.4671 -0.0431
 6946TIP3    H142253   0.682   1.611  14.784 -0.9247  0.1797 -0.6401
 6946TIP3    H242254   0.542   1.652  14.745 -1.4566 -0.5759  0.4772
 6947TIP3   OH242255   1.342   4.318   1.985  0.2183 -0.3616 -0.1304
 6947TIP3    H142256   1.304   4.295   1.900 -0.5056 -0.1152  0.1244
 6947TIP3    H242257   1.290   4.269   2.048 -0.2005  0.5945  0.2805
 6948TIP3   OH242258   4.217   2.418  11.640 -0.4634 -0.4875  0.2933
 6948TIP3    H142259   4.240   2.482  11.708 -0.0534  0.1741 -0.4577
 6948TIP3    H242260   4.276   2.344  11.655  0.8962  0.4241 -0.4642
 6949TIP3   OH242261   2.395   1.880   5.289  0.1460 -0.4137 -0.4065
 6949TIP3    H142262   2.462   1.835   5.237  1.0430 -0.7815  1.0492
 6949TIP3    H242263   2.427   1.970   5.297  1.7494 -1.1575  2.3425
 6950TIP3   OH242264   0.889   5.275   4.896 -0.2150 -0.2588 -0.0543
 6950TIP3    H142265   0.855   5.191   4.865 -2.0336  0.4937 -0.1049
 6950TIP3    H242266   0.825   5.340   4.868  1.8221  1.3507 -1.1947
 6951TIP3   OH242267   6.451   1.863  13.155  0.5416 -0.0034 -0.7721
 6951TIP3    H142268   6.489   1.793  13.207  0.3705  0.3484 -0.1750
 6951TIP3    H242269   6.498   1.859  13.072 -0.2140 -1.5479 -1.1613
 6952TIP3   OH242270   5.536   4.668  11.805  0.0036  0.0258 -0.1784
 6952TIP3    H142271   5.511   4.703  11.890  0.8254  0.1649  0.0048
 6952TIP3    H242272   5.472   4.599  11.788 -0.0821 -0.0895  0.6080
 6953TIP3   OH242273   6.664   6.645   3.965  0.1756  0.8083 -0.6386
 6953TIP3    H142274   6.595   6.711   3.953 -1.2330 -0.6026 -0.4772
 6953TIP3    H242275   6.746   6.693   3.950 -0.8052  2.6245 -0.3642
 6954TIP3   OH242276   3.180   5.558   0.172  0.3820 -0.2364 -0.0511
 6954TIP3    H142277   3.251   5.548   0.235  0.7152  1.0300 -0.2125
 6954TIP3    H242278   3.203   5.500   0.100  0.9786 -0.2357  0.1360
 6955TIP3   OH242279   0.039   2.367   1.993 -0.5463 -0.2241 -0.1055
 6955TIP3    H142280   0.120   2.360   1.944  0.7621 -1.0470  2.0958
 6955TIP3    H242281   0.025   2.461   2.004 -1.6958  0.0285 -3.3188
 6956TIP3   OH242282   2.373   0.558  14.798 -1.5724 -0.3760 -0.0985
 6956TIP3    H142283   2.297   0.500  14.799 -1.5880 -0.3456  0.2927
 6956TIP3    H242284   2.444   0.506  14.835 -1.2661 -0.5929 -0.9713
 6957TIP3   OH242285   0.881   4.486  15.625 -0.3306  0.2993  0.2126
 6957TIP3    H142286   0.835   4.416  15.578 -0.0124 -0.1459  0.5664
 6957TIP3    H242287   0.811   4.539  15.663 -0.6629  1.4784 -1.9090
 6958TIP3   OH242288   2.930   3.277  17.004  0.4602  0.3329 -0.1558
 6958TIP3    H142289   2.933   3.324  16.920 -0.6602 -0.8114 -0.8529
 6958TIP3    H242290   2.956   3.343  17.069  2.1487  1.0191 -1.4812
 6959TIP3   OH242291   5.262   5.411  11.462 -0.1277  0.3637  0.3896
 6959TIP3    H142292   5.218   5.431  11.379  0.1689 -1.2570 -0.1826
 6959TIP3    H242293   5.352   5.440  11.449  0.4396 -1.6973 -0.6349
 6960TIP3   OH242294   2.133   1.864   0.451  0.3369 -0.3807 -0.0314
 6960TIP3    H142295   2.202   1.929   0.463 -1.5558  2.0448 -1.7852
 6960TIP3    H242296   2.175   1.793   0.403  1.6531  1.0135 -0.9731
 6961TIP3   OH242297   4.307   0.011  12.831  0.1587  0.1580 -0.1933
 6961TIP3    H142298   4.340   0.082  12.776  1.3881 -1.0840 -1.0904
 6961TIP3    H242299   4.219   0.038  12.856 -1.1628 -0.1342 -4.3175
 6962TIP3   OH242300   1.125   4.418   1.076  0.0264 -0.2512 -0.0362
 6962TIP3    H142301   1.090   4.441   1.163  1.3368 -0.1625  0.4754
 6962TIP3    H242302   1.181   4.342   1.093 -1.8297 -1.9433 -1.2313
 6963TIP3   OH242303   5.163   0.285   5.984  0.7180 -0.1745  0.0764
 6963TIP3    H142304   5.242   0.291   6.037  0.8592  1.2496 -0.2719
 6963TIP3    H242305   5.181   0.216   5.920  0.1244 -2.6718  2.5437
 6964TIP3   OH242306   0.235   1.750  13.485 -0.1398 -0.2266  0.1843
 6964TIP3    H142307   0.330   1.744  13.471 -0.1171 -0.4284  0.4114
 6964TIP3    H242308   0.223   1.719  13.575 -0.5725 -1.4858 -0.3110
 6965TIP3   OH242309   4.333   6.157  13.075 -1.0198  0.2089 -0.0403
 6965TIP3    H142310   4.303   6.173  12.986 -0.8409 -1.7257 -0.4688
 6965TIP3    H242311   4.331   6.243  13.117 -1.9700  0.9823 -1.6357
 6966TIP3   OH242312   5.246   4.520   0.601  0.2088  0.0688 -0.3034
 6966TIP3    H142313   5.202   4.435   0.590  0.2717 -0.0813  0.5481
 6966TIP3    H242314   5.186   4.571   0.655  1.1240 -0.1956  0.9983
 6967TIP3   OH242315   1.044   3.175   0.452 -0.4223 -0.0445  0.4585
 6967TIP3    H142316   1.023   3.102   0.511 -1.3282  0.3510  0.6418
 6967TIP3    H242317   1.051   3.135   0.365  1.5040 -0.7245  0.8979
 6968TIP3   OH242318   0.710   2.401   4.016  0.0819 -0.5307  0.2148
 6968TIP3    H142319   0.766   2.445   3.952 -0.8712 -1.8173 -1.5270
 6968TIP3    H242320   0.630   2.454   4.017 -0.3824 -1.2073 -0.5857
 6969TIP3   OH242321   1.995   5.566   4.243  0.1560  0.6588 -0.5195
 6969TIP3    H142322   1.975   5.502   4.311 -0.3983  1.0860 -0.2779
 6969TIP3    H242323   2.090   5.579   4.249  0.1729  0.3549 -0.1394
 6970TIP3   OH242324   3.831   1.669   2.945 -0.1118  0.1219  0.1806
 6970TIP3    H142325   3.758   1.704   2.996 -1.8463 -0.4597 -1.7853
 6970TIP3    H242326   3.867   1.744   2.899 -0.0279  0.2847  0.5167
 6971TIP3   OH242327   1.202   6.226   4.663 -0.3535  0.4142  0.6660
 6971TIP3    H142328   1.221   6.156   4.726 -0.4520  0.9221  1.2588
 6971TIP3    H242329   1.288   6.247   4.624 -0.4212 -0.5017 -0.0158
 6972TIP3   OH242330   2.671   4.545   1.348 -0.7555  0.1290 -0.0551
 6972TIP3    H142331   2.602   4.538   1.414  0.1504  0.7175  0.9543
 6972TIP3    H242332   2.681   4.455   1.316 -0.6428 -0.3037  1.1695
 6973TIP3   OH242333   3.828   6.090  12.220  0.4460 -0.1695 -0.2263
 6973TIP3    H142334   3.759   6.028  12.246  1.4155 -0.6595  1.2494
 6973TIP3    H242335   3.881   6.042  12.157  0.1958 -0.2465 -0.3778
 6974TIP3   OH242336   4.964   5.840  15.275 -0.1086  0.2422 -0.3115
 6974TIP3    H142337   4.881   5.806  15.242 -1.4402  0.2358  2.8850
 6974TIP3    H242338   4.942   5.925  15.313  1.5550  0.7068 -0.3365
 6975TIP3   OH242339   0.840   0.258   4.928 -0.1171  0.3959 -0.1949
 6975TIP3    H142340   0.765   0.198   4.920 -0.2385  0.3600  1.0168
 6975TIP3    H242341   0.916   0.205   4.905 -0.1616 -0.4083  1.3879
 6976TIP3   OH242342   4.703   5.001  11.481  0.4974  0.3682 -0.3504
 6976TIP3    H142343   4.692   5.056  11.403 -0.8979  0.1429 -0.3250
 6976TIP3    H242344   4.795   4.973  11.478 -0.2778 -2.0513 -3.4948
 6977TIP3   OH242345   4.508   3.684   1.809 -0.1201 -0.1371 -0.2724
 6977TIP3    H142346   4.522   3.652   1.720 -0.4765 -1.1736  0.0442
 6977TIP3    H242347   4.523   3.779   1.803 -0.5634 -0.1433 -1.5165
 6978TIP3   OH242348   3.211   0.835   3.656  0.1788 -0.4648 -0.3207
 6978TIP3    H142349   3.124   0.876   3.655 -0.1567 -1.1838 -2.6471
 6978TIP3    H242350   3.272   0.907   3.670 -0.7743  0.0316  1.4603
 6979TIP3   OH242351   1.033   6.517   0.602 -0.3857 -0.0413 -1.0684
 6979TIP3    H142352   1.101   6.474   0.550 -1.5087 -2.0177 -0.9745
 6979TIP3    H242353   1.076   6.540   0.684  0.7197  0.7155 -1.8465
 6980TIP3   OH242354   6.706   6.384  13.202 -0.0389  0.2817 -0.6049
 6980TIP3    H142355   6.664   6.298  13.201  0.4875 -0.0099  1.0496
 6980TIP3    H242356   6.684   6.421  13.288  1.1395  1.0854 -0.6267
 6981TIP3   OH242357   6.741   1.237  12.971  0.3621 -0.3529 -0.3285
 6981TIP3    H142358   6.713   1.326  12.949  1.4339  0.3565  1.1177
 6981TIP3    H242359   6.764   1.198  12.887  1.1426  1.1710 -0.8429
 6982TIP3   OH242360   6.637   3.624  11.510 -0.0313 -0.0932 -0.2911
 6982TIP3    H142361   6.615   3.627  11.603 -1.9477 -0.6623 -0.6991
 6982TIP3    H242362   6.634   3.715  11.481 -0.0356  0.0256  0.0855
 6983TIP3   OH242363   6.140   4.499   4.647 -0.6788 -0.1980  0.0764
 6983TIP3    H142364   6.200   4.486   4.721 -1.2619 -0.0475  0.5860
 6983TIP3    H242365   6.193   4.481   4.570  0.7986  2.6637  0.3736
 6984TIP3   OH242366   5.886   2.493  16.529 -0.3914 -0.0378  0.3008
 6984TIP3    H142367   5.869   2.564  16.468  1.7684  0.6738  0.4661
 6984TIP3    H242368   5.881   2.413  16.477 -1.1990  0.3535 -0.2259
 6985TIP3   OH242369   6.071   3.365   6.338  0.5917  0.6298  0.6511
 6985TIP3    H142370   6.034   3.313   6.266  3.9311  0.0981 -0.7621
 6985TIP3    H242371   6.001   3.426   6.362 -1.8519 -1.5813 -0.6170
 6986TIP3   OH242372   2.892   5.566  12.212 -0.3974 -0.1465  0.0415
 6986TIP3    H142373   2.922   5.475  12.207  0.5249  0.1774 -0.4713
 6986TIP3    H242374   2.931   5.608  12.136  0.2316  0.9885  0.9880
 6987TIP3   OH242375   4.108   1.951   3.232 -0.0854 -0.1126  0.1675
 6987TIP3    H142376   4.202   1.970   3.235 -0.3045  0.8499  0.9742
 6987TIP3    H242377   4.067   2.025   3.275 -1.1762 -0.9149  0.5222
 6988TIP3   OH242378   5.315   5.279  16.639  0.1711 -0.0949 -0.1873
 6988TIP3    H142379   5.250   5.242  16.699  1.0398 -0.5356  0.5016
 6988TIP3    H242380   5.335   5.207  16.579  0.9343 -0.3630  0.3768
 6989TIP3   OH242381   0.432   6.771   5.456  0.0573 -0.3088  0.2618
 6989TIP3    H142382   0.375   6.818   5.395 -1.8123 -2.1538  0.5212
 6989TIP3    H242383   0.508   6.745   5.402 -0.4064  0.2031 -0.6579
 6990TIP3   OH242384   0.999   4.761   5.250 -0.2599 -0.3855 -0.0556
 6990TIP3    H142385   1.093   4.759   5.233 -0.3092  1.9959 -0.9007
 6990TIP3    H242386   0.963   4.686   5.202  1.1670 -1.1999  0.1390
 6991TIP3   OH242387   5.862   1.212  15.427  0.7067 -0.2541  0.3413
 6991TIP3    H142388   5.881   1.164  15.508 -0.4477 -0.8904  0.2479
 6991TIP3    H242389   5.857   1.143  15.360 -0.0228  0.1048  0.0314
 6992TIP3   OH242390   1.457   2.701   2.736  0.1302 -0.2592 -0.6759
 6992TIP3    H142391   1.430   2.609   2.741  0.1783 -0.2937 -1.0733
 6992TIP3    H242392   1.409   2.744   2.808  1.0537 -0.8197  0.2905
 6993TIP3   OH242393   4.771   3.458   6.183  0.1274 -0.2058  0.3038
 6993TIP3    H142394   4.849   3.495   6.143 -0.2922  0.1488 -0.1954
 6993TIP3    H242395   4.737   3.527   6.240  0.0901 -0.3033  0.4020
 6994TIP3   OH242396   3.531   0.872   4.264  0.4575  0.2103  0.0107
 6994TIP3    H142397   3.470   0.825   4.208 -1.9239  1.0863  1.7699
 6994TIP3    H242398   3.497   0.859   4.353  1.5941  2.5343  0.8375
 6995TIP3   OH242399   3.862   6.689   5.557 -0.1431 -0.0748  0.1377
 6995TIP3    H142400   3.947   6.732   5.571 -1.0110  1.8292 -0.2106
 6995TIP3    H242401   3.859   6.673   5.463 -0.8086  1.2947 -0.0869
 6996TIP3   OH242402   6.308   6.285  16.389  0.0988 -0.7137 -0.4074
 6996TIP3    H142403   6.309   6.243  16.475  0.2540  0.3797  0.1431
 6996TIP3    H242404   6.216   6.290  16.365 -0.1968  1.4549  0.9742
 6997TIP3   OH242405   4.163   3.054  14.271  0.5403  0.0481 -0.0605
 6997TIP3    H142406   4.218   3.103  14.333  1.2679  0.3542 -0.9326
 6997TIP3    H242407   4.119   3.122  14.221  0.5762 -0.1989 -0.4203
 6998TIP3   OH242408   5.324   0.590   4.247 -0.2835  0.2754 -0.1132
 6998TIP3    H142409   5.363   0.578   4.160  0.1006  1.3912 -0.1061
 6998TIP3    H242410   5.247   0.646   4.231  0.5557  1.6076  0.4309
 6999TIP3   OH242411   6.166   6.123  14.595  0.5679  1.3322  0.5198
 6999TIP3    H142412   6.099   6.155  14.535  1.1380  1.5829  0.0176
 6999TIP3    H242413   6.242   6.106  14.540  0.2605 -0.9848  0.7447
 7000TIP3   OH242414   0.020   1.250  16.023 -0.1482  0.5711  0.3442
 7000TIP3    H142415   0.058   1.311  15.961 -1.1626  1.6843  0.8047
 7000TIP3    H242416   0.068   1.266  16.105  0.0529  0.2544  0.2915
 7001TIP3   OH242417   2.550   0.460  16.759 -0.0911  0.2177  0.6317
 7001TIP3    H142418   2.470   0.410  16.744  0.5513 -0.6809  0.1363
 7001TIP3    H242419   2.561   0.512  16.679 -0.4488  0.7356  0.9120
 7002TIP3   OH242420   1.401   3.557  10.359 -0.6125  0.3377 -0.4066
 7002TIP3    H142421   1.373   3.533  10.447  0.0223  2.0928  0.2911
 7002TIP3    H242422   1.379   3.481  10.305 -0.6251 -0.9192  1.3421
 7003TIP3   OH242423   4.973   1.618  11.619 -0.1109 -0.4609 -0.1153
 7003TIP3    H142424   4.958   1.640  11.711 -1.1884 -0.4659 -0.2870
 7003TIP3    H242425   4.942   1.694  11.571  0.1938 -0.5744 -0.4931
 7004TIP3   OH242426   4.988   0.675  13.051 -0.1426 -0.2921  0.2943
 7004TIP3    H142427   5.075   0.713  13.064 -0.4595  0.4468  0.2892
 7004TIP3    H242428   4.931   0.728  13.108 -0.4847 -1.1719  0.7765
 7005TIP3   OH242429   3.514   2.645  10.189  0.1215 -0.4930 -0.5533
 7005TIP3    H142430   3.495   2.607  10.274 -0.6554  1.6166  0.2482
 7005TIP3    H242431   3.439   2.702  10.171  3.1595  3.9920  0.2515
 7006TIP3   OH242432   3.834   5.690  13.948  0.2519 -0.0408 -0.2749
 7006TIP3    H142433   3.803   5.688  13.857  0.8717  0.5111 -0.5116
 7006TIP3    H242434   3.910   5.632  13.948 -0.1836 -0.6046  0.0586
 7007TIP3   OH242435   0.169   1.761  14.738 -0.0595 -0.6395  0.1717
 7007TIP3    H142436   0.163   1.854  14.716  2.2803  0.3952  3.5075
 7007TIP3    H242437   0.242   1.728  14.685 -0.7867 -0.5738 -0.8920
 7008TIP3   OH242438   2.448   0.394  15.328 -0.1939  0.7289  0.2202
 7008TIP3    H142439   2.544   0.394  15.331 -0.2125  0.6323  0.9699
 7008TIP3    H242440   2.425   0.486  15.311  0.0707  0.4427 -1.7015
 7009TIP3   OH242441   4.131   0.403  13.829 -0.2155  0.0008  0.0214
 7009TIP3    H142442   4.168   0.314  13.834  0.1376  0.2390  1.9894
 7009TIP3    H242443   4.194   0.452  13.777 -0.0133 -0.7119 -0.4157
 7010TIP3   OH242444   2.365   5.568   5.774  0.4044 -0.3730 -0.3184
 7010TIP3    H142445   2.457   5.543   5.774  0.3928 -0.4441  0.6667
 7010TIP3    H242446   2.319   5.490   5.744  0.6533 -0.3799 -0.6849
 7011TIP3   OH242447   5.948   3.124  16.866 -0.5654 -0.1869 -0.0973
 7011TIP3    H142448   5.997   3.133  16.947  2.1768  0.7598 -1.8036
 7011TIP3    H242449   5.941   3.030  16.853  1.3872 -0.3503 -0.1330
 7012TIP3   OH242450   1.313   4.590   2.072  0.5301  0.0068  0.1262
 7012TIP3    H142451   1.262   4.633   2.141 -1.7212 -0.6889 -1.0562
 7012TIP3    H242452   1.349   4.511   2.114 -0.6503 -0.3011  0.5721
 7013TIP3   OH242453   1.000   1.355  17.167 -0.5186 -0.1782  0.5718
 7013TIP3    H142454   0.920   1.341  17.216 -0.3614  0.1067  0.9090
 7013TIP3    H242455   1.037   1.267  17.156  0.2560 -0.1018  2.3444
 7014TIP3   OH242456   4.557   0.875  15.685  0.3164 -0.2619 -0.8026
 7014TIP3    H142457   4.585   0.854  15.774  0.8950  1.2933 -0.6013
 7014TIP3    H242458   4.546   0.790  15.643  0.5412 -1.0052  0.5970
 7015TIP3   OH242459   2.142   6.267   2.457  0.1634  0.2039  0.1748
 7015TIP3    H142460   2.050   6.276   2.435  0.2742  2.9155  0.6354
 7015TIP3    H242461   2.170   6.356   2.482  2.5095 -0.8436  1.4791
 7016TIP3   OH242462   3.201   1.646   4.685 -0.1132  0.1372 -0.1071
 7016TIP3    H142463   3.246   1.730   4.687 -1.1593  0.7039  2.6392
 7016TIP3    H242464   3.270   1.581   4.702 -0.1972  0.9971  4.0970
 7017TIP3   OH242465   6.633   2.613   1.875  0.7090  0.1458  0.1718
 7017TIP3    H142466   6.637   2.575   1.787 -0.7042  0.8658 -0.2186
 7017TIP3    H242467   6.717   2.658   1.885  2.1971 -2.5929  0.4369
 7018TIP3   OH242468   2.979   2.572  14.998  0.2955  0.4087  0.2241
 7018TIP3    H142469   3.043   2.629  14.955  0.4520  1.3163  1.6244
 7018TIP3    H242470   2.979   2.492  14.946  2.8218  0.2785  0.3582
 7019TIP3   OH242471   2.732   1.969  15.291 -0.7929  0.9865 -0.2196
 7019TIP3    H142472   2.642   1.972  15.259 -0.6908  1.3113 -0.4734
 7019TIP3    H242473   2.777   2.040  15.244 -0.1557  0.1692 -0.8467
 7020TIP3   OH242474   0.222   3.739   3.585 -0.4626  0.3319 -0.6216
 7020TIP3    H142475   0.221   3.785   3.500  1.1704  0.5424 -0.5513
 7020TIP3    H242476   0.195   3.650   3.564  1.3049 -0.0041 -1.6396
 7021TIP3   OH242477   4.898   1.349   3.238 -0.3143 -0.2898  0.5130
 7021TIP3    H142478   4.917   1.441   3.216 -0.2669 -0.3998  0.0911
 7021TIP3    H242479   4.930   1.300   3.163  1.6188 -0.8370  1.6804
 7022TIP3   OH242480   1.592   1.537   1.496 -0.1652  0.0850  0.6304
 7022TIP3    H142481   1.593   1.495   1.582  1.3697  1.2260  1.1957
 7022TIP3    H242482   1.564   1.627   1.514  1.2168  0.6366  0.1058
 7023TIP3   OH242483   2.819   1.553  16.714  0.4691 -0.1317  0.2943
 7023TIP3    H142484   2.812   1.627  16.775  0.1226 -1.7225  2.2092
 7023TIP3    H242485   2.907   1.518  16.729 -0.5252 -2.0827  1.7199
 7024TIP3   OH242486   0.281   1.636  15.731 -0.1891 -0.4596 -0.0532
 7024TIP3    H142487   0.342   1.680  15.790 -0.1330 -1.0757  0.3577
 7024TIP3    H242488   0.197   1.642  15.776 -0.0121 -1.5719  0.4483
 7025TIP3   OH242489   0.954   2.083   2.374 -0.2598  0.7321 -0.2007
 7025TIP3    H142490   0.866   2.048   2.364  0.0321 -0.3889  1.1536
 7025TIP3    H242491   0.942   2.169   2.415 -0.6778  0.2762  0.6348
 7026TIP3   OH242492   1.383   0.394   1.008  0.6277 -0.2748  0.3413
 7026TIP3    H142493   1.385   0.304   0.974  2.8448 -0.9889  2.2359
 7026TIP3    H242494   1.335   0.387   1.090  0.1075  0.4359  0.1002
 7027TIP3   OH242495   5.100   0.185   5.608  0.2308 -0.2470 -0.3006
 7027TIP3    H142496   5.101   0.202   5.513 -3.2631  2.9797  0.1092
 7027TIP3    H242497   5.071   0.268   5.646  0.0299 -1.9939  3.4919
 7028TIP3   OH242498   1.754   4.910   4.125  0.1741  0.1081  0.0041
 7028TIP3    H142499   1.807   4.846   4.172  1.4584  0.6680 -0.6357
 7028TIP3    H242500   1.706   4.957   4.193 -0.4859 -1.2718  0.4980
 7029TIP3   OH242501   3.069   1.002  10.675 -0.5328  0.1898  0.0104
 7029TIP3    H142502   3.105   1.085  10.708 -2.5586  1.5966 -1.2020
 7029TIP3    H242503   3.084   1.006  10.580 -0.0795 -1.1243  0.0210
 7030TIP3   OH242504   0.878   3.842   2.231 -0.0971 -0.0579 -0.0934
 7030TIP3    H142505   0.904   3.787   2.158  2.3779  0.2948  0.4608
 7030TIP3    H242506   0.904   3.793   2.309 -0.9580  0.4131  0.5111
 7031TIP3   OH242507   6.221   2.135  10.885 -0.9648  0.3540  0.3071
 7031TIP3    H142508   6.202   2.228  10.885 -0.6481  0.4185  0.3174
 7031TIP3    H242509   6.165   2.099  10.816 -0.1532  0.7418 -0.5683
 7032TIP3   OH242510   5.325   0.792  16.711 -0.3834  0.7850 -0.4314
 7032TIP3    H142511   5.284   0.872  16.745 -2.3060  0.0024 -0.8653
 7032TIP3    H242512   5.294   0.786  16.621 -0.7870 -0.8184 -0.1896
 7033TIP3   OH242513   4.536   1.204   5.312  0.2105  0.1256  0.7508
 7033TIP3    H142514   4.555   1.263   5.384 -1.5790 -0.1786  1.5029
 7033TIP3    H242515   4.442   1.213   5.298  0.2618 -1.0397 -0.4632
 7034TIP3   OH242516   2.423   1.682   2.678 -0.1959  0.2441  0.0728
 7034TIP3    H142517   2.489   1.725   2.731  0.4059  1.1251 -1.3754
 7034TIP3    H242518   2.402   1.601   2.726 -0.4108  1.5040  2.1366
 7035TIP3   OH242519   2.554   4.583  12.949 -0.2383 -0.0148  0.4534
 7035TIP3    H142520   2.470   4.619  12.921 -0.2627 -0.5090 -0.1124
 7035TIP3    H242521   2.604   4.659  12.978  0.4075  0.7223 -2.5136
 7036TIP3   OH242522   1.729   3.310  11.112 -0.1765 -0.0558 -0.3362
 7036TIP3    H142523   1.761   3.261  11.037  0.8595  0.9820 -0.5702
 7036TIP3    H242524   1.806   3.326  11.166 -0.4510  1.5499 -0.3923
 7037TIP3   OH242525   3.716   1.580   1.361  0.1777  0.1514 -0.2120
 7037TIP3    H142526   3.727   1.673   1.339 -0.4346 -0.1771 -2.0049
 7037TIP3    H242527   3.760   1.533   1.290 -1.3929 -0.9410 -0.4904
 7038TIP3   OH242528   1.796   4.525   3.980 -0.2253  0.5891 -0.5914
 7038TIP3    H142529   1.747   4.481   4.049 -1.7401  2.7956 -0.2089
 7038TIP3    H242530   1.778   4.473   3.901 -2.0206  0.5126 -0.1600
 7039TIP3   OH242531   2.899   4.499   2.166  0.2633  0.0151  0.1901
 7039TIP3    H142532   2.923   4.439   2.094  4.7601  1.6623  0.1346
 7039TIP3    H242533   2.925   4.452   2.245  0.5671  0.4683  0.3594
 7040TIP3   OH242534   5.903   4.101   5.716 -0.3882 -0.6427  0.5116
 7040TIP3    H142535   5.943   4.143   5.792  1.3202 -1.5291  0.1190
 7040TIP3    H242536   5.973   4.047   5.679 -1.2011 -0.2228 -1.6790
 7041TIP3   OH242537   0.824   1.140  12.936 -0.4282 -0.3142 -0.2455
 7041TIP3    H142538   0.872   1.165  13.015 -0.6819  0.4443 -0.3313
 7041TIP3    H242539   0.890   1.101  12.879 -0.2782 -1.0554  0.4154
 7042TIP3   OH242540   2.084   4.358  12.843  0.1182 -0.5472  0.2745
 7042TIP3    H142541   2.061   4.265  12.850 -0.9517 -0.3254 -0.1801
 7042TIP3    H242542   2.003   4.400  12.815  1.3752  0.1260 -2.4544
 7043TIP3   OH242543   2.333   6.116   2.365 -0.3753 -0.5306 -0.3531
 7043TIP3    H142544   2.408   6.173   2.380 -1.0844 -0.2313  2.4119
 7043TIP3    H242545   2.257   6.169   2.392 -1.5946 -0.8235 -3.1023
 7044TIP3   OH242546   3.500   4.479   5.293 -0.1953  0.3387  0.2365
 7044TIP3    H142547   3.431   4.536   5.326 -2.0660 -0.8410 -1.5448
 7044TIP3    H242548   3.522   4.516   5.207 -0.6543 -0.9628 -0.4564
 7045TIP3   OH242549   0.736   2.509  15.919  0.0178  0.1239 -0.1101
 7045TIP3    H142550   0.641   2.515  15.933  0.1426  0.6927  0.5126
 7045TIP3    H242551   0.766   2.441  15.979  0.0531  0.1890 -0.0522
 7046TIP3   OH242552   6.554   0.253   4.214 -0.9424  0.1369  0.3984
 7046TIP3    H142553   6.509   0.337   4.217 -2.5313 -0.7298  1.6361
 7046TIP3    H242554   6.501   0.199   4.156  1.6755  0.8338 -2.8351
 7047TIP3   OH242555   0.317   0.799  15.235  0.2515 -0.5276  0.4699
 7047TIP3    H142556   0.371   0.720  15.232  1.0690  0.0731 -1.2701
 7047TIP3    H242557   0.243   0.780  15.177 -1.0586 -1.0709  2.2764
 7048TIP3   OH242558   6.385   1.644  13.361 -0.4930  0.1869  0.5357
 7048TIP3    H142559   6.467   1.598  13.341 -1.6381 -1.0981 -1.2846
 7048TIP3    H242560   6.413   1.724  13.404  1.7136 -0.4393  0.3350
 7049TIP3   OH242561   5.971   5.684  12.492  0.2804 -0.4442 -0.2815
 7049TIP3    H142562   6.025   5.683  12.414 -1.0217  1.4321 -1.2206
 7049TIP3    H242563   5.929   5.598  12.493 -0.9639  0.1149 -2.5536
 7050TIP3   OH242564   5.880   6.755   4.049 -0.0143 -0.0159 -0.4634
 7050TIP3    H142565   5.885   6.661   4.068  2.7392  0.4803  1.4587
 7050TIP3    H242566   5.970   6.779   4.026 -0.4598  2.4092  0.2702
 7051TIP3   OH242567   4.527   6.515   0.754  0.0510  0.8314 -0.1812
 7051TIP3    H142568   4.600   6.455   0.741  0.1304  1.1744 -1.4696
 7051TIP3    H242569   4.550   6.593   0.703 -0.5175  1.5522  0.6293
 7052TIP3   OH242570   3.627   5.536  12.807 -0.1553 -0.4694 -0.1309
 7052TIP3    H142571   3.642   5.442  12.799  3.6197 -0.1717  2.3260
 7052TIP3    H242572   3.707   5.577  12.774 -0.4390  1.7320  1.7232
 7053TIP3   OH242573   4.268   1.432  10.882  0.1093  0.2918  0.3035
 7053TIP3    H142574   4.356   1.418  10.848 -0.5654 -0.6154 -1.1181
 7053TIP3    H242575   4.218   1.356  10.852 -0.7892 -0.0142  2.4303
 7054TIP3   OH242576   2.507   5.741  17.146 -0.1015  0.2620 -0.5750
 7054TIP3    H142577   2.414   5.737  17.125 -0.1630  0.5126 -0.3578
 7054TIP3    H242578   2.551   5.704  17.070 -0.5011 -2.0918  0.2889
 7055TIP3   OH242579   2.065   5.036  16.329 -0.1873 -0.0667 -0.1327
 7055TIP3    H142580   2.158   5.014  16.340 -0.1199  0.4423  0.3692
 7055TIP3    H242581   2.024   5.008  16.410  0.0171  2.1939  0.7956
 7056TIP3   OH242582   0.235   0.756   3.125 -0.1172 -0.2962 -0.2636
 7056TIP3    H142583   0.170   0.803   3.072 -0.1633  0.2105  0.2372
 7056TIP3    H242584   0.188   0.678   3.155  0.2310 -1.1335 -1.8221
 7057TIP3   OH242585   3.418   1.229   4.236 -0.4539  0.2283 -0.2888
 7057TIP3    H142586   3.443   1.289   4.166 -2.7464  1.0746 -0.4306
 7057TIP3    H242587   3.469   1.150   4.220  1.2041  1.4699 -1.2060
 7058TIP3   OH242588   5.004   5.267   2.629 -0.0055 -0.2851 -0.3018
 7058TIP3    H142589   5.095   5.297   2.625 -0.0364  0.5286  3.2226
 7058TIP3    H242590   4.957   5.325   2.569  1.6059 -0.0031 -1.3246
 7059TIP3   OH242591   2.043   3.456  15.997  0.3083  0.3619  0.1523
 7059TIP3    H142592   2.029   3.509  15.919  0.5576  0.0049 -0.1368
 7059TIP3    H242593   2.076   3.518  16.062  0.2980  0.6190 -0.0856
 7060TIP3   OH242594   6.589   3.410  10.835  0.2919  0.5141  0.0098
 7060TIP3    H142595   6.548   3.494  10.855 -1.0067  0.1825 -1.1300
 7060TIP3    H242596   6.540   3.346  10.888  0.3805  0.3072 -0.1539
 7061TIP3   OH242597   5.825   6.359  15.865 -0.3709  0.5585 -0.5046
 7061TIP3    H142598   5.789   6.361  15.954 -2.1327 -0.8980 -1.1528
 7061TIP3    H242599   5.841   6.451  15.844  0.2458  0.9091  1.3692
 7062TIP3   OH242600   6.737   3.824   0.477 -0.1687 -0.3757  0.2329
 7062TIP3    H142601   6.766   3.759   0.414  0.7412 -0.8726  1.1542
 7062TIP3    H242602   6.663   3.783   0.521  0.8266 -1.0759  1.2831
 7063TIP3   OH242603   1.720   2.189  12.597 -0.5114 -0.0459 -0.5856
 7063TIP3    H142604   1.632   2.181  12.634 -0.4356 -0.2583 -0.4536
 7063TIP3    H242605   1.772   2.124  12.644 -0.0035  0.8990  0.1784
 7064TIP3   OH242606   6.405   4.265   3.942  0.1424 -0.4343 -0.0457
 7064TIP3    H142607   6.393   4.301   3.854  0.1972  0.9385  0.4950
 7064TIP3    H242608   6.318   4.268   3.981  0.3706  0.2289  0.4175
 7065TIP3   OH242609   6.686   1.761   2.720  0.4394 -0.2477 -0.5169
 7065TIP3    H142610   6.719   1.743   2.808  0.6396 -4.6871 -1.3827
 7065TIP3    H242611   6.748   1.717   2.661 -0.9273  0.7259 -2.7720
 7066TIP3   OH242612   4.027   6.266   4.674  0.0347  0.0138 -0.5074
 7066TIP3    H142613   3.993   6.276   4.763 -1.6711 -0.1002 -1.1399
 7066TIP3    H242614   4.060   6.177   4.671 -1.6759 -0.6190 -0.5880
 7067TIP3   OH242615   5.041   4.653   4.998  0.6181  0.1388  0.0757
 7067TIP3    H142616   5.039   4.732   4.944  1.6130 -0.8848 -1.5280
 7067TIP3    H242617   4.979   4.593   4.956 -0.7678  0.3353  1.7672
 7068TIP3   OH242618   5.755   0.353   3.043 -0.0518  0.2921  0.1085
 7068TIP3    H142619   5.788   0.435   3.006  0.8248 -1.3493 -2.8776
 7068TIP3    H242620   5.667   0.344   3.007 -0.9980  0.9169  2.1403
 7069TIP3   OH242621   6.307   6.688  14.422  0.1728 -0.3808 -0.5932
 7069TIP3    H142622   6.401   6.703  14.421  0.2214 -0.5622  0.5913
 7069TIP3    H242623   6.297   6.602  14.462 -0.5234 -0.0953 -0.1439
 7070TIP3   OH242624   3.867   1.628   1.600 -0.2373  0.2931 -0.0714
 7070TIP3    H142625   3.796   1.679   1.639 -0.7071  1.9742 -2.9300
 7070TIP3    H242626   3.824   1.575   1.532  1.1074  0.8572 -1.4016
 7071TIP3   OH242627   6.655   2.944   5.224 -0.3838 -0.0415  0.0874
 7071TIP3    H142628   6.601   2.951   5.303 -0.3425 -0.8047  0.1823
 7071TIP3    H242629   6.743   2.926   5.256  0.2433  2.6915  0.0035
 7072TIP3   OH242630   1.383   0.953  15.550 -0.2335  0.2149 -0.3636
 7072TIP3    H142631   1.437   0.977  15.476  0.2690 -2.2323 -0.8577
 7072TIP3    H242632   1.416   0.867  15.577 -2.4730 -0.3733  0.6723
 7073TIP3   OH242633   3.406   5.504   1.790  0.7289  0.2168  0.1303
 7073TIP3    H142634   3.340   5.535   1.852  0.6387  1.7748 -0.7072
 7073TIP3    H242635   3.366   5.429   1.747 -1.6502  2.7292 -2.2710
 7074TIP3   OH242636   3.872   5.279   3.455 -0.2520 -0.0570 -0.0875
 7074TIP3    H142637   3.963   5.286   3.425 -0.1675 -0.1418  0.1464
 7074TIP3    H242638   3.849   5.188   3.439 -0.5476  0.1517 -0.8593
 7075TIP3   OH242639   0.434   6.382   3.881 -0.1010 -0.3818  0.6292
 7075TIP3    H142640   0.446   6.327   3.804 -0.3604 -1.3327  1.2645
 7075TIP3    H242641   0.410   6.322   3.951  0.6481  0.4099  1.5918
 7076TIP3   OH242642   2.442   3.255   5.981  0.1292 -0.0474  0.2400
 7076TIP3    H142643   2.510   3.304   5.936 -0.5252  1.9358  1.3564
 7076TIP3    H242644   2.487   3.180   6.019  1.1053 -0.4485 -1.6679
 7077TIP3   OH242645   4.832   0.530  11.064  0.5124 -0.1214 -0.0571
 7077TIP3    H142646   4.816   0.485  10.982  0.0614  0.2857 -0.1918
 7077TIP3    H242647   4.803   0.620  11.049  0.2953 -0.0773  0.5854
 7078TIP3   OH242648   5.499   4.706  10.902  0.0380 -0.0758 -0.1795
 7078TIP3    H142649   5.570   4.722  10.964 -0.3743 -0.3943  0.3804
 7078TIP3    H242650   5.481   4.612  10.909 -0.9851  0.1409  0.2940
 7079TIP3   OH242651   1.086   6.655   0.101 -0.2880 -0.0384  0.3154
 7079TIP3    H142652   1.065   6.748   0.090 -1.5951 -0.2988  0.4759
 7079TIP3    H242653   1.149   6.653   0.173  1.3317  0.8925 -1.0435
 7080TIP3   OH242654   3.748   6.137  16.849 -0.2073 -0.1475 -0.5581
 7080TIP3    H142655   3.692   6.098  16.782 -0.7238 -0.4404  0.0323
 7080TIP3    H242656   3.709   6.108  16.932  0.2773  0.4161 -0.1319
 7081TIP3   OH242657   2.210   2.766  16.128 -0.2570 -0.0531 -0.2237
 7081TIP3    H142658   2.275   2.698  16.110 -0.3646 -0.9234  2.5093
 7081TIP3    H242659   2.195   2.762  16.222 -2.1965  2.0408 -0.3794
 7082TIP3   OH242660   1.389   3.625   4.348 -0.1843 -0.9814  0.0493
 7082TIP3    H142661   1.327   3.570   4.395 -0.4900 -2.1807 -1.7346
 7082TIP3    H242662   1.343   3.652   4.269  1.1779 -0.9827 -0.7549
 7083TIP3   OH242663   3.604   4.157  11.606 -0.1175 -0.0174 -0.2017
 7083TIP3    H142664   3.677   4.219  11.596  0.1485 -0.0327  1.5982
 7083TIP3    H242665   3.645   4.071  11.595 -0.8146  0.1126 -4.7234
 7084TIP3   OH242666   3.075   0.890  13.388 -0.3691  0.6087 -0.5623
 7084TIP3    H142667   3.026   0.969  13.367 -2.6706 -0.1272  1.9187
 7084TIP3    H242668   3.027   0.820  13.344 -0.6644  0.0823  0.5938
 7085TIP3   OH242669   5.622   5.141  12.173  0.0227 -0.2972  0.3376
 7085TIP3    H142670   5.556   5.097  12.227  1.7752 -2.8146  0.4968
 7085TIP3    H242671   5.697   5.082  12.173  2.2404  2.3953 -0.0137
 7086TIP3   OH242672   0.420   4.575  15.689 -0.1777 -0.3992 -0.9443
 7086TIP3    H142673   0.357   4.563  15.618 -1.2122 -1.6983  0.1573
 7086TIP3    H242674   0.383   4.526  15.763  1.2182  0.3357  0.2842
 7087TIP3   OH242675   5.117   3.531   0.678 -0.5091  0.3139  0.0111
 7087TIP3    H142676   5.184   3.586   0.719 -0.3095  1.5460 -1.9086
 7087TIP3    H242677   5.148   3.442   0.691  1.1789  0.8450 -0.2579
 7088TIP3   OH242678   3.196   0.394   5.551  0.3880  0.5621 -0.0791
 7088TIP3    H142679   3.160   0.461   5.492  1.0348 -1.4420 -2.8592
 7088TIP3    H242680   3.281   0.429   5.577 -0.4286  2.0352  0.7398
 7089TIP3   OH242681   0.148   2.016  14.709  0.8350 -0.5072 -0.3406
 7089TIP3    H142682   0.190   2.056  14.785  1.1701 -1.9044  0.2309
 7089TIP3    H242683   0.127   2.089  14.652 -0.5295  0.6852  1.6384
 7090TIP3   OH242684   4.274   6.473  12.523 -0.2040 -0.1150 -0.7273
 7090TIP3    H142685   4.280   6.429  12.438 -0.9216 -2.6426  0.5141
 7090TIP3    H242686   4.293   6.405  12.587  1.2460  1.9887  1.1334
 7091TIP3   OH242687   4.958   3.008   3.186  0.8382  0.0619  0.4485
 7091TIP3    H142688   4.990   3.067   3.254  0.2033 -0.5343  1.2790
 7091TIP3    H242689   4.936   2.928   3.233  0.1965 -0.2849 -0.4377
 7092TIP3   OH242690   4.650   2.221  13.238  0.4753 -0.0113  0.3733
 7092TIP3    H142691   4.576   2.271  13.273  0.2208  0.6166 -1.0038
 7092TIP3    H242692   4.720   2.285  13.228  0.2410  0.0539 -1.1127
 7093TIP3   OH242693   5.988   2.982  15.080  0.2685 -0.4522  0.5782
 7093TIP3    H142694   5.929   2.998  15.155  0.3498  2.3084  0.0810
 7093TIP3    H242695   6.061   2.933  15.118 -0.1160  0.1464  2.1438
 7094TIP3   OH242696   2.445   5.221   4.153 -0.4218 -0.4091 -0.1997
 7094TIP3    H142697   2.395   5.251   4.229  1.3145  1.9205  0.0741
 7094TIP3    H242698   2.508   5.291   4.137  0.6051 -1.8239 -2.5261
 7095TIP3   OH242699   1.388   4.562  16.683 -0.1566  0.1721  0.1814
 7095TIP3    H142700   1.438   4.624  16.736 -0.4376  1.3227 -0.8919
 7095TIP3    H242701   1.298   4.591  16.690 -0.2403  0.1246 -0.6564
 7096TIP3   OH242702   6.232   5.184  15.887 -0.3877  0.0497 -0.2204
 7096TIP3    H142703   6.204   5.257  15.943 -3.3710 -1.9689  1.0949
 7096TIP3    H242704   6.223   5.217  15.798 -2.1682  1.1705  0.3397
 7097TIP3   OH242705   5.009   4.491  14.313  0.0455  0.1847 -0.1105
 7097TIP3    H142706   4.962   4.419  14.272  2.3562 -1.6621  0.3913
 7097TIP3    H242707   5.097   4.458  14.328  0.4344  2.1906  2.5992
 7098TIP3   OH242708   0.321   4.296   3.494 -0.1672 -0.3905 -0.0569
 7098TIP3    H142709   0.345   4.232   3.561  1.8639  0.2952 -0.0992
 7098TIP3    H242710   0.365   4.265   3.415  0.4923  0.8197 -0.1787
 7099TIP3   OH242711   1.194   5.369   5.577 -0.2482  0.1801  0.1148
 7099TIP3    H142712   1.180   5.372   5.482 -0.5575  0.4094  0.1691
 7099TIP3    H242713   1.157   5.451   5.609  0.1497  0.2516  0.3965
 7100TIP3   OH242714   2.918   6.391  17.099 -0.6355  0.2040  0.5955
 7100TIP3    H142715   2.960   6.476  17.114 -0.3285 -0.2484  2.4260
 7100TIP3    H242716   2.834   6.398  17.143 -1.3368  0.1318 -0.7025
 7101TIP3   OH242717   3.811   5.216   1.119 -0.7770 -0.6502 -0.2118
 7101TIP3    H142718   3.773   5.226   1.032  0.4661  0.1862 -0.6556
 7101TIP3    H242719   3.834   5.123   1.125  2.0257 -0.1040 -1.9701
 7102TIP3   OH242720   2.869   2.638   1.613 -0.2072  0.0755  0.3492
 7102TIP3    H142721   2.825   2.641   1.528  0.3657 -2.2859 -0.0696
 7102TIP3    H242722   2.805   2.599   1.672 -0.3990  1.1796  0.8739
 7103TIP3   OH242723   0.834   6.182  11.818 -0.1294  0.1371 -0.2573
 7103TIP3    H142724   0.820   6.234  11.897 -1.3611  0.8678 -0.9379
 7103TIP3    H242725   0.900   6.117  11.843 -0.2182  0.6076  1.2431
 7104TIP3   OH242726   3.221   2.822  12.829 -0.3007 -0.0231  0.0852
 7104TIP3    H142727   3.249   2.913  12.824 -2.2542  0.5170 -2.5116
 7104TIP3    H242728   3.297   2.771  12.800  0.3259  0.8699  0.1552
 7105TIP3   OH242729   4.604   3.316  13.685  0.2936  0.2458  0.1095
 7105TIP3    H142730   4.679   3.258  13.676 -2.0882 -2.9914  0.3363
 7105TIP3    H242731   4.611   3.350  13.775 -0.0290 -2.2370  1.0972
 7106TIP3   OH242732   5.636   6.646  12.733 -0.4494  0.1185 -0.1111
 7106TIP3    H142733   5.718   6.625  12.777 -1.3152  0.2453  1.6283
 7106TIP3    H242734   5.568   6.611  12.792 -1.6852  1.4767 -0.6978
 7107TIP3   OH242735   3.550   2.969   0.266  0.1725 -0.0176  0.1139
 7107TIP3    H142736   3.609   2.977   0.191  0.6203 -0.8073  0.3763
 7107TIP3    H242737   3.469   2.935   0.229  0.1803  0.1976 -0.1065
 7108TIP3   OH242738   2.143   5.907  13.054  0.0171  0.2041 -0.5354
 7108TIP3    H142739   2.055   5.875  13.072 -0.4944  0.8452 -1.8485
 7108TIP3    H242740   2.142   5.930  12.962  1.0979  1.6790 -0.1983
 7109TIP3   OH242741   6.179   2.446   0.104  0.1165  0.0921  0.2682
 7109TIP3    H142742   6.251   2.498   0.069  3.3121 -3.9739  0.4090
 7109TIP3    H242743   6.119   2.435   0.030  1.8778 -0.1854 -1.1505
 7110TIP3   OH242744   1.034   6.304   2.797 -0.5081  0.1855 -0.2426
 7110TIP3    H142745   1.036   6.398   2.776  0.5920  0.2292  0.0430
 7110TIP3    H242746   0.956   6.294   2.851 -0.6659  0.9290 -0.3211
 7111TIP3   OH242747   3.010   0.265   5.740  0.0416  0.2541  0.0249
 7111TIP3    H142748   2.994   0.177   5.706  0.9641  0.0368  0.1403
 7111TIP3    H242749   3.075   0.302   5.681  0.6390  0.3796  0.7549
 7112TIP3   OH242750   4.366   5.316  13.709 -0.3285  0.1596 -0.1057
 7112TIP3    H142751   4.402   5.339  13.624  0.6244  0.1162  0.2806
 7112TIP3    H242752   4.275   5.344  13.705  0.3624  2.4407 -0.2403
 7113TIP3   OH242753   1.918   2.051  15.738 -0.2169 -0.0400  0.1870
 7113TIP3    H142754   1.967   2.131  15.719 -1.6827  0.6467 -0.7927
 7113TIP3    H242755   1.844   2.080  15.791 -2.4050 -0.2503 -2.6138
 7114TIP3   OH242756   4.846   3.566   0.596 -0.1891 -0.1656 -0.8871
 7114TIP3    H142757   4.823   3.495   0.536 -0.5061 -0.6732 -0.1674
 7114TIP3    H242758   4.941   3.560   0.605 -0.1638 -0.2099 -1.1851
 7115TIP3   OH242759   3.873   4.955   1.129 -0.0277  0.5560 -0.3086
 7115TIP3    H142760   3.785   4.918   1.129  0.1513  0.1306 -0.8095
 7115TIP3    H242761   3.915   4.917   1.052 -0.1789  2.6084 -1.4308
 7116TIP3   OH242762   1.117   2.925   2.719  0.9861 -0.2454 -0.3306
 7116TIP3    H142763   1.125   2.836   2.754  0.6918 -0.5452 -1.0136
 7116TIP3    H242764   1.022   2.937   2.708  0.9852  0.3902  0.3747
 7117TIP3   OH242765   0.215   4.659  11.915  0.1896  0.9338 -0.5632
 7117TIP3    H142766   0.252   4.719  11.980 -0.3084  1.4845 -0.7878
 7117TIP3    H242767   0.128   4.694  11.896 -0.8056 -0.8359  0.5903
 7118TIP3   OH242768   1.687   3.476  15.553  0.2980 -0.2080 -0.2641
 7118TIP3    H142769   1.671   3.399  15.500 -2.3524  0.7914 -1.0278
 7118TIP3    H242770   1.609   3.484  15.608  2.1206 -0.1046  2.3925
 7119TIP3   OH242771   3.970   4.059  16.423  0.1359 -0.2760  0.0216
 7119TIP3    H142772   4.015   4.113  16.487  1.1328 -1.2942  0.1911
 7119TIP3    H242773   4.031   3.989  16.403 -0.5982 -0.5858 -1.2252
 7120TIP3   OH242774   6.328   1.478   0.350  0.3117  0.3701 -0.6632
 7120TIP3    H142775   6.377   1.423   0.289  3.0248  0.7780  1.0295
 7120TIP3    H242776   6.395   1.533   0.391 -1.5291  0.7076  2.0303
 7121TIP3   OH242777   4.693   4.081  10.618 -0.2542 -0.4374  0.3151
 7121TIP3    H142778   4.785   4.103  10.631 -0.4787  1.1009 -0.5859
 7121TIP3    H242779   4.677   4.009  10.679  1.0620  0.5116  1.8311
 7122TIP3   OH242780   4.216   4.609   5.863 -0.7035 -1.2030  0.1504
 7122TIP3    H142781   4.164   4.608   5.944  0.4164 -3.1407  0.8876
 7122TIP3    H242782   4.305   4.586   5.892  0.6009  1.9664 -1.0936
 7123TIP3   OH242783   2.669   1.304  15.839  0.3912 -0.2825  0.6037
 7123TIP3    H142784   2.719   1.277  15.916  0.4930 -1.5793  0.0965
 7123TIP3    H242785   2.721   1.274  15.764 -0.5563 -0.6147  0.0554
 7124TIP3   OH242786   6.402   5.899   4.493  0.1314  0.7884  0.1294
 7124TIP3    H142787   6.482   5.951   4.493  1.4551 -1.1844 -1.5980
 7124TIP3    H242788   6.424   5.820   4.444 -2.0457 -1.0955  2.0390
 7125TIP3   OH242789   5.455   2.450  13.710 -0.6527  0.0620  0.5871
 7125TIP3    H142790   5.405   2.465  13.629  0.9543 -1.0477 -0.6565
 7125TIP3    H242791   5.491   2.362  13.699 -1.2133 -0.4867  2.9843
 7126TIP3   OH242792   4.565   5.904  16.907  0.1455  0.2658 -0.3985
 7126TIP3    H142793   4.607   5.984  16.874  0.8089 -0.1980 -0.6756
 7126TIP3    H242794   4.471   5.921  16.898  0.2980  0.6106 -1.4188
 7127TIP3   OH242795   6.274   5.434   3.121  0.6747  0.5506  0.2172
 7127TIP3    H142796   6.291   5.528   3.113  0.9724  0.4986  0.2155
 7127TIP3    H242797   6.356   5.393   3.095  1.9875  0.4062  4.2424
 7128TIP3   OH242798   3.697   0.892  13.174  0.0831  0.1079 -0.1179
 7128TIP3    H142799   3.739   0.841  13.243 -0.4773 -0.0884  0.0787
 7128TIP3    H242800   3.705   0.838  13.095  0.5813  0.2620 -0.1752
 7129TIP3   OH242801   0.791   0.474   4.770  0.1887 -0.0839  0.9433
 7129TIP3    H142802   0.797   0.434   4.856  1.8328 -0.0127  0.8745
 7129TIP3    H242803   0.747   0.408   4.716  0.0623 -0.5292  1.5916
 7130TIP3   OH242804   0.154   4.584  15.588 -0.2214  0.0830 -0.2338
 7130TIP3    H142805   0.166   4.626  15.673  0.7693  1.0209 -0.8307
 7130TIP3    H242806   0.062   4.598  15.566 -0.6686 -0.8271  1.0319
 7131TIP3   OH242807   5.669   5.178  13.082  0.3155  0.0910  0.4581
 7131TIP3    H142808   5.758   5.186  13.115  0.5540  1.8952 -0.6018
 7131TIP3    H242809   5.677   5.118  13.007  0.8545  1.2993 -0.4549
 7132TIP3   OH242810   3.485   5.143  12.452 -0.0472  0.3414 -0.3244
 7132TIP3    H142811   3.449   5.058  12.480 -0.4357 -0.4213 -2.9741
 7132TIP3    H242812   3.579   5.134  12.462 -0.1704  0.0973  0.6918
 7133TIP3   OH242813   1.633   2.878   3.498  0.2023 -0.2103 -0.0303
 7133TIP3    H142814   1.663   2.820   3.568  1.0582 -0.1640 -0.3560
 7133TIP3    H242815   1.617   2.819   3.424  0.7436 -0.0757 -0.2563
 7134TIP3   OH242816   3.532   0.996   3.514  0.0891 -0.6216  0.0769
 7134TIP3    H142817   3.492   0.930   3.571  0.8199 -0.4768  0.7598
 7134TIP3    H242818   3.624   0.996   3.538  0.1609  0.4031 -0.1713
 7135TIP3   OH242819   2.136   3.278  12.464  0.8565 -0.3859  1.0609
 7135TIP3    H142820   2.134   3.320  12.550  0.6693  0.1271  0.8081
 7135TIP3    H242821   2.104   3.189  12.480 -1.0998  0.3053  1.2058
 7136TIP3   OH242822   3.300   3.483   2.325 -0.3264 -0.1547  0.8386
 7136TIP3    H142823   3.251   3.481   2.243 -0.7588  0.4355  1.0860
 7136TIP3    H242824   3.384   3.442   2.303 -1.7494 -3.2626  0.9873
 7137TIP3   OH242825   3.736   6.689  16.715  0.3958 -0.2803  0.2169
 7137TIP3    H142826   3.797   6.616  16.727 -0.2777 -0.8171  0.3689
 7137TIP3    H242827   3.711   6.685  16.623  2.8820  1.7479 -0.6145
 7138TIP3   OH242828   3.814   4.734   4.528 -0.7010  0.2261 -0.0115
 7138TIP3    H142829   3.822   4.722   4.622 -0.0375  0.6004 -0.0135
 7138TIP3    H242830   3.878   4.674   4.490 -1.4523 -0.4249 -0.2520
 7139TIP3   OH242831   4.575   1.919   3.439 -0.2790  0.6426 -0.3902
 7139TIP3    H142832   4.566   1.845   3.499 -0.3494  0.2748 -0.8500
 7139TIP3    H242833   4.669   1.927   3.423 -0.2843  0.5562 -0.4610
 7140TIP3   OH242834   1.558   2.159  14.052  0.7230  0.2700 -0.1635
 7140TIP3    H142835   1.627   2.113  14.100 -1.3523 -3.4702 -0.5600
 7140TIP3    H242836   1.495   2.185  14.120  0.3423 -0.3080 -0.2972
 7141TIP3   OH242837   1.439   3.714  13.856 -0.0326  0.0035  0.0825
 7141TIP3    H142838   1.425   3.760  13.773 -0.3738 -1.7422 -0.8757
 7141TIP3    H242839   1.384   3.636  13.849  3.5717 -2.6457 -0.1311
 7142TIP3   OH242840   1.261   0.804  14.261 -0.0988  0.2472  0.3162
 7142TIP3    H142841   1.325   0.875  14.267  1.5753 -1.3176  1.5114
 7142TIP3    H242842   1.257   0.769  14.350  0.3318 -2.1839 -0.6033
 7143TIP3   OH242843   1.537   3.353   6.998 -0.4711  0.2727 -0.6890
 7143TIP3    H142844   1.555   3.277   6.943  0.7919 -0.2051  0.3587
 7143TIP3    H242845   1.569   3.328   7.084  0.6451  2.2840 -0.5101
 7144TIP3   OH242846   2.420   2.659   1.354  0.2016 -0.5390  0.2305
 7144TIP3    H142847   2.409   2.565   1.341 -1.9999 -0.1795 -0.8027
 7144TIP3    H242848   2.365   2.699   1.286  1.1055  1.4961  0.6461
 7145TIP3   OH242849   3.286   1.556  16.835  0.5611 -0.2926  0.1356
 7145TIP3    H142850   3.354   1.509  16.882  2.8250  0.6551 -2.0745
 7145TIP3    H242851   3.291   1.645  16.868  0.9913 -0.0272 -0.6296
 7146TIP3   OH242852   6.176   4.231  11.414  0.6883  0.0612 -0.6432
 7146TIP3    H142853   6.221   4.269  11.338  0.4749 -1.0321 -1.3299
 7146TIP3    H242854   6.134   4.305  11.457  1.1700  0.7526 -1.3541
 7147TIP3   OH242855   5.079   0.205  13.640 -0.1662 -0.4735 -0.2264
 7147TIP3    H142856   5.065   0.240  13.552 -1.0872  0.8317  0.4209
 7147TIP3    H242857   5.171   0.178  13.641 -0.1662 -0.5584 -1.6004
 7148TIP3   OH242858   0.053   4.748  12.505 -0.1287 -0.3843 -0.4958
 7148TIP3    H142859   0.005   4.718  12.582 -2.5754  0.0639 -1.7975
 7148TIP3    H242860  -0.014   4.765  12.440  1.8149  0.3500 -2.3764
 7149TIP3   OH242861   4.769   2.275  14.121  0.0804 -0.1909  0.0190
 7149TIP3    H142862   4.823   2.311  14.192  0.7317 -2.6652  0.8120
 7149TIP3    H242863   4.825   2.210  14.079 -1.9357 -2.1075  0.2329
 7150TIP3   OH242864   5.273   6.367   2.879  0.0221  0.4430 -0.1996
 7150TIP3    H142865   5.313   6.344   2.795 -1.3341 -0.8468 -0.5201
 7150TIP3    H242866   5.208   6.434   2.858 -0.9710 -0.5322 -0.3678
 7151TIP3   OH242867   4.788   5.758  14.386  0.9655 -0.1363 -0.6709
 7151TIP3    H142868   4.841   5.826  14.426 -0.2504  0.0272  0.7102
 7151TIP3    H242869   4.784   5.782  14.294  0.2910  1.8440 -0.1560
 7152TIP3   OH242870   6.530   5.601   3.567 -0.5732 -0.2328 -0.4974
 7152TIP3    H142871   6.476   5.558   3.502 -0.1168  0.3161 -1.2491
 7152TIP3    H242872   6.615   5.614   3.524 -0.3782  0.4620  0.0701
 7153TIP3   OH242873   0.208   4.254   4.566 -0.6811  0.6367  0.7703
 7153TIP3    H142874   0.274   4.299   4.619 -0.2647  2.7318 -1.4694
 7153TIP3    H242875   0.259   4.203   4.502 -1.2161  0.6030  0.3673
 7154TIP3   OH242876   4.376   0.021  14.860 -0.0082  0.1984 -0.4918
 7154TIP3    H142877   4.355   0.064  14.943  1.5812  0.5388 -0.2302
 7154TIP3    H242878   4.455  -0.029  14.879  0.9885  1.1092 -2.0599
 7155TIP3   OH242879   3.691   6.374  17.064  0.4442 -0.3194 -0.0546
 7155TIP3    H142880   3.666   6.416  17.147  1.7134 -0.7730  0.5685
 7155TIP3    H242881   3.640   6.293  17.062  0.8391 -0.5832  0.5522
 7156TIP3   OH242882   0.119   6.563   6.276  0.1429  0.1082 -1.1156
 7156TIP3    H142883   0.068   6.535   6.352  2.2875  0.0185  0.3213
 7156TIP3    H242884   0.101   6.657   6.269  0.6757  0.3080  0.0878
 7157TIP3   OH242885   6.023   5.535   4.321  0.2872 -1.0431  0.3535
 7157TIP3    H142886   6.095   5.512   4.381  1.9290  0.0761 -1.1281
 7157TIP3    H242887   6.066   5.584   4.251 -1.7643 -1.4015 -1.1839
 7158TIP3   OH242888   1.908   4.997  16.656  0.6394 -0.1842 -0.1889
 7158TIP3    H142889   1.818   5.010  16.686  0.2928  0.7468 -1.5901
 7158TIP3    H242890   1.953   5.079  16.676  1.0069 -0.4104 -0.0765
 7159TIP3   OH242891   2.132   1.514  16.090 -0.3219  0.1334 -0.0473
 7159TIP3    H142892   2.080   1.583  16.048 -0.6580  0.4114  0.8182
 7159TIP3    H242893   2.223   1.542  16.074 -0.4528  1.7271  1.8000
 7160TIP3   OH242894   3.624   2.128  14.574  0.0416 -0.1879  0.0915
 7160TIP3    H142895   3.533   2.101  14.590 -0.1988  1.4432  1.5345
 7160TIP3    H242896   3.617   2.218  14.544  1.1581 -0.3031 -0.5258
 7161TIP3   OH242897   6.558   4.684  14.214  0.0407 -0.2096  0.4478
 7161TIP3    H142898   6.577   4.607  14.161 -0.7926  0.6822 -1.1778
 7161TIP3    H242899   6.463   4.693  14.212  0.0254  0.0861  1.7533
 7162TIP3   OH242900   2.215   1.754  14.805  0.3447  0.4647  0.3663
 7162TIP3    H142901   2.229   1.676  14.859 -0.5946  0.8313  1.1432
 7162TIP3    H242902   2.303   1.788  14.791  0.7096 -0.3571  0.5799
 7163TIP3   OH242903   0.939   4.494  12.724  0.3091 -0.2084  0.4070
 7163TIP3    H142904   0.902   4.407  12.717  1.2896 -0.6339  0.3721
 7163TIP3    H242905   0.900   4.531  12.803 -0.7909 -0.3355 -0.0731
 7164TIP3   OH242906   1.366   1.084   5.173  0.4467 -0.5499  0.1053
 7164TIP3    H142907   1.361   1.095   5.078  1.1197 -1.0260  0.0116
 7164TIP3    H242908   1.418   1.159   5.203  0.4920 -0.5637  0.0622
 7165TIP3   OH242909   5.037   2.941  12.236 -0.0770  0.1954  0.1509
 7165TIP3    H142910   5.076   2.853  12.242  1.1357  0.6874 -0.3251
 7165TIP3    H242911   5.090   2.985  12.169 -0.9712  1.1406  0.0685
 7166TIP3   OH242912   6.144   0.628  15.000 -0.2871  0.6457  0.7839
 7166TIP3    H142913   6.072   0.683  14.970  0.3282  2.1809  2.0657
 7166TIP3    H242914   6.112   0.588  15.082 -0.3640 -0.1373  0.3802
 7167TIP3   OH242915   6.341   6.695   0.808  0.2688 -0.0519 -0.7353
 7167TIP3    H142916   6.271   6.703   0.873 -0.7028 -2.7628 -1.3939
 7167TIP3    H242917   6.318   6.758   0.740 -0.8101  0.0225 -0.3042
 7168TIP3   OH242918   6.011   6.131  11.960  0.1437 -0.1088  0.0188
 7168TIP3    H142919   6.017   6.169  11.873  0.2160  0.9363  0.4716
 7168TIP3    H242920   6.080   6.175  12.010 -0.7562  0.2657  0.9534
 7169TIP3   OH242921   1.574   2.998   5.221 -0.0164  0.0943 -0.4475
 7169TIP3    H142922   1.594   2.943   5.146 -1.8320  0.4470 -1.2061
 7169TIP3    H242923   1.618   3.081   5.203 -0.2993  0.1163 -1.0366
 7170TIP3   OH242924   6.291   0.302  16.506  0.4156  0.0838  0.4260
 7170TIP3    H142925   6.256   0.378  16.551 -0.2109 -0.2274  0.4644
 7170TIP3    H242926   6.323   0.337  16.423  2.6538  0.8661  1.5794
 7171TIP3   OH242927   1.113   5.017  14.285  0.4264  0.0809  0.3732
 7171TIP3    H142928   1.122   5.101  14.239  0.7259  0.1743  0.5999
 7171TIP3    H242929   1.159   4.954  14.230 -0.5846 -0.1089 -0.2655
 7172TIP3   OH242930   1.383   1.562   0.594 -0.5152 -0.0109  0.6389
 7172TIP3    H142931   1.370   1.641   0.541 -1.3041  0.2976  1.2763
 7172TIP3    H242932   1.300   1.551   0.641 -1.2518 -2.5613 -1.1970
 7173TIP3   OH242933   4.147   2.194   5.339 -0.6876 -0.1053  0.0519
 7173TIP3    H142934   4.207   2.123   5.314 -0.3492  0.1913  0.0132
 7173TIP3    H242935   4.066   2.149   5.363 -1.0101 -0.4078 -1.5461
 7174TIP3   OH242936   6.743   4.713   6.195  0.0792  0.7429  0.0369
 7174TIP3    H142937   6.663   4.679   6.236  0.3120  0.6721  0.4377
 7174TIP3    H242938   6.814   4.664   6.236  0.2365 -0.2180 -1.3768
 7175TIP3   OH242939   1.815   3.044  14.473 -0.4765 -0.0953 -0.2361
 7175TIP3    H142940   1.864   3.078  14.398 -0.1159  1.5262  0.7167
 7175TIP3    H242941   1.878   3.044  14.545 -0.5343 -2.5809 -0.1251
 7176TIP3   OH242942   3.614   3.736   4.360  0.1131  0.1225  0.3465
 7176TIP3    H142943   3.600   3.669   4.294 -2.7163  1.2645 -0.3014
 7176TIP3    H242944   3.656   3.808   4.314 -0.3202  0.2595  0.1616
 7177TIP3   OH242945   6.243   4.142   0.224  0.1608 -0.6335 -0.2574
 7177TIP3    H142946   6.220   4.087   0.149  1.1708 -0.2598 -0.8449
 7177TIP3    H242947   6.159   4.176   0.255 -0.4028 -1.9926 -0.2869
 7178TIP3   OH242948   3.811   6.611  14.734  0.4473 -0.2151 -0.0929
 7178TIP3    H142949   3.850   6.697  14.716  1.0729  0.2275  3.0366
 7178TIP3    H242950   3.802   6.570  14.648  0.0724  2.9975 -1.6550
 7179TIP3   OH242951   1.806   0.773   2.312  0.0225 -0.5088 -0.1110
 7179TIP3    H142952   1.802   0.696   2.369  1.4725 -1.0159 -0.6744
 7179TIP3    H242953   1.899   0.785   2.294 -0.2576  0.8967 -0.7017
 7180TIP3   OH242954   1.618   4.788  10.923  0.1745  0.4977 -0.7635
 7180TIP3    H142955   1.565   4.827  10.854 -1.6155  1.4130  1.0746
 7180TIP3    H242956   1.700   4.836  10.920  0.2554  0.3007 -2.4510
 7181TIP3   OH242957   3.411   3.836   4.527  0.3670 -0.6809 -0.8797
 7181TIP3    H142958   3.460   3.782   4.464  0.8168  1.2079 -2.1703
 7181TIP3    H242959   3.469   3.910   4.545 -1.7792  1.3024 -1.9877
 7182TIP3   OH242960   1.985   5.182   5.256 -0.3489  0.3482  0.7618
 7182TIP3    H142961   2.043   5.137   5.318 -0.6805  0.2485  1.0016
 7182TIP3    H242962   1.899   5.179   5.298 -0.4071  1.0596  0.7010
 7183TIP3   OH242963   5.812   0.311  13.434 -0.2163  0.3034  0.0430
 7183TIP3    H142964   5.772   0.354  13.358 -0.7238 -2.6012 -1.4098
 7183TIP3    H242965   5.892   0.272  13.401  0.0425 -0.2006  1.2267
 7184TIP3   OH242966   0.999   5.301  13.707  0.8496  0.1385 -0.0250
 7184TIP3    H142967   1.093   5.281  13.703  0.3477 -2.5541  0.7857
 7184TIP3    H242968   0.959   5.235  13.651 -0.6195  1.1036 -0.1288
 7185TIP3   OH242969   1.290   6.757  15.378  0.3955  0.3151  0.2047
 7185TIP3    H142970   1.304   6.692  15.447 -1.1097  0.5691  0.7683
 7185TIP3    H242971   1.206   6.734  15.339  1.0330  0.4391 -1.2646
 7186TIP3   OH242972   5.435   0.554  12.282  0.2937 -0.3989  0.4048
 7186TIP3    H142973   5.445   0.649  12.285  3.4787 -0.6493 -0.3413
 7186TIP3    H242974   5.525   0.521  12.277 -0.6841 -3.5168  2.2202
 7187TIP3   OH242975   4.764   1.670  11.838 -0.3507 -0.0323  0.0454
 7187TIP3    H142976   4.710   1.597  11.868 -0.4362 -0.2010 -0.4950
 7187TIP3    H242977   4.747   1.674  11.743  2.4089 -1.6088 -0.5574
 7188TIP3   OH242978   6.250   0.099   0.621 -0.5032  0.2242  0.7167
 7188TIP3    H142979   6.261   0.051   0.539  0.7749  2.9311 -0.7707
 7188TIP3    H242980   6.171   0.152   0.607 -0.1843  0.8210  1.1654
 7189TIP3   OH242981   4.186   4.344   4.657  0.0822  0.0334  0.2527
 7189TIP3    H142982   4.149   4.423   4.620 -1.8510 -0.9178  0.0941
 7189TIP3    H242983   4.142   4.273   4.611  2.0817 -1.1596  0.0984
 7190TIP3   OH242984   1.438   5.414  11.858  0.2618  0.3258 -0.7361
 7190TIP3    H142985   1.452   5.496  11.812  0.7935  0.0103 -1.1317
 7190TIP3    H242986   1.478   5.347  11.803  3.6727  0.2835  1.6082
 7191TIP3   OH242987   0.447   4.513   0.009 -0.3840 -0.6618 -0.0118
 7191TIP3    H142988   0.375   4.453   0.028 -0.5107 -0.7302 -0.6879
 7191TIP3    H242989   0.426   4.593   0.057  0.5048 -1.6529  2.0459
 7192TIP3   OH242990   4.963   2.803  15.090 -0.1427  0.2988  0.3913
 7192TIP3    H142991   4.921   2.799  15.176  2.0144  0.8475  1.5082
 7192TIP3    H242992   4.895   2.839  15.032 -1.4650  0.4050  1.9604
 7193TIP3   OH242993   4.022   4.076   5.576 -0.0490  0.2769  0.1101
 7193TIP3    H142994   4.061   4.150   5.623 -0.2168  0.8270 -0.6086
 7193TIP3    H242995   4.055   4.084   5.487 -0.2563 -0.3828 -0.0271
 7194TIP3   OH242996   6.515   2.757  13.873  0.3603  0.4349 -0.7135
 7194TIP3    H142997   6.423   2.762  13.898  0.4357 -1.5622  0.0331
 7194TIP3    H242998   6.514   2.722  13.784  0.4819 -2.3277  0.3371
 7195TIP3   OH242999   3.916   2.109  14.566 -0.0862 -0.1123  0.4374
 7195TIP3    H143000   3.957   2.155  14.492  0.9335 -1.9619 -0.1674
 7195TIP3    H243001   3.825   2.141  14.566 -0.5357 -1.2264 -2.5696
 7196TIP3   OH243002   4.175   3.873   3.701 -0.2381  0.3277  0.1265
 7196TIP3    H143003   4.229   3.842   3.628  0.3301 -0.0952  0.7108
 7196TIP3    H243004   4.128   3.949   3.667 -0.2526 -0.0918 -0.7827
 7197TIP3   OH243005   3.387   3.057  15.831  0.3837 -0.2188  0.3752
 7197TIP3    H143006   3.405   3.144  15.868  1.6389  0.1644 -1.0945
 7197TIP3    H243007   3.458   3.002  15.865  1.0538 -0.0620 -0.7549
 7198TIP3   OH243008   4.410   5.804   4.093 -0.4442 -0.4789 -0.3396
 7198TIP3    H143009   4.395   5.714   4.063 -0.7909 -0.5716  0.1045
 7198TIP3    H243010   4.407   5.798   4.189  3.3593 -0.6801 -0.1452
 7199TIP3   OH243011   6.602   4.647  14.925  0.2852  0.0571 -0.0377
 7199TIP3    H143012   6.646   4.619  15.006  2.1010  0.5276 -0.8298
 7199TIP3    H243013   6.579   4.566  14.880 -1.3585 -0.2225  1.2493
 7200TIP3   OH243014   3.220   4.249   0.462  0.2304 -0.0453  0.2034
 7200TIP3    H143015   3.282   4.187   0.501  1.3774  2.2391  2.2067
 7200TIP3    H243016   3.249   4.259   0.372  1.7751 -0.3128  0.6541
 7201TIP3   OH243017   2.109   0.788   0.760 -0.0414 -0.9787  1.1183
 7201TIP3    H143018   2.015   0.807   0.767  0.1844  0.7174 -0.2951
 7201TIP3    H243019   2.152   0.863   0.802  0.7578 -0.2610 -0.9376
 7202TIP3   OH243020   0.421   1.524   0.331  0.3375 -0.4057  0.0899
 7202TIP3    H143021   0.362   1.450   0.346  0.5769 -0.2248  2.1186
 7202TIP3    H243022   0.474   1.529   0.411  1.2444  1.1260 -0.5767
 7203TIP3   OH243023   1.943   4.011   2.976 -0.1708  0.4836  0.2867
 7203TIP3    H143024   1.984   3.936   3.019  0.2174 -0.6628 -1.9715
 7203TIP3    H243025   1.978   4.087   3.022  1.7103 -0.6141  0.7495
 7204TIP3   OH243026   3.095   3.840  13.648 -0.1151 -0.3121 -0.1148
 7204TIP3    H143027   3.040   3.761  13.654 -0.6143  0.1069  1.0048
 7204TIP3    H243028   3.033   3.910  13.625  0.5727 -0.5073 -2.7077
 7205TIP3   OH243029   5.046   1.442  12.219 -0.2664  0.4970 -0.1476
 7205TIP3    H143030   4.983   1.385  12.263 -1.0083  1.1657 -0.3218
 7205TIP3    H243031   5.014   1.531  12.237  1.5391  0.9019  1.1164
 7206TIP3   OH243032   2.864   2.764   3.407 -0.4485 -0.6812 -0.1254
 7206TIP3    H143033   2.808   2.705   3.355 -0.7341 -1.3727  0.9520
 7206TIP3    H243034   2.807   2.795   3.477 -0.0653  0.2580 -0.2309
 7207TIP3   OH243035   5.141   4.291   1.200  0.2253  0.0511 -0.4794
 7207TIP3    H143036   5.204   4.353   1.161 -0.0136  0.9144  0.4939
 7207TIP3    H243037   5.062   4.301   1.147  0.0557  0.8842 -0.0830
 7208TIP3   OH243038   4.545   1.465   4.537  0.4169  0.0923  0.3104
 7208TIP3    H143039   4.612   1.533   4.527 -0.9346  1.3968 -0.0913
 7208TIP3    H243040   4.520   1.468   4.629 -0.7612  1.2467 -0.0310
 7209TIP3   OH243041   0.008   3.694   2.990 -0.1768  0.7437 -0.0516
 7209TIP3    H143042  -0.006   3.711   3.083 -0.4839  0.1836  0.0062
 7209TIP3    H243043   0.062   3.615   2.987 -3.0731 -1.3148 -0.3737
 7210TIP3   OH243044   4.320   6.118  13.354 -0.4547  0.4103  0.4636
 7210TIP3    H143045   4.307   6.116  13.259  0.4396 -1.1792  0.3720
 7210TIP3    H243046   4.253   6.179  13.385  0.3528  2.3227 -1.3566
 7211TIP3   OH243047   0.375   2.739   0.460 -0.2380  0.0161  0.6995
 7211TIP3    H143048   0.282   2.731   0.481 -0.2726  0.1459  0.5976
 7211TIP3    H243049   0.420   2.717   0.542 -0.3203 -1.4508  0.3531
 7212TIP3   OH243050   1.364   3.167   5.294  0.5987 -0.9040  0.6308
 7212TIP3    H143051   1.395   3.252   5.263 -1.9407 -0.0641  0.2276
 7212TIP3    H243052   1.424   3.103   5.256  0.7711  0.5137 -1.5374
 7213TIP3   OH243053   1.841   1.474  12.607 -0.5531 -0.0671  0.2180
 7213TIP3    H143054   1.879   1.558  12.633  0.4571 -0.2771 -0.5229
 7213TIP3    H243055   1.869   1.413  12.677 -1.5665  0.2787  0.9274
 7214TIP3   OH243056   3.973   0.821   4.837 -0.3898 -0.1625  0.2289
 7214TIP3    H143057   4.064   0.814   4.808  0.1821  0.9261  1.7054
 7214TIP3    H243058   3.958   0.745   4.892 -0.9830 -1.3651 -1.5386
 7215TIP3   OH243059   6.290   6.098  15.764  0.3522  0.0275  0.2617
 7215TIP3    H143060   6.261   6.184  15.735  1.7364  0.5077  0.2742
 7215TIP3    H243061   6.354   6.071  15.699 -0.1067 -1.0198  0.2328
 7216TIP3   OH243062   5.113   4.633  11.760  0.5039  0.0316 -0.1654
 7216TIP3    H143063   5.183   4.571  11.777  0.0913 -0.6911 -1.0904
 7216TIP3    H243064   5.124   4.701  11.827  1.4521 -0.6080  0.3275
 7217TIP3   OH243065   0.469   4.184  16.027 -0.1704 -0.1951 -0.7203
 7217TIP3    H143066   0.420   4.231  16.095 -0.2529 -1.6095  0.2162
 7217TIP3    H243067   0.502   4.106  16.071 -0.0335 -1.0171 -2.2582
 7218TIP3   OH243068   3.673   2.993   0.929 -1.2650 -0.7154 -0.2502
 7218TIP3    H143069   3.633   3.077   0.949 -1.3177 -0.4198 -1.5764
 7218TIP3    H243070   3.662   2.942   1.010 -1.5115  0.4256  0.4541
 7219TIP3   OH243071   1.902   3.249  13.701  0.1867 -0.3576 -0.1796
 7219TIP3    H143072   1.954   3.169  13.704  1.2059  0.3317  0.6287
 7219TIP3    H243073   1.960   3.318  13.734 -0.7092  0.7052 -0.7668
 7220TIP3   OH243074   4.596   0.714  11.310  0.0106 -0.0097  0.2750
 7220TIP3    H143075   4.623   0.663  11.386  0.2235 -2.0261 -1.1261
 7220TIP3    H243076   4.528   0.773  11.343 -2.5563 -3.3972  1.3111
 7221TIP3   OH243077   5.570   0.803  12.710 -0.5050 -0.2936  0.1505
 7221TIP3    H143078   5.482   0.794  12.748 -0.8096 -0.1884 -0.5124
 7221TIP3    H243079   5.582   0.898  12.700 -0.1023 -0.2841  0.7268
 7222TIP3   OH243080   4.216   5.259  11.567  0.4335 -0.4299  0.1102
 7222TIP3    H143081   4.197   5.255  11.474  0.7214 -0.3074  0.0427
 7222TIP3    H243082   4.292   5.202  11.578  0.9916  0.3036  0.1053
 7223TIP3   OH243083   5.678   4.954   2.469 -0.0752 -0.5780 -0.7462
 7223TIP3    H143084   5.769   4.982   2.458 -0.9678  1.4657 -3.3405
 7223TIP3    H243085   5.683   4.884   2.534  3.0971  0.8862  0.7372
 7224TIP3   OH243086   2.008   3.031  11.720  0.6576  0.1298 -0.1346
 7224TIP3    H143087   1.994   3.125  11.714 -0.3460 -0.1241 -2.5412
 7224TIP3    H243088   2.098   3.021  11.750  1.5476  1.8770 -2.1246
 7225TIP3   OH243089   4.469   4.841  16.540 -0.0715  0.2225 -0.0918
 7225TIP3    H143090   4.390   4.866  16.587 -0.1324 -0.5650  0.2218
 7225TIP3    H243091   4.535   4.904  16.569  0.6335 -1.9381  3.1871
 7226TIP3   OH243092   2.036   0.346   4.660  0.1926 -0.2701  0.1178
 7226TIP3    H143093   2.027   0.391   4.743  0.5116  3.1012 -1.5887
 7226TIP3    H243094   1.949   0.352   4.620  0.4583 -0.4004 -0.4882
 7227TIP3   OH243095   4.251   5.644   3.618 -0.7320  0.1211  0.4009
 7227TIP3    H143096   4.339   5.635   3.657  0.4828  1.3027 -1.9733
 7227TIP3    H243097   4.193   5.601   3.681  1.6671 -1.5616  1.5654
 7228TIP3   OH243098   1.890   3.476   4.792 -0.5845 -0.2334 -0.3495
 7228TIP3    H143099   1.850   3.558   4.763 -1.4716 -0.0326  1.4319
 7228TIP3    H243100   1.830   3.408   4.762 -0.4376 -0.1762 -0.7913
 7229TIP3   OH243101   4.086   3.125   1.743  0.5520  0.0758 -0.1627
 7229TIP3    H143102   4.083   3.207   1.694 -2.6504 -0.6371 -1.2727
 7229TIP3    H243103   4.122   3.061   1.681 -0.3628 -0.1251 -0.4847
 7230TIP3   OH243104   2.789   1.981   3.320  1.0253 -0.1240  0.0365
 7230TIP3    H143105   2.709   1.943   3.357  1.0249 -0.8322 -0.6916
 7230TIP3    H243106   2.817   2.045   3.386  0.0418 -0.1022  0.4479
 7231TIP3   OH243107   5.706   4.179  13.166  0.1930 -0.5696  0.1804
 7231TIP3    H143108   5.630   4.198  13.111  0.0849 -1.5885 -0.0266
 7231TIP3    H243109   5.674   4.191  13.256  0.2239  0.5631  0.0455
 7232TIP3   OH243110   6.295   0.364  16.983 -0.2536  0.1202  0.6174
 7232TIP3    H143111   6.318   0.293  16.923  0.4869 -0.6542  1.8072
 7232TIP3    H243112   6.365   0.364  17.048 -0.9787  1.0520  1.4025
 7233TIP3   OH243113   3.783   4.793  16.439  0.2696 -0.4694 -0.1226
 7233TIP3    H143114   3.826   4.872  16.471  0.7357 -1.1309  0.9026
 7233TIP3    H243115   3.740   4.821  16.358 -0.9739  1.2497  1.0742
 7234TIP3   OH243116   4.360   0.252   3.708 -0.2072 -0.3285  0.5879
 7234TIP3    H143117   4.408   0.180   3.750  0.7737 -0.0875 -0.0808
 7234TIP3    H243118   4.407   0.265   3.625 -0.9398  0.4778  0.3035
 7235TIP3   OH243119   1.228   0.371   6.467  0.1354  0.2857  0.7715
 7235TIP3    H143120   1.221   0.313   6.543 -0.1598 -0.1994  0.3796
 7235TIP3    H243121   1.149   0.353   6.416 -0.1256  1.2751  0.8143
 7236TIP3   OH243122   1.031   1.268   6.325  0.4377  0.0353  0.0567
 7236TIP3    H143123   1.052   1.182   6.362  0.5652  0.1296  0.2015
 7236TIP3    H243124   0.972   1.248   6.252  0.2889 -0.1585  0.2299
 7237TIP3   OH243125   2.272   4.340   0.761  0.4244  0.4176 -0.6283
 7237TIP3    H143126   2.353   4.374   0.798 -0.1719  0.2547  0.8456
 7237TIP3    H243127   2.274   4.246   0.778 -1.2099  0.7519  1.6942
 7238TIP3   OH243128   0.456   4.392  15.472  0.2782 -0.0165 -0.2401
 7238TIP3    H143129   0.386   4.376  15.409 -1.3944  1.7185  1.1145
 7238TIP3    H243130   0.484   4.305  15.500 -1.2153 -0.7350 -0.9399
 7239TIP3   OH243131   6.367   3.846  12.518 -0.3630  0.0872 -0.9630
 7239TIP3    H143132   6.413   3.771  12.556  0.0391 -0.4266 -2.4112
 7239TIP3    H243133   6.402   3.852  12.429 -1.0967  1.4067 -1.1684
 7240TIP3   OH243134   6.325   6.300   3.434 -0.5508 -0.3203  0.8117
 7240TIP3    H143135   6.232   6.308   3.459 -0.6958 -2.4869  1.0714
 7240TIP3    H243136   6.368   6.273   3.515  0.3341  0.7444  0.7024
 7241TIP3   OH243137   5.271   6.651  13.942 -0.1473 -0.4678  0.3042
 7241TIP3    H143138   5.295   6.659  13.850  3.8551 -0.7079  1.2607
 7241TIP3    H243139   5.308   6.567  13.970  0.1573  0.3642  2.5362
 7242TIP3   OH243140   4.687   1.217   1.319 -0.0602  0.1566  0.2207
 7242TIP3    H143141   4.774   1.251   1.339  0.1024 -0.2717  0.2618
 7242TIP3    H243142   4.630   1.253   1.387  0.2937 -0.4450  0.8364
 7243TIP3   OH243143   2.474   4.773  12.699  0.1267  0.1024 -0.3570
 7243TIP3    H143144   2.568   4.783  12.689  0.1602  1.1561  0.8090
 7243TIP3    H243145   2.447   4.852  12.747 -1.2525 -0.4737 -0.1726
 7244TIP3   OH243146   2.904   4.270   1.692 -0.1303  0.2488  0.0780
 7244TIP3    H143147   2.956   4.324   1.632 -0.4334 -1.7958 -2.0963
 7244TIP3    H243148   2.813   4.296   1.674 -0.1968 -0.0973 -0.0844
 7245TIP3   OH243149   3.823   1.966   4.389  0.4056 -0.3337  0.0939
 7245TIP3    H143150   3.897   2.017   4.422  0.2555 -0.6088  0.8646
 7245TIP3    H243151   3.746   2.010   4.426  0.1497  0.1691 -0.9917
 7246TIP3   OH243152   1.677   2.058   3.505  0.0972 -0.2255 -0.0235
 7246TIP3    H143153   1.707   2.029   3.418  0.6282  0.3741 -0.0441
 7246TIP3    H243154   1.581   2.060   3.498  0.0969 -1.0520 -0.3133
 7247TIP3   OH243155   0.367   1.144  15.952  0.0604 -0.3215  0.1055
 7247TIP3    H143156   0.365   1.124  15.859 -1.4923  0.4870 -0.0538
 7247TIP3    H243157   0.325   1.069  15.994  2.4075 -1.5462  0.3489
 7248TIP3   OH243158   1.787   1.558  14.536  0.3642 -0.3438  0.3726
 7248TIP3    H143159   1.745   1.640  14.561  2.3366  0.2059  1.9621
 7248TIP3    H243160   1.843   1.582  14.462  0.2981 -0.4354  0.2930
 7249TIP3   OH243161   2.998   0.182   6.600  0.8351 -0.9049 -0.0276
 7249TIP3    H143162   3.042   0.137   6.672  2.5442 -1.3250 -1.3033
 7249TIP3    H243163   3.062   0.248   6.570  0.7779 -1.7937 -2.1603
 7250TIP3   OH243164   5.125   2.544   0.469  0.6177  0.1643  0.3789
 7250TIP3    H143165   5.156   2.454   0.482  0.1751  0.0146  0.4290
 7250TIP3    H243166   5.037   2.544   0.507  0.5840  0.5952  0.2978
 7251TIP3   OH243167   1.487   5.343  11.331 -0.0225 -0.6841 -0.0136
 7251TIP3    H143168   1.506   5.256  11.367  0.5294  0.8193  3.4332
 7251TIP3    H243169   1.393   5.355  11.344 -0.1337 -0.8254 -0.6655
 7252TIP3   OH243170   6.630   1.726   2.222  0.3689  0.2316 -0.5748
 7252TIP3    H143171   6.595   1.762   2.140  0.6738 -0.4034 -0.9887
 7252TIP3    H243172   6.719   1.700   2.200  0.1387 -0.8104 -0.2986
 7253TIP3   OH243173   0.495   4.794  17.084  0.1743  0.5512 -0.1630
 7253TIP3    H143174   0.574   4.776  17.135 -0.0849 -0.4695 -0.1215
 7253TIP3    H243175   0.423   4.773  17.143 -0.1240 -0.1198 -0.7592
 7254TIP3   OH243176   1.663   3.032   1.178  0.0224 -0.1987 -0.0732
 7254TIP3    H143177   1.642   3.102   1.240  1.1290 -1.1209  1.3754
 7254TIP3    H243178   1.627   2.953   1.218  0.3817 -0.7407 -0.8143
 7255TIP3   OH243179   5.210   3.570  12.995  0.1261 -0.7081  0.1859
 7255TIP3    H143180   5.152   3.532  12.929  1.0797 -0.4936 -0.7931
 7255TIP3    H243181   5.160   3.644  13.030 -0.8576 -1.5275  0.5572
 7256TIP3   OH243182   6.102   4.806   3.288 -0.2098  0.2073 -0.0344
 7256TIP3    H143183   6.137   4.759   3.363 -0.5434  0.3689  0.2230
 7256TIP3    H243184   6.031   4.750   3.255 -0.7189  0.6080  0.3746
 7257TIP3   OH243185   1.822   3.298   0.756 -0.9370  0.1533 -0.4314
 7257TIP3    H143186   1.808   3.361   0.686  0.0476 -0.8214 -1.5325
 7257TIP3    H243187   1.776   3.219   0.728 -2.9851  0.6314  1.3863
 7258TIP3   OH243188   1.802   3.045  13.300  0.0682  0.3941 -0.0811
 7258TIP3    H143189   1.802   2.960  13.257  0.1835  0.9469 -1.2021
 7258TIP3    H243190   1.882   3.088  13.269  0.2604  0.7240  0.8501
 7259TIP3   OH243191   5.756   6.377  13.387 -0.2747 -0.3127  0.3113
 7259TIP3    H143192   5.815   6.345  13.455  1.2931 -0.4764 -1.0873
 7259TIP3    H243193   5.686   6.422  13.434  1.2225  0.2869  1.9936
 7260TIP3   OH243194   2.673   2.673  13.729 -0.1763 -0.5433 -0.1995
 7260TIP3    H143195   2.695   2.660  13.637  2.4831 -1.3482  0.5305
 7260TIP3    H243196   2.729   2.612  13.777 -2.1669 -0.7963  1.9295
 7261TIP3   OH243197   1.201   4.075  12.822  0.0292  0.7123 -0.1788
 7261TIP3    H143198   1.167   4.143  12.764 -0.6650  0.3950 -0.1373
 7261TIP3    H243199   1.221   4.121  12.904  0.0185  0.9582 -0.3151
 7262TIP3   OH243200   6.662   1.516  10.666 -0.3930 -0.0387 -0.1761
 7262TIP3    H143201   6.726   1.452  10.635 -0.9701  0.1901 -1.8867
 7262TIP3    H243202   6.608   1.467  10.728 -0.7031 -1.1885 -1.3183
 7263TIP3   OH243203   6.054   1.931   1.237  0.7228  0.2475 -0.0593
 7263TIP3    H143204   6.102   1.937   1.319  0.0172  0.7006  0.3282
 7263TIP3    H243205   6.055   2.020   1.201  0.3212  0.2257 -0.1300
 7264TIP3   OH243206   4.799   1.236  14.710 -0.0591 -0.6343 -0.1753
 7264TIP3    H143207   4.800   1.291  14.788 -1.1424 -0.4793 -0.2597
 7264TIP3    H243208   4.775   1.149  14.742  1.8280 -1.1254 -0.0187
 7265TIP3   OH243209   2.701   3.311  11.274 -0.0977  0.2902  0.1130
 7265TIP3    H143210   2.742   3.357  11.348 -0.3438  0.3474  0.2150
 7265TIP3    H243211   2.607   3.323  11.288 -0.1380  0.5220 -0.3525
 7266TIP3   OH243212   3.893   6.035   0.782 -0.0394  0.1340  0.0808
 7266TIP3    H143213   3.804   6.058   0.807  0.4602  3.3663 -0.8649
 7266TIP3    H243214   3.883   5.986   0.701 -0.9528  0.5177 -0.0453
 7267TIP3   OH243215   1.295   2.321  13.885  0.1172  0.2900  0.1558
 7267TIP3    H143216   1.210   2.332  13.842  0.5189  0.6944 -0.5610
 7267TIP3    H243217   1.315   2.407  13.920 -0.5639 -0.2279  1.8569
 7268TIP3   OH243218   6.496   2.988  12.011 -0.2710  0.3874  0.0128
 7268TIP3    H143219   6.570   2.927  12.005 -0.3595  0.4677 -2.0923
 7268TIP3    H243220   6.422   2.940  11.975 -0.5451  1.4146 -0.8037
 7269TIP3   OH243221   4.659   1.792  13.937  0.6135 -0.3536  0.0842
 7269TIP3    H143222   4.663   1.855  14.008  0.2569 -2.7601  2.3115
 7269TIP3    H243223   4.595   1.828  13.876  0.9831  1.7836  0.9321
 7270TIP3   OH243224   3.740   3.276  14.666  0.3862 -0.6552  0.5379
 7270TIP3    H143225   3.793   3.196  14.664 -0.0891 -0.9617  0.2353
 7270TIP3    H243226   3.663   3.256  14.613  1.7899  1.1069 -2.2404
 7271TIP3   OH243227   5.923   0.645  16.253  0.4087 -0.3551  0.4510
 7271TIP3    H143228   5.890   0.556  16.245 -1.2710  0.4218 -1.6452
 7271TIP3    H243229   5.887   0.676  16.336 -3.9133  0.3174 -1.5627
 7272TIP3   OH243230   3.731   6.166   3.238 -0.3187  0.5676 -0.1513
 7272TIP3    H143231   3.748   6.208   3.322 -2.0642 -1.3960  1.2218
 7272TIP3    H243232   3.774   6.080   3.245 -1.3717 -0.0251 -0.8496
 7273TIP3   OH243233   5.914   2.488   3.093  0.1127  0.7351  0.2740
 7273TIP3    H143234   5.937   2.474   3.001  0.5429 -0.5074  0.5629
 7273TIP3    H243235   5.995   2.519   3.134 -0.1590  1.5777  0.1701
 7274TIP3   OH243236   6.762   3.357  13.550 -0.8506  0.5016  0.2904
 7274TIP3    H143237   6.854   3.384  13.551 -1.0643  1.2192  0.7837
 7274TIP3    H243238   6.728   3.390  13.467 -0.6623  0.1990  0.0877
 7275TIP3   OH243239   1.916   2.213   6.549 -0.5065  0.2914  0.1981
 7275TIP3    H143240   1.842   2.217   6.488 -0.4437 -0.9857  0.0227
 7275TIP3    H243241   1.947   2.304   6.554  0.3047  0.2499 -2.7029
 7276TIP3   OH243242   6.031   2.874   1.441 -0.5247  0.1951 -0.2081
 7276TIP3    H143243   5.986   2.819   1.377  0.8234  0.9682 -1.8661
 7276TIP3    H243244   6.057   2.814   1.511 -0.9552 -0.8842 -0.9663
 7277TIP3   OH243245   4.664   5.347   0.641 -0.3892 -0.2380 -0.3928
 7277TIP3    H143246   4.571   5.344   0.662  0.0117 -0.4912  1.4570
 7277TIP3    H243247   4.707   5.359   0.726  1.2711 -0.2293 -1.2153
 7278TIP3   OH243248   6.043   4.567   1.688 -0.0058 -0.1792  0.2828
 7278TIP3    H143249   6.083   4.487   1.721  0.1086 -0.3337 -0.2182
 7278TIP3    H243250   6.022   4.618   1.766  1.3315 -0.0189  0.5610
 7279TIP3   OH243251   2.708   6.138  12.278  0.6336 -0.6713  0.0054
 7279TIP3    H143252   2.680   6.048  12.265 -2.1025 -0.1446  1.6570
 7279TIP3    H243253   2.672   6.186  12.203 -2.1211 -0.1986  1.5383
 7280TIP3   OH243254   3.833   2.135  16.162 -0.8459 -0.6150  0.7098
 7280TIP3    H143255   3.871   2.195  16.098 -0.3720 -1.2480  0.3915
 7280TIP3    H243256   3.750   2.108  16.124 -0.7169 -0.7349  0.5125
 7281TIP3   OH243257   4.980   0.098  13.907  0.3907  0.0233  0.6416
 7281TIP3    H143258   5.009   0.136  13.824  0.8007 -0.9943  0.3083
 7281TIP3    H243259   4.974   0.004  13.889 -2.8936  0.1564  0.7719
 7282TIP3   OH243260   5.688   3.604  15.172  0.1312 -0.3407 -0.3890
 7282TIP3    H143261   5.734   3.559  15.101 -0.5283 -0.0704 -0.9885
 7282TIP3    H243262   5.630   3.537  15.209 -0.8053 -0.0027 -1.2405
 7283TIP3   OH243263   5.477   4.332   6.079  0.2314 -0.4041  0.4992
 7283TIP3    H143264   5.535   4.279   6.025 -0.1802 -0.6586  0.3077
 7283TIP3    H243265   5.534   4.368   6.147  0.4206 -1.4889  0.9225
 7284TIP3   OH243266   0.091   2.286  13.645  0.1754 -0.2067 -0.6204
 7284TIP3    H143267   0.027   2.240  13.699 -0.0827 -1.0180 -1.5883
 7284TIP3    H243268   0.124   2.357  13.700  1.2717 -2.1113  1.2510
 7285TIP3   OH243269   5.854   0.961   3.303  0.3515 -0.3471 -0.8623
 7285TIP3    H143270   5.934   1.013   3.310 -1.0946  1.8536 -0.1534
 7285TIP3    H243271   5.847   0.942   3.209  1.4139 -0.1102 -1.0061
 7286TIP3   OH243272   6.203   1.974   0.668 -0.4100 -0.3271  0.0995
 7286TIP3    H143273   6.153   1.899   0.634 -1.4817 -0.1017  1.1619
 7286TIP3    H243274   6.292   1.940   0.679 -1.0101 -1.6079  1.1148
 7287TIP3   OH243275   0.110   2.828   1.107 -0.2604  0.1264  0.1511
 7287TIP3    H143276   0.026   2.821   1.152  0.7893  1.1504  2.3554
 7287TIP3    H243277   0.164   2.882   1.166  1.6622  0.1797 -1.6141
 7288TIP3   OH243278   5.313   1.899  13.099  1.1744  0.0489  0.5083
 7288TIP3    H143279   5.288   1.924  13.010  0.9048  0.2203  0.6302
 7288TIP3    H243280   5.343   1.981  13.138  1.1701 -0.0020  0.6174
 7289TIP3   OH243281   4.325   0.806  15.124  0.4126  0.1203  0.1150
 7289TIP3    H143282   4.317   0.711  15.125 -1.8368  0.2750  0.0794
 7289TIP3    H243283   4.393   0.826  15.188  1.8391 -1.5739 -0.8286
 7290TIP3   OH243284   2.325   6.690  16.308 -0.1435 -0.2378  0.5249
 7290TIP3    H143285   2.278   6.632  16.248 -1.0298  1.3480 -0.3699
 7290TIP3    H243286   2.275   6.687  16.389 -0.1208 -0.8185  0.5167
 7291TIP3   OH243287   1.011   5.971  16.582 -0.6448 -0.2068 -0.0299
 7291TIP3    H143288   0.920   5.981  16.555 -0.6930  2.0982  0.8377
 7291TIP3    H243289   1.049   5.912  16.517 -2.7142 -1.0746 -0.4838
 7292TIP3   OH243290   0.115   0.423  15.623  0.0422  0.0076  0.5770
 7292TIP3    H143291   0.171   0.482  15.674 -1.7757  0.4982  2.0697
 7292TIP3    H243292   0.030   0.425  15.669 -0.5141 -2.5401 -0.2757
 7293TIP3   OH243293   3.875   0.346  16.896 -0.5546  0.0715  0.4379
 7293TIP3    H143294   3.886   0.439  16.877 -0.7997  0.5119  2.3716
 7293TIP3    H243295   3.964   0.310  16.897 -0.3800  0.5082  0.7508
 7294TIP3   OH243296   6.107   3.817  13.037 -0.6695 -0.0073  0.4763
 7294TIP3    H143297   6.144   3.742  13.084 -0.3539  0.1701  0.5147
 7294TIP3    H243298   6.021   3.788  13.009 -0.8860 -0.0973  1.2212
 7295TIP3   OH243299   2.943   2.537  12.675  0.1418 -0.2283 -0.4490
 7295TIP3    H143300   2.983   2.517  12.760 -0.3761  0.7527  0.0364
 7295TIP3    H243301   2.944   2.632  12.669  1.8210 -0.3325 -2.3668
 7296TIP3   OH243302   6.017   4.904  14.739  0.2242 -0.4727 -0.1836
 7296TIP3    H143303   5.975   4.831  14.693  0.7450 -0.4213 -0.7416
 7296TIP3    H243304   5.953   4.975  14.736 -0.3745 -0.9715  0.5557
 7297TIP3   OH243305   4.953   0.036   3.294 -0.4418  0.1878  0.2787
 7297TIP3    H143306   4.938   0.081   3.211  1.1085 -2.3886 -1.4743
 7297TIP3    H243307   4.965  -0.056   3.269 -0.6603 -0.7431  3.4403
 7298TIP3   OH243308   0.734   2.698   0.477 -0.1098 -0.4189  0.4020
 7298TIP3    H143309   0.665   2.719   0.413  1.0257  0.0649 -0.6778
 7298TIP3    H243310   0.726   2.603   0.489 -0.7061 -0.4283 -0.0306
 7299TIP3   OH243311   5.760   1.987   2.617 -0.2040 -0.1194  0.0300
 7299TIP3    H143312   5.700   1.922   2.652  0.4539 -0.2059  1.0255
 7299TIP3    H243313   5.777   2.046   2.691 -0.9337  1.2793 -0.9071
 7300TIP3   OH243314   6.679   3.107   4.139  0.3443 -0.7675 -0.1374
 7300TIP3    H143315   6.747   3.169   4.165 -0.4893  0.3605 -0.6286
 7300TIP3    H243316   6.699   3.085   4.048  0.1898 -0.6269 -0.2048
 7301TIP3   OH243317   4.569   5.355  14.351  0.0814 -0.1782  0.0713
 7301TIP3    H143318   4.626   5.289  14.389 -1.9962 -1.4059  1.1495
 7301TIP3    H243319   4.496   5.363  14.413 -0.0960  2.5738 -0.4113
 7302TIP3   OH243320   2.158   3.422   1.013 -0.0901 -0.1433 -0.5614
 7302TIP3    H143321   2.202   3.504   0.990 -0.9475  0.3904 -0.3334
 7302TIP3    H243322   2.187   3.402   1.102 -1.2691  0.8728  0.0643
 7303TIP3   OH243323   2.589   0.879   4.543  1.1440 -0.3896  0.5318
 7303TIP3    H143324   2.528   0.919   4.605 -0.6710  0.1957 -1.5920
 7303TIP3    H243325   2.646   0.951   4.517  1.2359 -0.3973  0.7080
 7304TIP3   OH243326   6.305   4.638   2.483  0.5099  0.2148 -0.1567
 7304TIP3    H143327   6.343   4.551   2.485  0.4708  0.2201  0.7978
 7304TIP3    H243328   6.254   4.645   2.564 -1.0388  0.4260 -1.1156
 7305TIP3   OH243329   4.473   1.371   1.095  0.2624 -1.1680 -0.1919
 7305TIP3    H143330   4.493   1.317   1.019 -1.2238 -1.2214 -0.5598
 7305TIP3    H243331   4.445   1.309   1.162 -0.2298 -0.9649 -0.2065
 7306TIP3   OH243332   5.206   6.154  17.067  0.2801 -0.3091 -0.4881
 7306TIP3    H143333   5.232   6.071  17.027  0.3509 -0.6535  0.2514
 7306TIP3    H243334   5.258   6.220  17.021  0.5537 -0.7248 -0.7840
 7307TIP3   OH243335   4.118   1.764  13.227  0.1265  0.0871 -0.1168
 7307TIP3    H143336   4.149   1.729  13.311  2.5753  0.8741 -0.6431
 7307TIP3    H243337   4.194   1.757  13.169 -1.0720  0.9898 -1.8372
 7308TIP3   OH243338   0.881   4.259  16.456 -0.0392 -0.2852  0.1346
 7308TIP3    H143339   0.912   4.171  16.434 -2.8675 -1.4657  0.5883
 7308TIP3    H243340   0.878   4.260  16.552  1.9682  1.0534  0.1935
 7309TIP3   OH243341   2.249   2.965  15.921 -0.2349  0.1108  0.1778
 7309TIP3    H143342   2.228   2.905  15.993  0.0437  0.3962  0.5062
 7309TIP3    H243343   2.238   3.052  15.959  1.4680  0.2738  0.3625
 7310TIP3   OH243344   4.503   2.739   1.060  0.3526 -0.1479 -0.0124
 7310TIP3    H143345   4.424   2.753   1.112  0.8384 -0.1978  0.7569
 7310TIP3    H243346   4.515   2.820   1.011 -0.1255 -0.1060 -0.0606
 7311TIP3   OH243347   5.852   1.757   2.284 -0.0408 -0.8198 -0.2389
 7311TIP3    H143348   5.936   1.795   2.310 -0.4637 -0.6409  0.8860
 7311TIP3    H243349   5.866   1.663   2.287 -0.1265 -0.8081  0.8234
 7312TIP3   OH243350   0.551   0.013  11.089 -0.1359  0.0525 -0.0895
 7312TIP3    H143351   0.508   0.051  11.012 -1.6676  2.3668  1.8198
 7312TIP3    H243352   0.570  -0.077  11.064 -1.9016  0.3424 -2.6838
 7313TIP3   OH243353   1.343   3.451  14.670 -0.0868  0.2223 -0.0847
 7313TIP3    H143354   1.362   3.358  14.685  2.6810  1.0591  1.8136
 7313TIP3    H243355   1.367   3.466  14.578  1.5497 -0.4460  0.2191
 7314TIP3   OH243356   2.005   4.558  11.666  0.0036 -0.3428  0.0288
 7314TIP3    H143357   1.957   4.640  11.655 -0.0394 -0.6007 -1.9827
 7314TIP3    H243358   2.097   4.582  11.654  0.1002 -0.3642  0.7476
 7315TIP3   OH243359   2.842   5.595   4.339  0.2489 -0.3950  0.1880
 7315TIP3    H143360   2.813   5.685   4.326 -0.6089 -0.6517  0.3336
 7315TIP3    H243361   2.790   5.544   4.277  0.3236 -0.8674  0.5169
 7316TIP3   OH243362   2.891   1.398   4.514  0.3715  0.5349  0.1801
 7316TIP3    H143363   2.966   1.354   4.473  1.3525  0.0770  2.3755
 7316TIP3    H243364   2.918   1.490   4.519  0.9680  0.3069  1.3188
 7317TIP3   OH243365   0.338   4.832  13.122 -0.2821 -0.1512  0.0419
 7317TIP3    H143366   0.271   4.896  13.144 -0.2985 -0.1550  0.0031
 7317TIP3    H243367   0.368   4.858  13.035 -0.5434 -0.4138 -0.1259
 7318TIP3   OH243368   6.713   3.682   3.691  0.3156 -0.2820  0.1075
 7318TIP3    H143369   6.766   3.731   3.754 -1.3278 -0.3635  1.5880
 7318TIP3    H243370   6.760   3.598   3.681  1.4722  0.3700 -0.0769
 7319TIP3   OH243371   1.933   2.910   4.177 -0.0163 -0.2196  0.3508
 7319TIP3    H143372   1.945   2.883   4.086 -0.4785 -1.0599  0.5420
 7319TIP3    H243373   1.950   3.005   4.175 -0.2985 -0.1783 -0.6579
 7320TIP3   OH243374   5.217   3.893   2.515  0.0908 -0.2403  0.6284
 7320TIP3    H143375   5.132   3.930   2.536  0.8014  0.6984  1.9593
 7320TIP3    H243376   5.275   3.968   2.505  0.6124 -0.8306 -1.0710
 7321TIP3   OH243377   6.205   5.203   4.886  0.1078  0.6546 -0.3795
 7321TIP3    H143378   6.161   5.162   4.811  1.9999  0.2068 -1.2658
 7321TIP3    H243379   6.250   5.279   4.849  1.3115  0.2502  0.2271
 7322TIP3   OH243380   2.245   5.051  16.805 -0.0872  0.2148  0.4367
 7322TIP3    H143381   2.194   5.129  16.784  0.9770  0.4534 -1.2541
 7322TIP3    H243382   2.206   5.020  16.887 -0.5938  2.4401  1.0814
 7323TIP3   OH243383   4.906   0.063   5.801 -0.4467 -0.1031  0.3398
 7323TIP3    H143384   4.924   0.155   5.820  3.6493 -0.7460 -0.0008
 7323TIP3    H243385   4.888   0.024   5.887 -0.6110  0.6796  0.6675
 7324TIP3   OH243386   5.987   0.762  12.914 -0.0163  0.2628 -0.2638
 7324TIP3    H143387   6.010   0.855  12.908  0.2595  0.2640  0.7270
 7324TIP3    H243388   6.067   0.715  12.892  0.1498  0.2628  0.3376
 7325TIP3   OH243389   1.761   0.213   2.144 -0.1519  0.1349 -0.0830
 7325TIP3    H143390   1.841   0.225   2.095 -0.3939 -0.2117 -0.5712
 7325TIP3    H243391   1.729   0.301   2.162 -0.2300  0.2599 -0.8306
 7326TIP3   OH243392   4.150   5.325   0.865 -0.2103 -0.3214  0.1341
 7326TIP3    H143393   4.102   5.370   0.796  0.5135 -0.3113 -0.3677
 7326TIP3    H243394   4.117   5.235   0.862 -1.4721  0.0965  0.9697
 7327TIP3   OH243395   5.812   3.300  16.287 -0.0972 -0.9686 -0.2122
 7327TIP3    H143396   5.846   3.312  16.376  0.8523 -1.4209 -0.5028
 7327TIP3    H243397   5.723   3.334  16.290  0.0549 -0.6466  0.8214
 7328TIP3   OH243398   1.243   2.502  11.627 -0.2372  0.5073 -0.5574
 7328TIP3    H143399   1.270   2.447  11.553  0.6621  1.1683 -0.7298
 7328TIP3    H243400   1.233   2.589  11.589 -4.0771  0.0523 -0.8264
 7329TIP3   OH243401   1.984   3.125   2.044  0.0611  0.2380  0.7768
 7329TIP3    H143402   1.980   3.031   2.025  0.2798  0.4000 -0.1107
 7329TIP3    H243403   1.958   3.167   1.962  0.3606  0.9568  1.0447
 7330TIP3   OH243404   3.768   4.215   1.131 -0.6712  0.2809  0.3208
 7330TIP3    H143405   3.674   4.199   1.122 -0.9678  0.6210  2.3514
 7330TIP3    H243406   3.794   4.162   1.207  1.5216 -2.5628 -2.3080
 7331TIP3   OH243407   4.514   2.098   5.326 -0.1030 -0.7724  0.1078
 7331TIP3    H143408   4.585   2.116   5.264 -0.6816  0.4191 -0.2311
 7331TIP3    H243409   4.442   2.067   5.271 -0.1526 -1.0683  0.3415
 7332TIP3   OH243410   6.418   5.518  15.976  0.1263 -0.6530  0.5827
 7332TIP3    H143411   6.453   5.583  16.037 -0.1484  0.7535 -0.7270
 7332TIP3    H243412   6.418   5.436  16.026  0.0276  0.4376  2.4245
 7333TIP3   OH243413   0.002   6.617   4.939 -0.1341 -0.6892  0.4227
 7333TIP3    H143414   0.004   6.697   4.887 -0.4437 -0.7090  0.3765
 7333TIP3    H243415  -0.050   6.640   5.017  1.3305 -0.3182  1.2979
 7334TIP3   OH243416   3.659   1.453   0.244  0.0221 -0.1714 -0.4489
 7334TIP3    H143417   3.704   1.369   0.254  0.7855  0.0822 -1.5960
 7334TIP3    H243418   3.704   1.495   0.170  1.5594  2.5005  1.9285
 7335TIP3   OH243419   5.047   3.604  16.175  0.2077 -0.1141  0.5984
 7335TIP3    H143420   5.100   3.649  16.110 -0.0632  0.4866  0.7952
 7335TIP3    H243421   5.081   3.514  16.175  0.4326 -0.0307 -0.1236
 7336TIP3   OH243422   2.522   5.698  14.694  0.3451 -0.1799  0.0331
 7336TIP3    H143423   2.455   5.763  14.717  0.4803  0.0141 -0.1135
 7336TIP3    H243424   2.536   5.711  14.600 -0.5675 -1.3142 -0.2671
 7337TIP3   OH243425   1.905   2.214  13.372 -0.2080  0.0811  0.0391
 7337TIP3    H143426   1.985   2.241  13.327  0.3902 -2.3976 -0.4836
 7337TIP3    H243427   1.925   2.222  13.465  0.9747 -1.3388 -0.0761
 7338TIP3   OH243428   5.738   3.406   5.625 -0.2986 -0.6150  0.1721
 7338TIP3    H143429   5.829   3.377   5.631  0.1851  0.5618 -1.1762
 7338TIP3    H243430   5.744   3.501   5.624 -1.4756 -0.5466 -0.9237
 7339TIP3   OH243431   5.996   4.328  14.036  0.2510  0.2426 -0.0586
 7339TIP3    H143432   5.914   4.307  14.081 -0.2163  3.5958  0.7786
 7339TIP3    H243433   5.969   4.379  13.959  1.4962  0.9260 -0.0593
 7340TIP3   OH243434   5.990   0.506   3.313 -0.4530 -0.3264  0.5218
 7340TIP3    H143435   6.032   0.526   3.397 -3.2915 -0.5330  2.0595
 7340TIP3    H243436   6.014   0.415   3.295  2.8303  0.7210 -0.5544
 7341TIP3   OH243437   6.411   0.970  13.741 -0.2822 -0.1996 -0.4059
 7341TIP3    H143438   6.384   1.057  13.713 -0.2502  0.3002  1.0581
 7341TIP3    H243439   6.337   0.913  13.720  0.4610 -0.2084 -3.1944
 7342TIP3   OH243440   0.821   4.121  15.888  0.3910 -0.4036  0.0679
 7342TIP3    H143441   0.875   4.045  15.866 -0.4207 -0.9432 -0.1182
 7342TIP3    H243442   0.748   4.117  15.826 -0.2759 -0.1464  0.8177
 7343TIP3   OH243443   5.595   0.293  10.666 -0.1022  0.2314  0.7247
 7343TIP3    H143444   5.515   0.324  10.623  0.2808  1.2531  0.7340
 7343TIP3    H243445   5.651   0.370  10.670  0.5628 -0.2843  1.4630
 7344TIP3   OH243446   2.860   5.650  16.019 -0.1158  0.4230  0.2397
 7344TIP3    H143447   2.785   5.614  15.972 -0.9849  0.8835  1.2706
 7344TIP3    H243448   2.932   5.590  15.998 -0.5229  0.5122 -1.5306
 7345TIP3   OH243449   2.373   2.351   2.689  0.0934 -0.5487 -0.1228
 7345TIP3    H143450   2.329   2.360   2.604 -0.9483  0.7821  0.5464
 7345TIP3    H243451   2.362   2.258   2.711  0.6423 -0.9789 -1.5733
 7346TIP3   OH243452   1.842   3.921   5.339 -0.1468 -0.7286  0.0505
 7346TIP3    H143453   1.909   3.853   5.342  0.4000 -0.1827  0.4463
 7346TIP3    H243454   1.808   3.926   5.428 -0.8588 -1.1361 -0.1922
 7347TIP3   OH243455   4.084   0.119  14.768  0.1328  0.0370  0.3382
 7347TIP3    H143456   4.037   0.145  14.847  1.2267  0.3313  0.9144
 7347TIP3    H243457   4.171   0.094  14.800  0.7340  0.6215 -0.8304
 7348TIP3   OH243458   0.326   0.437   1.477  0.5860 -0.1400 -0.0712
 7348TIP3    H143459   0.358   0.518   1.438  3.2599 -0.5552  1.1667
 7348TIP3    H243460   0.405   0.388   1.500 -0.9503 -1.8546  1.7889
 7349TIP3   OH243461   4.328   1.613  16.967 -0.5922  0.8162  0.3472
 7349TIP3    H143462   4.322   1.550  16.895 -0.8895 -0.2529  1.2977
 7349TIP3    H243463   4.319   1.699  16.925  0.5520  0.2783 -1.0620
 7350TIP3   OH243464   2.108   1.774   0.094 -0.2395 -0.1912  0.3044
 7350TIP3    H143465   2.159   1.734   0.024  0.4037 -0.7304  1.0782
 7350TIP3    H243466   2.124   1.868   0.084 -0.5261 -0.2236 -0.5547
 7351TIP3   OH243467   3.268   0.842  15.097  0.0213  1.1129 -0.0323
 7351TIP3    H143468   3.268   0.810  15.187 -1.1540  1.6510  0.1656
 7351TIP3    H243469   3.191   0.800  15.057  1.5894 -0.6113 -1.3213
 7352TIP3   OH243470   3.251   3.604   3.462  0.2581 -0.2059  0.1462
 7352TIP3    H143471   3.275   3.655   3.540 -1.2694  1.6665 -0.5742
 7352TIP3    H243472   3.290   3.652   3.389  1.7925 -2.0267 -0.2882
 7353TIP3   OH243473   5.134   2.577  13.173 -0.4849 -0.5607 -0.4638
 7353TIP3    H143474   5.082   2.633  13.116  0.5522  1.4043  0.4415
 7353TIP3    H243475   5.224   2.592  13.146  0.0008  0.1670  1.4541
 7354TIP3   OH243476   2.859   2.134   0.464  0.1334  0.5876 -0.0895
 7354TIP3    H143477   2.773   2.137   0.423  0.0803  0.7458  0.0330
 7354TIP3    H243478   2.847   2.082   0.543 -0.0298  1.3142  0.3580
 7355TIP3   OH243479   3.000   6.709  14.787 -0.1217 -0.0017  0.3541
 7355TIP3    H143480   2.994   6.647  14.860 -1.1507  0.5044  0.7119
 7355TIP3    H243481   2.966   6.660  14.711 -1.1203  0.1737  0.6769
 7356TIP3   OH243482   1.003   5.217  12.926 -0.0220 -0.4280 -0.1662
 7356TIP3    H143483   0.939   5.146  12.918 -0.9736  0.4800 -0.8328
 7356TIP3    H243484   0.950   5.295  12.941  1.1363 -0.1616  2.6718
 7357TIP3   OH243485   6.356   1.469  15.580  0.0799 -0.3581  0.8912
 7357TIP3    H143486   6.325   1.558  15.598  1.6483  0.9321 -2.4148
 7357TIP3    H243487   6.451   1.475  15.591  0.5579 -0.7354 -2.5761
 7358TIP3   OH243488   0.774   0.617  15.435 -0.0241 -0.4228  0.3084
 7358TIP3    H143489   0.837   0.562  15.482  0.1260  0.0760  0.6963
 7358TIP3    H243490   0.746   0.564  15.360 -0.9890 -1.6038  1.4831
 7359TIP3   OH243491   1.159   1.352   4.364  0.0872 -0.0240  0.3410
 7359TIP3    H143492   1.196   1.311   4.285 -0.2903  0.9295 -0.3474
 7359TIP3    H243493   1.236   1.373   4.417  0.6120  2.1154 -1.1708
 7360TIP3   OH243494   0.379   2.450   1.144 -0.1974  0.0756  0.0027
 7360TIP3    H143495   0.378   2.539   1.107  0.2727 -0.3409 -1.0180
 7360TIP3    H243496   0.441   2.456   1.217 -0.8822  0.8218  0.5299
 7361TIP3   OH243497   0.076   1.057   4.408 -0.3051  0.3983  0.0357
 7361TIP3    H143498   0.112   1.089   4.325 -0.5302  0.4112 -0.0576
 7361TIP3    H243499   0.152   1.043   4.463  0.0185 -1.5344 -0.8488
 7362TIP3   OH243500   0.961   4.134   2.556  0.0972  0.3476  0.9398
 7362TIP3    H143501   1.004   4.049   2.572  1.4352  0.4585 -1.8223
 7362TIP3    H243502   0.900   4.117   2.484  0.2545  1.6941  0.4736
 7363TIP3   OH243503   4.877   5.266   2.231  0.1837  0.3769  0.5321
 7363TIP3    H143504   4.933   5.341   2.248 -1.7597  2.4056 -1.6129
 7363TIP3    H243505   4.789   5.294   2.255 -0.6879 -0.9090 -0.9719
 7364TIP3   OH243506   5.536   3.768  11.756 -0.4520  0.0325  0.3968
 7364TIP3    H143507   5.450   3.788  11.792 -0.3250 -0.5702  1.0520
 7364TIP3    H243508   5.583   3.728  11.829 -0.6755 -2.5940 -0.8645
 7365TIP3   OH243509   6.227   0.849  16.562  0.0369  0.2140  0.0365
 7365TIP3    H143510   6.163   0.864  16.632 -0.2508 -4.0776  0.8087
 7365TIP3    H243511   6.174   0.837  16.483  0.0309 -0.7337  0.1834
 7366TIP3   OH243512   4.467   0.953  14.669  0.6519 -0.5237 -0.3207
 7366TIP3    H143513   4.435   0.874  14.625 -0.1668 -0.8301  0.8065
 7366TIP3    H243514   4.472   0.929  14.761 -0.3097  0.9608  0.1377
 7367TIP3   OH243515   1.023   1.064   1.787 -0.1570 -0.3093  0.9639
 7367TIP3    H143516   0.939   1.034   1.823 -0.8523 -0.7744 -0.9616
 7367TIP3    H243517   1.049   0.994   1.727  0.4725  0.8657 -0.1509
 7368TIP3   OH243518   4.958   6.218   5.671 -0.1931  0.0381  0.2099
 7368TIP3    H143519   4.964   6.283   5.601 -0.4408  1.6785  1.6605
 7368TIP3    H243520   4.912   6.264   5.742  0.2897 -1.4898  1.5360
 7369TIP3   OH243521   0.698   3.093  15.612 -0.2142  0.0667  0.3025
 7369TIP3    H143522   0.663   3.182  15.599 -3.3996 -0.8282  2.1379
 7369TIP3    H243523   0.629   3.036  15.578  1.9248 -1.7579 -1.1210
 7370TIP3   OH243524   3.350   1.071   1.116 -0.0742 -0.2243  0.0929
 7370TIP3    H143525   3.285   1.063   1.185 -0.4950  0.5962 -0.2023
 7370TIP3    H243526   3.322   1.148   1.065 -0.4219 -1.4804 -1.6650
 7371TIP3   OH243527   4.880   2.236  16.166 -0.1097  0.3424  0.4033
 7371TIP3    H143528   4.836   2.212  16.247  0.8557  0.2531  0.9095
 7371TIP3    H243529   4.907   2.327  16.179 -0.7536  0.6177 -0.1735
 7372TIP3   OH243530   1.678   6.430  15.221 -0.5113  0.1193  0.3053
 7372TIP3    H143531   1.733   6.499  15.257 -0.5370  0.4594 -0.3020
 7372TIP3    H243532   1.684   6.441  15.126 -0.9433 -0.3769  0.2144
 7373TIP3   OH243533   0.216   4.678  17.051  0.0177  0.1533 -0.0481
 7373TIP3    H143534   0.229   4.583  17.060  0.4737  0.2034 -0.1432
 7373TIP3    H243535   0.240   4.696  16.960  0.3366  0.4229  0.0879
 7374TIP3   OH243536   6.088   3.597   1.113 -0.1028  0.5967 -0.5946
 7374TIP3    H143537   6.028   3.645   1.056 -0.2622  2.1276  0.8081
 7374TIP3    H243538   6.035   3.573   1.189  0.3944 -0.3816 -0.5534
 7375TIP3   OH243539   4.304   2.553  12.719 -0.2768 -0.4550 -0.7186
 7375TIP3    H143540   4.390   2.574  12.682 -0.8129  0.5561 -1.4184
 7375TIP3    H243541   4.243   2.573  12.648 -1.0694 -1.4020 -0.3029
 7376TIP3   OH243542   6.020   6.019  10.963 -0.2393  0.3642 -0.3386
 7376TIP3    H143543   5.930   6.028  10.934 -0.7463 -0.4852  0.9133
 7376TIP3    H243544   6.028   6.078  11.038  0.1373  0.1938 -0.2375
 7377TIP3   OH243545   5.784   3.818   6.175 -0.0709 -0.1865  0.0490
 7377TIP3    H143546   5.753   3.905   6.150  1.3065  1.0805  2.5268
 7377TIP3    H243547   5.738   3.758   6.116 -2.0620  2.1075 -0.8129
 7378TIP3   OH243548   0.930   1.730   2.434  0.0391 -0.0638 -0.6260
 7378TIP3    H143549   0.946   1.681   2.353 -1.0265 -0.4434 -0.6142
 7378TIP3    H243550   0.855   1.785   2.414  0.2897  0.4517 -0.1507
 7379TIP3   OH243551   5.098   0.162  11.881 -0.0566 -0.2135  0.4009
 7379TIP3    H143552   5.022   0.134  11.830  0.0115 -3.6496  2.0845
 7379TIP3    H243553   5.173   0.124  11.836  0.6916  2.4603 -0.7581
 7380TIP3   OH243554   0.365   1.136  14.575  0.5855  0.2233  0.1236
 7380TIP3    H143555   0.328   1.123  14.662 -1.4294  1.1312 -0.5667
 7380TIP3    H243556   0.419   1.215  14.584  0.4783  0.2502  0.5557
 7381TIP3   OH243557   1.529   2.931   0.919 -0.1801 -0.3791  0.5169
 7381TIP3    H143558   1.602   2.872   0.900  0.2139 -0.0040  0.8354
 7381TIP3    H243559   1.554   2.973   1.001  0.1760  1.2328 -0.4022
 7382TIP3   OH243560   5.842   2.621   3.549  0.2579 -0.3103  0.1342
 7382TIP3    H143561   5.904   2.685   3.584  0.5882 -0.1124 -0.7982
 7382TIP3    H243562   5.895   2.543   3.534  0.1240 -0.3907  0.0822
 7383TIP3   OH243563   5.360   5.666  14.841  0.1274 -0.4691 -0.2026
 7383TIP3    H143564   5.392   5.680  14.930  0.3481 -1.4249 -0.1311
 7383TIP3    H243565   5.265   5.679  14.848  0.3210  1.0158 -0.1489
 7384TIP3   OH243566   1.182   0.482   2.189 -0.3500  0.0857 -0.2843
 7384TIP3    H143567   1.209   0.394   2.215  0.3402  0.3299 -0.1665
 7384TIP3    H243568   1.264   0.526   2.166 -0.5113  1.2557  1.3448
 7385TIP3   OH243569   4.780   6.365  13.569  0.0069  0.8964 -0.0652
 7385TIP3    H143570   4.748   6.406  13.649  0.0267 -1.5009  1.2305
 7385TIP3    H243571   4.700   6.335  13.524 -0.0084  2.3116 -0.9891
 7386TIP3   OH243572   5.386   5.993   4.833  0.6303  0.2486 -0.0485
 7386TIP3    H143573   5.293   6.005   4.853  0.1106 -1.0004 -1.6012
 7386TIP3    H243574   5.401   6.052   4.758  0.9528  0.0442 -0.1415
 7387TIP3   OH243575   4.519   5.206  11.393 -0.1351  0.4491  0.2144
 7387TIP3    H143576   4.477   5.291  11.378 -3.0809 -1.0150 -0.2174
 7387TIP3    H243577   4.565   5.188  11.311 -1.0936  0.7677 -0.4068
 7388TIP3   OH243578   0.903   6.426  12.928  0.0205  0.1962  0.6589
 7388TIP3    H143579   0.860   6.509  12.905  0.2532 -0.2974 -1.7119
 7388TIP3    H243580   0.996   6.443  12.914  0.1503 -0.2184  1.0068
 7389TIP3   OH243581   6.389   1.026   4.943  0.0652  0.1737  0.4858
 7389TIP3    H143582   6.444   1.104   4.939  0.0968  0.0518 -2.0477
 7389TIP3    H243583   6.450   0.953   4.955  0.3950  0.1654 -1.1075
 7390TIP3   OH243584   1.686   0.806  15.111  0.5674 -0.2163 -0.0879
 7390TIP3    H143585   1.599   0.772  15.131  0.8086 -0.4704  0.5169
 7390TIP3    H243586   1.705   0.771  15.024 -0.9856  1.8973 -1.3424
 7391TIP3   OH243587   1.416   6.085   3.403  0.1513 -0.7162 -0.3450
 7391TIP3    H143588   1.423   5.993   3.431 -0.4983 -1.2179 -1.7362
 7391TIP3    H243589   1.466   6.088   3.321  1.6339  0.5957  0.5763
 7392TIP3   OH243590   1.932   5.705   1.405  0.1313  0.0533 -0.0984
 7392TIP3    H143591   1.987   5.736   1.332 -1.1670  1.3800 -0.5614
 7392TIP3    H243592   1.984   5.722   1.483  0.9427  0.0193 -0.6248
 7393TIP3   OH243593   5.073   5.847   4.661 -0.1498  0.3872 -0.4992
 7393TIP3    H143594   5.047   5.826   4.750  2.9655  2.1872  0.9388
 7393TIP3    H243595   5.028   5.930   4.642 -2.0798 -0.7853 -1.2839
 7394TIP3   OH243596   5.336   4.796   3.312  0.8110  0.1472 -0.4425
 7394TIP3    H143597   5.244   4.770   3.319  0.6980  0.4691 -0.7759
 7394TIP3    H243598   5.334   4.881   3.270  1.1750  0.8085  0.8581
 7395TIP3   OH243599   6.399   1.770   0.357 -0.3401  0.6786 -0.2125
 7395TIP3    H143600   6.452   1.849   0.342  0.7160 -0.2813 -1.6641
 7395TIP3    H243601   6.401   1.757   0.451  2.4776  0.3509 -0.2748
 7396TIP3   OH243602   5.108   0.914  11.936  0.0992 -0.6575 -1.0460
 7396TIP3    H143603   5.017   0.913  11.905  0.1352  0.4124 -1.2022
 7396TIP3    H243604   5.141   0.999  11.910  0.1298  0.2899  1.9267
 7397TIP3   OH243605   4.120   2.282  15.147 -0.1414  0.0103  0.1279
 7397TIP3    H143606   4.042   2.230  15.164 -0.0569 -0.3821 -0.6536
 7397TIP3    H243607   4.192   2.229  15.181  0.0368 -0.8188 -1.4683
 7398TIP3   OH243608   2.782   6.375  12.621 -0.0422  0.1048 -0.0887
 7398TIP3    H143609   2.815   6.454  12.664  0.7026 -0.1332 -0.2265
 7398TIP3    H243610   2.855   6.314  12.623 -0.0003  0.0803 -1.7019
 7399TIP3   OH243611   3.074   0.177  12.119 -0.0923  0.4692  0.0718
 7399TIP3    H143612   3.018   0.224  12.180  0.6890  0.3382  0.8925
 7399TIP3    H243613   3.028   0.183  12.035 -1.6912 -0.2537  0.8781
 7400TIP3   OH243614   1.966   0.854   0.401  0.0007  0.3293 -0.5767
 7400TIP3    H143615   1.951   0.878   0.310 -1.6831  0.0173 -0.3930
 7400TIP3    H243616   1.897   0.791   0.421  0.1048  0.7136  1.0384
 7401TIP3   OH243617   6.019   4.522   5.020  0.5261 -0.3389  0.7259
 7401TIP3    H143618   5.951   4.522   4.952  1.1735  1.4521  0.0405
 7401TIP3    H243619   6.101   4.522   4.971  1.0054  0.0611  1.5183
 7402TIP3   OH243620   3.886   1.089   4.158  0.2594  0.3885 -0.0396
 7402TIP3    H143621   3.905   0.995   4.152  1.1381  0.6682 -2.5331
 7402TIP3    H243622   3.818   1.103   4.092 -2.2480  0.9843  2.5901
 7403TIP3   OH243623   6.110   3.836   3.387 -0.4351 -0.3348 -0.2637
 7403TIP3    H143624   6.099   3.922   3.347 -1.4147 -0.8075 -1.0219
 7403TIP3    H243625   6.203   3.832   3.411 -0.0054  0.2711 -1.7635
 7404TIP3   OH243626   6.074   1.497   4.755 -0.5928 -0.0744  0.1135
 7404TIP3    H143627   6.136   1.556   4.798  0.2211 -0.6090 -0.3088
 7404TIP3    H243628   5.995   1.549   4.744  0.1874  1.0189 -0.4410
 7405TIP3   OH243629   5.439   0.264   2.350  0.6295 -0.5456 -0.0651
 7405TIP3    H143630   5.367   0.273   2.288 -0.8038  1.9588  1.8505
 7405TIP3    H243631   5.445   0.169   2.365 -1.6715 -0.8796 -0.9593
 7406TIP3   OH243632   6.335   0.925   4.689 -0.0116 -0.3249 -0.2221
 7406TIP3    H143633   6.370   0.960   4.607 -0.1986  0.3332 -0.0196
 7406TIP3    H243634   6.359   0.989   4.755 -0.3576 -0.5755  0.1516
 7407TIP3   OH243635   3.524   5.917  12.913 -0.1356 -0.0006  0.7616
 7407TIP3    H143636   3.438   5.957  12.902 -0.9336 -2.0345 -0.4369
 7407TIP3    H243637   3.585   5.980  12.873 -1.3985 -0.1114 -1.3563
 7408TIP3   OH243638   6.441   1.067   2.787  0.5949  0.0155 -0.1613
 7408TIP3    H143639   6.507   1.069   2.718  0.2361 -1.3509 -0.5553
 7408TIP3    H243640   6.447   1.153   2.829  0.9725  0.7679 -1.7478
 7409TIP3   OH243641   0.581   4.366   5.714  0.3346  0.2033  0.3748
 7409TIP3    H143642   0.536   4.357   5.630 -0.9730  0.3205  1.0447
 7409TIP3    H243643   0.581   4.278   5.751  2.3263 -0.1567 -0.4424
 7410TIP3   OH243644   0.229   5.359  14.749  0.2236 -0.3736  0.3138
 7410TIP3    H143645   0.152   5.381  14.802 -0.1992 -1.8967  0.3404
 7410TIP3    H243646   0.303   5.393  14.800 -0.2507 -1.0178  1.4603
 7411TIP3   OH243647   3.075   3.556  13.670  0.2443 -0.1505  0.2646
 7411TIP3    H143648   3.006   3.514  13.619  1.6354 -1.0308 -0.9495
 7411TIP3    H243649   3.152   3.554  13.612  1.1800  1.1481  1.4370
 7412TIP3   OH243650   5.848   0.483  16.918 -0.3168  0.0434  0.1868
 7412TIP3    H143651   5.835   0.547  16.988  0.3819 -1.7525  2.0117
 7412TIP3    H243652   5.779   0.418  16.933 -0.6131  0.0102 -1.2544
 7413TIP3   OH243653   5.930   2.078   4.346  0.4837 -0.1214 -0.4082
 7413TIP3    H143654   5.977   2.161   4.352 -0.3959  0.3024  0.9313
 7413TIP3    H243655   5.985   2.022   4.291  1.6572  0.9504 -0.3329
 7414TIP3   OH243656   0.617   1.833   5.557  0.0354 -0.4176  0.5999
 7414TIP3    H143657   0.597   1.925   5.538 -0.0294 -0.1485  1.8734
 7414TIP3    H243658   0.560   1.812   5.631 -1.0527 -1.9398 -0.6372
 7415TIP3   OH243659   4.120   0.938   3.156 -0.1499  0.4265  0.2075
 7415TIP3    H143660   4.214   0.956   3.153 -0.6098  3.1488  0.6782
 7415TIP3    H243661   4.100   0.925   3.248  0.1376 -2.6184 -0.1041
 7416TIP3   OH243662   4.102   3.023  15.781 -0.2996 -0.0708  0.3320
 7416TIP3    H143663   4.088   3.074  15.701  0.2359 -0.2324  0.1318
 7416TIP3    H243664   4.015   3.016  15.820 -0.4683  0.5312  0.0821
 7417TIP3   OH243665   2.960   1.558  15.578  0.1177  0.0887 -0.0393
 7417TIP3    H143666   2.982   1.620  15.648 -1.1296 -0.8671  1.2068
 7417TIP3    H243667   2.979   1.606  15.498  2.3899  0.9189  0.9288
 7418TIP3   OH243668   3.523   1.106  15.376 -0.3518  0.1817  0.3861
 7418TIP3    H143669   3.599   1.158  15.350  0.9729 -1.0543  1.7252
 7418TIP3    H243670   3.461   1.169  15.411 -0.2044  1.2734 -1.2504
 7419TIP3   OH243671   2.832   4.073  12.716 -0.0876 -0.4682  0.1397
 7419TIP3    H143672   2.895   4.015  12.757  0.2782 -0.5686 -0.5548
 7419TIP3    H243673   2.826   4.149  12.775  1.8865  0.2813 -0.5766
 7420TIP3   OH243674   3.136   1.688  17.096 -0.3960 -0.4935 -0.3595
 7420TIP3    H143675   3.176   1.623  17.155  0.6384 -0.7615 -1.3290
 7420TIP3    H243676   3.202   1.757  17.089 -0.5916 -0.3792 -1.0661
 7421TIP3   OH243677   2.937   6.544  13.975  0.0619  0.2428 -0.2967
 7421TIP3    H143678   2.930   6.453  14.003  0.8298  0.3433  0.2129
 7421TIP3    H243679   2.917   6.595  14.053 -0.4826  0.5147 -0.6095
 7422TIP3   OH243680   5.956   5.067  14.385  0.0044  0.3489  0.3838
 7422TIP3    H143681   5.991   5.087  14.298  2.3926  0.6444  1.3525
 7422TIP3    H243682   5.984   4.977  14.401 -3.2147 -0.8481 -0.4269
 7423TIP3   OH243683   5.318   1.107   6.232  0.0502  0.2409 -0.3839
 7423TIP3    H143684   5.314   1.051   6.154 -0.1961 -0.0150 -0.1892
 7423TIP3    H243685   5.399   1.156   6.222  0.5108 -0.5040 -0.3176
 7424TIP3   OH243686   3.206   5.214   5.040 -0.1151 -0.3847 -0.2104
 7424TIP3    H143687   3.255   5.295   5.031 -0.9355  0.0513 -0.8023
 7424TIP3    H243688   3.222   5.186   5.130 -1.5522  1.5601  0.6824
 7425TIP3   OH243689   0.191   4.646   4.470  0.0974 -0.4719 -0.0069
 7425TIP3    H143690   0.141   4.728   4.470  1.2919  0.2672 -0.0942
 7425TIP3    H243691   0.125   4.578   4.454 -0.8414  0.5027 -0.3593
 7426TIP3   OH243692   0.282   3.195   3.233  0.1291  0.1852 -0.9353
 7426TIP3    H143693   0.282   3.153   3.148 -0.2564  0.0468 -0.8684
 7426TIP3    H243694   0.346   3.266   3.225  1.0833 -0.6723 -0.9150
 7427TIP3   OH243695   5.045   0.811   4.510  0.0672  0.1454 -0.5787
 7427TIP3    H143696   5.012   0.753   4.578 -4.5862  0.8635 -2.0624
 7427TIP3    H243697   5.032   0.899   4.546  2.9665  0.4454 -0.1459
 7428TIP3   OH243698   6.533   4.580  11.776  0.1269  0.6114 -0.6899
 7428TIP3    H143699   6.606   4.620  11.728 -0.7227  0.4552 -2.1526
 7428TIP3    H243700   6.555   4.594  11.868  1.9886  0.5947 -1.0935
 7429TIP3   OH243701   4.562   5.442   4.618 -0.2719  0.1032 -0.1371
 7429TIP3    H143702   4.595   5.360   4.655  1.6114  1.9993  2.5796
 7429TIP3    H243703   4.602   5.447   4.532  1.1836 -0.9148  0.4525
 7430TIP3   OH243704   1.401   2.962  13.789 -0.3017 -0.4344 -0.2614
 7430TIP3    H143705   1.466   3.024  13.821 -0.8472  0.3011 -0.5746
 7430TIP3    H243706   1.407   2.888  13.849 -2.3696  1.5266  2.5260
 7431TIP3   OH243707   1.502   2.882  13.526 -0.7741  0.0004 -0.4380
 7431TIP3    H143708   1.451   2.912  13.601 -0.6933  0.9725 -0.7626
 7431TIP3    H243709   1.486   2.948  13.458 -0.6785 -0.7530 -1.2048
 7432TIP3   OH243710   6.275   4.081   0.516  0.1068  0.0072 -0.6130
 7432TIP3    H143711   6.224   4.159   0.535  0.1115  0.2274 -1.4825
 7432TIP3    H243712   6.240   4.014   0.576  0.9304  0.9832  0.9860
 7433TIP3   OH243713   5.634   6.246   4.727 -0.1848 -0.2948 -0.1312
 7433TIP3    H143714   5.658   6.189   4.800  1.3750 -0.9291 -1.1196
 7433TIP3    H243715   5.704   6.311   4.723 -0.5903  0.1162 -0.6793
 7434TIP3   OH243716   0.191   1.909  12.158  0.0982  0.0069  0.1056
 7434TIP3    H143717   0.286   1.923  12.156 -0.0359  0.8877 -2.1389
 7434TIP3    H243718   0.157   1.987  12.201  0.4637 -0.9548  2.1949
 7435TIP3   OH243719   5.502   3.766  14.332  0.7922 -0.0824  0.8669
 7435TIP3    H143720   5.502   3.807  14.418  1.9930 -1.3025  1.4657
 7435TIP3    H243721   5.591   3.733  14.321  0.7848  0.4109 -1.0232
 7436TIP3   OH243722   1.119   2.531  15.552  0.2732 -0.1239 -0.0073
 7436TIP3    H143723   1.033   2.516  15.591 -1.2244  0.6692 -2.8936
 7436TIP3    H243724   1.119   2.624  15.528  0.8024 -0.7554 -2.6006
 7437TIP3   OH243725   5.567   6.413   3.377 -0.0801 -0.4336 -0.5554
 7437TIP3    H143726   5.608   6.492   3.410  1.4584 -2.6504  3.0373
 7437TIP3    H243727   5.473   6.428   3.390  0.1730  0.8827 -0.1439
 7438TIP3   OH243728   1.750   4.326  14.479  0.2835  0.0787 -0.2259
 7438TIP3    H143729   1.662   4.351  14.508  0.1314  0.4023 -0.9402
 7438TIP3    H243730   1.746   4.231  14.470  0.3811 -0.0428  0.9443
 7439TIP3   OH243731   2.890   1.056  13.600 -0.3291  0.2154  0.5955
 7439TIP3    H143732   2.942   1.136  13.609 -0.1125 -0.0086  1.4731
 7439TIP3    H243733   2.949   0.986  13.628 -0.3589 -0.3129 -0.6253
 7440TIP3   OH243734   0.613   0.804   0.035 -0.1665  1.0460 -0.0092
 7440TIP3    H143735   0.619   0.899   0.039  1.3645  0.8994  2.5830
 7440TIP3    H243736   0.658   0.780  -0.046  2.2591  2.3877  0.8710
 7441TIP3   OH243737   6.048   6.480   0.239  0.1767  0.3579  0.0905
 7441TIP3    H143738   5.960   6.509   0.215  0.7353  2.1204  0.1584
 7441TIP3    H243739   6.098   6.560   0.250  2.2289 -0.6373 -1.5458
 7442TIP3   OH243740   3.141   1.265  14.607 -0.0231 -0.6920 -0.1023
 7442TIP3    H143741   3.237   1.261  14.604 -0.0435 -0.4473 -3.7079
 7442TIP3    H243742   3.120   1.358  14.609 -0.1505 -0.6465 -2.0861
 7443TIP3   OH243743   4.315   6.329   5.723  0.0445 -0.1037  0.7510
 7443TIP3    H143744   4.340   6.352   5.634 -1.2904  1.1873  0.6756
 7443TIP3    H243745   4.236   6.381   5.740  0.7945  0.3859  3.0027
 7444TIP3   OH243746   1.822   3.615  12.669 -0.3553 -0.5973  0.4376
 7444TIP3    H143747   1.807   3.565  12.589  1.1456  2.1158 -1.6665
 7444TIP3    H243748   1.747   3.673  12.676 -0.4461 -0.7745  0.9643
 7445TIP3   OH243749   4.352   4.824   4.836 -0.2510 -0.5475  0.5119
 7445TIP3    H143750   4.411   4.750   4.853  0.7984  0.2210  0.2313
 7445TIP3    H243751   4.381   4.860   4.753 -1.9207 -0.9148 -0.2613
 7446TIP3   OH243752   5.678   2.907  13.319  0.1947  0.4856 -0.0820
 7446TIP3    H143753   5.729   2.859  13.384 -1.2489 -0.2849  0.4877
 7446TIP3    H243754   5.685   2.854  13.239  0.6780  0.6414 -0.1503
 7447TIP3   OH243755   6.494   0.243  17.141  0.0490 -0.3253 -0.5234
 7447TIP3    H143756   6.472   0.211  17.229 -1.6748  2.1510 -0.0206
 7447TIP3    H243757   6.589   0.235  17.136  0.2683  0.4004  1.9381
 7448TIP3   OH243758   6.039   0.901   2.891  0.1447  0.4715 -0.0454
 7448TIP3    H143759   5.972   0.851   2.844  0.8842  0.8592 -1.5468
 7448TIP3    H243760   6.087   0.835   2.942 -0.9876  0.1143  0.5620
 7449TIP3   OH243761   1.783   1.901  16.634  0.4083 -0.3640  0.0665
 7449TIP3    H143762   1.840   1.865  16.566 -0.2972 -0.1251 -0.6674
 7449TIP3    H243763   1.722   1.831  16.654  0.4445 -0.3405  0.2591
 7450TIP3   OH243764   3.370   4.556  15.054  0.0330  0.0872  0.0046
 7450TIP3    H143765   3.444   4.545  14.995  0.9842  1.0053  1.0293
 7450TIP3    H243766   3.367   4.650  15.073  0.8581 -0.4152  2.8478
 7451TIP3   OH243767   4.293   1.225   1.308  0.3445 -0.3362  0.2475
 7451TIP3    H143768   4.218   1.254   1.360 -0.3780  1.0601 -1.5183
 7451TIP3    H243769   4.352   1.185   1.372 -0.4922  1.3708  2.1437
 7452TIP3   OH243770   0.286   4.761   1.705 -0.2195 -0.7263 -0.0985
 7452TIP3    H143771   0.260   4.816   1.631 -0.2133 -0.4815  0.0797
 7452TIP3    H243772   0.316   4.679   1.666  0.8626 -0.1766 -0.4388
 7453TIP3   OH243773   5.311   5.666   0.450 -0.3337 -0.1618 -0.1900
 7453TIP3    H143774   5.267   5.742   0.411  0.3524 -0.0320 -0.7102
 7453TIP3    H243775   5.254   5.641   0.523 -0.2929  1.1985  0.3370
 7454TIP3   OH243776   6.108   4.339  13.719 -0.1384 -0.1613 -0.4827
 7454TIP3    H143777   6.097   4.244  13.725  0.2901 -0.2417 -0.8974
 7454TIP3    H243778   6.023   4.372  13.691  0.0061 -0.5292 -1.3663
 7455TIP3   OH243779   1.583   4.044   2.246 -0.2014  0.0250 -0.4230
 7455TIP3    H143780   1.660   4.055   2.303 -0.1126 -2.1076 -0.0788
 7455TIP3    H243781   1.509   4.070   2.301  0.2203  1.8796 -0.6855
 7456TIP3   OH243782   6.643   4.236  17.047  0.0650 -0.5736 -0.6424
 7456TIP3    H143783   6.659   4.144  17.068 -1.2375 -0.5295  0.5728
 7456TIP3    H243784   6.683   4.285  17.119  0.5607 -0.1799 -1.1715
 7457TIP3   OH243785   2.434   1.178   3.304  0.5072  0.0647 -0.4535
 7457TIP3    H143786   2.432   1.094   3.257 -1.3887 -0.3471  0.3156
 7457TIP3    H243787   2.489   1.161   3.381  0.4388 -0.3700 -0.4996
 7458TIP3   OH243788   0.286   2.624   4.031  0.0822 -0.0069  0.4363
 7458TIP3    H143789   0.199   2.634   4.070  0.1146  5.0585 -0.5346
 7458TIP3    H243790   0.271   2.628   3.937  1.4884  2.8368  0.2886
 7459TIP3   OH243791   6.277   5.933   3.353 -0.0247  0.3664 -0.2135
 7459TIP3    H143792   6.185   5.958   3.359  0.2343  1.1381  0.8165
 7459TIP3    H243793   6.284   5.853   3.406 -0.1431  0.2039 -0.4453
 7460TIP3   OH243794   5.784   4.452  13.869 -0.7578  0.0341 -0.3240
 7460TIP3    H143795   5.748   4.508  13.938 -0.0168 -1.0960  1.0103
 7460TIP3    H243796   5.748   4.365  13.887 -0.8036 -0.2072 -1.5565
 7461TIP3   OH243797   6.297   1.321   5.743 -0.8250  0.3368 -0.4847
 7461TIP3    H143798   6.330   1.352   5.827 -2.7693 -0.5912  0.6401
 7461TIP3    H243799   6.285   1.226   5.755  0.8823 -0.1816 -2.4858
 7462TIP3   OH243800   4.416   5.525  15.336 -1.2119 -0.0087 -0.0963
 7462TIP3    H143801   4.379   5.579  15.267 -1.6956  0.6912  0.7094
 7462TIP3    H243802   4.397   5.572  15.417 -0.2658 -0.6025  0.4854
 7463TIP3   OH243803   2.107   5.719   3.871  0.2071  0.0424 -0.1676
 7463TIP3    H143804   2.127   5.734   3.778  0.1334  1.2097 -0.0070
 7463TIP3    H243805   2.043   5.649   3.871 -0.3846  0.5704 -1.0502
 7464TIP3   OH243806   5.343   5.135  11.883 -0.3461  0.1451  0.1668
 7464TIP3    H143807   5.395   5.211  11.909 -1.2496  0.6656  0.4644
 7464TIP3    H243808   5.326   5.088  11.965  1.8767 -1.4597 -0.2484
 7465TIP3   OH243809   4.279   2.400   3.248 -0.0186 -0.0709 -0.2504
 7465TIP3    H143810   4.284   2.481   3.299 -0.0431 -0.2702  0.0728
 7465TIP3    H243811   4.369   2.367   3.248 -0.1929 -0.5566  0.4637
 7466TIP3   OH243812   6.384   1.513  10.874  0.4246 -0.2610  0.2401
 7466TIP3    H143813   6.440   1.591  10.866 -0.9251  0.6073 -1.0363
 7466TIP3    H243814   6.330   1.530  10.951  0.4030 -0.0873  0.1882
 7467TIP3   OH243815   4.768   3.730  12.833  0.0768 -0.0419 -0.3337
 7467TIP3    H143816   4.803   3.717  12.921 -1.5835  0.5113  0.4423
 7467TIP3    H243817   4.800   3.816  12.806  1.9388 -0.9051 -0.9605
 7468TIP3   OH243818   2.993   1.123  16.560  0.7990  0.0247  0.2054
 7468TIP3    H143819   2.899   1.106  16.555  0.7816 -0.2493  1.3855
 7468TIP3    H243820   3.007   1.152  16.650  1.2244  3.8118 -0.9790
 7469TIP3   OH243821   2.418   2.391   1.296 -0.0082  0.0572 -0.7485
 7469TIP3    H143822   2.507   2.370   1.267 -0.2935 -0.2981 -1.3831
 7469TIP3    H243823   2.362   2.342   1.236 -0.5987 -2.8915  2.0897
 7470TIP3   OH243824   1.917   1.164  16.672  0.0191 -0.1484 -0.3102
 7470TIP3    H143825   1.822   1.157  16.681  0.0433  2.0879  2.3718
 7470TIP3    H243826   1.950   1.082  16.710 -0.8298 -1.1752 -1.7295
 7471TIP3   OH243827   4.366   2.845  13.441  0.2678  0.1500  0.7360
 7471TIP3    H143828   4.273   2.823  13.440  0.3579 -0.3678 -2.4190
 7471TIP3    H243829   4.370   2.932  13.481 -1.8948  1.3384 -1.5001
 7472TIP3   OH243830   4.237   3.261   1.466  0.0938 -0.3051 -0.3781
 7472TIP3    H143831   4.288   3.304   1.397 -0.9047  0.0664 -0.8943
 7472TIP3    H243832   4.298   3.197   1.504  1.2842  0.8952 -0.2402
 7473TIP3   OH243833   3.590   2.307   2.774 -0.1859 -0.5114  0.3942
 7473TIP3    H143834   3.505   2.298   2.816 -0.4030  0.8756  0.2794
 7473TIP3    H243835   3.639   2.231   2.802 -1.5660 -1.4790  0.2324
 7474TIP3   OH243836   2.956   3.675  12.426  0.0856  0.2869 -0.0588
 7474TIP3    H143837   2.952   3.762  12.464  0.6093  0.5045 -0.4892
 7474TIP3    H243838   2.929   3.687  12.335  1.1312  0.1838 -0.3984
 7475TIP3   OH243839   0.692   2.559   4.279 -0.0722  0.5687  0.4692
 7475TIP3    H143840   0.708   2.506   4.357 -0.4709 -0.3179 -0.0293
 7475TIP3    H243841   0.603   2.535   4.252 -0.1917  1.3812  0.1462
 7476TIP3   OH243842   5.321   4.758   1.357  0.1177 -0.1163  0.1618
 7476TIP3    H143843   5.288   4.689   1.414  0.6674 -0.1118  0.4900
 7476TIP3    H243844   5.246   4.818   1.345  0.3328  0.4998  1.8291
 7477TIP3   OH243845   1.113   4.143  15.986  0.5171 -0.0016 -0.0465
 7477TIP3    H143846   1.018   4.143  15.998  0.4207 -2.7111 -0.4862
 7477TIP3    H243847   1.148   4.150  16.075 -0.1089  0.2721  0.1771
 7478TIP3   OH243848   5.011   4.258  11.637  0.8625 -0.7940 -0.1089
 7478TIP3    H143849   5.099   4.290  11.620  0.5461 -0.5051 -1.1975
 7478TIP3    H243850   4.999   4.186  11.575 -0.0906 -0.0819 -0.7725
 7479TIP3   OH243851   0.482   0.576   2.766  0.4422  0.3007  0.2606
 7479TIP3    H143852   0.508   0.599   2.855 -0.7037  1.6092  0.2826
 7479TIP3    H243853   0.433   0.495   2.776  1.7313 -0.4432  0.6077
 7480TIP3   OH243854   2.149   6.690   5.028  0.4045  0.7297  0.2000
 7480TIP3    H143855   2.057   6.667   5.015  0.6417  0.5542 -1.3152
 7480TIP3    H243856   2.197   6.609   5.011  0.8751  0.9501  0.4473
 7481TIP3   OH243857   6.048   1.405   6.322  0.3198  0.4697  0.2045
 7481TIP3    H143858   6.114   1.405   6.391 -1.3298 -0.6088  1.8397
 7481TIP3    H243859   5.970   1.442   6.363 -0.8425 -0.6512 -0.9314
 7482TIP3   OH243860   1.366   3.818   3.836  0.4303 -0.2946  0.5128
 7482TIP3    H143861   1.354   3.814   3.931  0.7248 -0.9590  0.5280
 7482TIP3    H243862   1.455   3.785   3.822  0.7646  0.7741  0.0910
 7483TIP3   OH243863   4.016   3.934  13.178  0.2550  0.4112 -0.4424
 7483TIP3    H143864   3.922   3.947  13.174  0.1512 -0.0619  0.4189
 7483TIP3    H243865   4.034   3.867  13.112 -0.0434  0.3368 -0.4466
 7484TIP3   OH243866   3.728   0.274  15.801  0.3569 -0.0859  0.1388
 7484TIP3    H143867   3.743   0.180  15.804  0.1912 -0.1151  0.1039
 7484TIP3    H243868   3.654   0.288  15.860 -0.4866 -0.1620 -0.8802
 7485TIP3   OH243869   3.048   4.620  14.556 -0.2024 -0.1284 -0.3234
 7485TIP3    H143870   3.033   4.661  14.641  0.6939 -0.9722  0.2558
 7485TIP3    H243871   3.028   4.527  14.570  1.8846 -0.6249 -0.4972
 7486TIP3   OH243872   2.896   5.993   2.371  0.0844  0.3967 -0.1358
 7486TIP3    H143873   2.902   5.904   2.336 -1.1224 -0.1181  0.9060
 7486TIP3    H243874   2.985   6.026   2.369  0.5943 -0.9697 -0.2208
 7487TIP3   OH243875   5.843   3.778  15.318 -0.1821 -0.1209  0.2983
 7487TIP3    H143876   5.769   3.729  15.282 -1.2656  0.7766  1.2670
 7487TIP3    H243877   5.830   3.867  15.286  0.2325  0.1456  0.8657
 7488TIP3   OH243878   1.851   6.006   6.518 -0.0870 -0.0218  0.1520
 7488TIP3    H143879   1.766   5.981   6.553 -0.2452  0.5436  0.1583
 7488TIP3    H243880   1.847   5.980   6.426  0.8963 -2.9793  0.8650
 7489TIP3   OH243881   6.376   2.939  15.525 -0.3647  0.5721  0.3698
 7489TIP3    H143882   6.370   3.027  15.563  0.9069  0.9360 -0.2346
 7489TIP3    H243883   6.461   2.906  15.555 -0.0521  0.2444 -0.8470
 7490TIP3   OH243884   2.926   5.796   0.700 -0.1995 -0.4947  0.4748
 7490TIP3    H143885   2.878   5.810   0.781 -2.3458 -2.5444 -0.3671
 7490TIP3    H243886   2.904   5.872   0.646  0.5258  0.4347  1.4765
 7491TIP3   OH243887   5.489   2.533   6.065 -0.3455  0.3720  0.1269
 7491TIP3    H143888   5.524   2.610   6.110 -0.1992 -0.1878  0.9811
 7491TIP3    H243889   5.566   2.481   6.044 -0.4467  0.4577 -0.4459
 7492TIP3   OH243890   2.487   5.293   1.980 -0.1798  0.0069 -0.3014
 7492TIP3    H143891   2.405   5.333   2.012 -0.3279 -0.3982 -0.1742
 7492TIP3    H243892   2.536   5.367   1.943  0.2038  0.5741  1.2810
 7493TIP3   OH243893   4.252   1.540  11.733 -0.1448  0.9240  0.4204
 7493TIP3    H143894   4.299   1.598  11.793 -0.2571 -1.0818  2.5413
 7493TIP3    H243895   4.165   1.531  11.772 -0.3323 -0.1465 -0.2164
 7494TIP3   OH243896   6.307   6.322   4.419  0.0027 -0.0782  0.5600
 7494TIP3    H143897   6.397   6.307   4.390 -0.6227  0.0403 -1.5682
 7494TIP3    H243898   6.307   6.410   4.455  0.2619  0.8882 -1.6702
 7495TIP3   OH243899   4.294   5.032   0.444 -0.1368 -0.0247 -0.2827
 7495TIP3    H143900   4.199   5.037   0.458 -0.1869 -0.2280 -0.5584
 7495TIP3    H243901   4.330   5.019   0.532 -0.3463  0.2941 -0.1450
 7496TIP3   OH243902   3.313   2.843  15.661  0.4125 -0.5311  0.6752
 7496TIP3    H143903   3.263   2.869  15.584 -0.5378 -0.9229  1.1484
 7496TIP3    H243904   3.311   2.919  15.719  2.2417  0.2370 -0.2170
 7497TIP3   OH243905   0.212   1.838   1.485 -0.1061 -0.4132 -0.1762
 7497TIP3    H143906   0.138   1.778   1.473 -0.0654 -0.3620 -0.6786
 7497TIP3    H243907   0.219   1.884   1.402  0.8501 -0.8153 -0.3271
 7498TIP3   OH243908   1.640   0.231   3.380  0.8206  0.3418  0.0792
 7498TIP3    H143909   1.649   0.222   3.475 -0.8533  0.8441  0.3142
 7498TIP3    H243910   1.726   0.210   3.345  1.3149 -0.3737  1.6798
 7499TIP3   OH243911   2.055   5.888  14.244 -0.0830 -0.9238 -0.1069
 7499TIP3    H143912   1.989   5.953  14.218 -0.8618 -1.5020  0.4178
 7499TIP3    H243913   2.051   5.821  14.176  0.7104 -0.4478 -0.6388
 7500TIP3   OH243914   2.377   1.802  17.052  0.1601 -0.1367 -0.6036
 7500TIP3    H143915   2.412   1.891  17.059 -0.9157  0.1925  0.8791
 7500TIP3    H243916   2.421   1.765  16.975  0.8909  1.5424 -1.0227
 7501TIP3   OH243917   3.861   2.817  12.259  0.4114 -0.8755  0.9442
 7501TIP3    H143918   3.821   2.787  12.340 -0.0575 -2.6880  0.0647
 7501TIP3    H243919   3.906   2.740  12.224 -0.3955 -0.4461 -1.1236
 7502TIP3   OH243920   6.319   1.180  13.567 -0.0438  0.6140  0.2760
 7502TIP3    H143921   6.398   1.233  13.552  1.3390 -0.8919  1.9876
 7502TIP3    H243922   6.317   1.118  13.495 -0.7045  1.8368 -0.7801
 7503TIP3   OH243923   1.825   5.374  17.161  0.0988 -0.0592  0.3105
 7503TIP3    H143924   1.861   5.304  17.106 -2.4987 -0.7419 -0.5562
 7503TIP3    H243925   1.733   5.351  17.173 -0.3143  2.1667  1.6949
 7504TIP3   OH243926   4.700   6.614  14.229  0.1551 -0.3308 -0.1538
 7504TIP3    H143927   4.622   6.657  14.193  0.4190 -0.1905 -0.5654
 7504TIP3    H243928   4.717   6.660  14.311  0.7185  0.6773 -0.8276
 7505TIP3   OH243929   4.301   3.943   0.330  0.0015 -0.9434 -0.1033
 7505TIP3    H143930   4.295   4.005   0.402  0.1081  0.4470 -1.2826
 7505TIP3    H243931   4.297   3.996   0.251  0.9248 -2.3512 -1.1351
 7506TIP3   OH243932   3.593   0.078   0.725  0.3252  0.0510  0.2851
 7506TIP3    H143933   3.624   0.117   0.643  0.8315  0.1684  0.5320
 7506TIP3    H243934   3.533   0.143   0.761  0.0006 -0.0571 -0.0574
 7507TIP3   OH243935   4.620   2.518  13.933 -0.1127 -1.3570 -0.3766
 7507TIP3    H143936   4.611   2.598  13.881 -0.7284 -2.1168 -1.4795
 7507TIP3    H243937   4.602   2.545  14.022 -0.2798 -0.2569 -0.7347
 7508TIP3   OH243938   4.628   2.125   3.108  0.1411 -0.1805 -0.0370
 7508TIP3    H143939   4.601   2.211   3.143  0.0472 -0.2581  0.0814
 7508TIP3    H243940   4.579   2.062   3.160  0.2575 -0.3093 -0.0839
 7509TIP3   OH243941   1.283   6.703  12.782  0.2146  0.0781 -0.0592
 7509TIP3    H143942   1.246   6.622  12.817  0.4397 -0.4705 -1.0707
 7509TIP3    H243943   1.376   6.684  12.772  0.4609  0.8406  0.7529
 7510TIP3   OH243944   0.297   2.031  11.691 -0.4073  0.0881 -0.0058
 7510TIP3    H143945   0.377   2.068  11.654 -0.1441 -1.0347 -0.6037
 7510TIP3    H243946   0.308   2.037  11.786  1.8244 -2.9423  0.0052
 7511TIP3   OH243947   5.682   1.103   0.646  0.5937  0.0178 -0.2801
 7511TIP3    H143948   5.587   1.098   0.637  0.5638 -0.8634  0.4413
 7511TIP3    H243949   5.712   1.013   0.638  1.4915  0.4304 -1.7010
 7512TIP3   OH243950   4.988   1.022  13.104  0.2593 -0.1174  0.3053
 7512TIP3    H143951   4.991   1.063  13.190 -0.9465  1.6236 -0.4291
 7512TIP3    H243952   4.916   0.959  13.109 -0.4334  0.6667  0.3012
 7513TIP3   OH243953   5.439   6.333   4.385  0.2947  0.7787  0.2785
 7513TIP3    H143954   5.427   6.407   4.445  0.2947  2.1629 -1.4064
 7513TIP3    H243955   5.531   6.337   4.361  1.3496 -2.2958  3.3881
 7514TIP3   OH243956   2.015   0.062  13.819  0.1131  0.6504 -0.1934
 7514TIP3    H143957   2.101   0.043  13.854  0.4208  0.6068 -0.9587
 7514TIP3    H243958   1.954   0.040  13.889  0.6155 -0.9015 -0.2287
 7515TIP3   OH243959   3.386   5.447   5.373  0.0197 -0.6523 -0.3968
 7515TIP3    H143960   3.359   5.538   5.360 -0.5207  0.0148  4.5139
 7515TIP3    H243961   3.471   5.441   5.328 -0.4943  1.9020 -1.8085
 7516TIP3   OH243962   5.534   2.729  13.633  0.0586 -0.4889 -0.5847
 7516TIP3    H143963   5.499   2.732  13.544  2.3953 -0.3456 -1.5246
 7516TIP3    H243964   5.532   2.636  13.657 -1.6325 -0.4038 -0.3247
 7517TIP3   OH243965   6.335   5.368   3.442 -0.2009  0.7206  0.4079
 7517TIP3    H143966   6.327   5.427   3.367  1.3989 -2.0024 -2.0458
 7517TIP3    H243967   6.246   5.337   3.459 -0.3927  0.1850 -1.4404
 7518TIP3   OH243968   4.005   1.216  15.449 -0.1646 -0.0416  0.3297
 7518TIP3    H143969   4.061   1.181  15.518  0.9339 -0.9153 -0.9932
 7518TIP3    H243970   3.972   1.299  15.484  0.2394 -0.5676  1.9629
 7519TIP3   OH243971   5.645   5.966   4.458  0.0649 -0.3024  0.4689
 7519TIP3    H143972   5.627   5.908   4.532 -0.8097 -1.7424 -0.8311
 7519TIP3    H243973   5.564   6.016   4.446  0.4538  0.4495  0.9187
 7520TIP3   OH243974   0.608   2.836  14.283  0.2092  0.5924  0.0853
 7520TIP3    H143975   0.622   2.898  14.212 -1.0022 -0.6068 -1.2147
 7520TIP3    H243976   0.668   2.764  14.264  0.1463  0.4360  0.4777
 7521TIP3   OH243977   0.128   2.463  11.582  0.2191 -0.2760  0.7788
 7521TIP3    H143978   0.137   2.373  11.550 -1.4760  0.2627 -1.2965
 7521TIP3    H243979   0.203   2.510  11.543  0.4824 -0.5351  0.9715
 7522TIP3   OH243980   6.034   3.919  14.730 -0.0914  0.2845  0.0540
 7522TIP3    H143981   6.083   3.841  14.704 -0.6914  0.6045 -2.1142
 7522TIP3    H243982   5.985   3.891  14.807  0.6092 -1.1358  0.0047
 7523TIP3   OH243983   5.194   4.052   6.326  0.1234  0.2187 -0.3029
 7523TIP3    H143984   5.196   4.079   6.234 -0.3216  0.5530 -0.2170
 7523TIP3    H243985   5.184   3.957   6.322 -1.1651  0.3437 -0.6120
 7524TIP3   OH243986   1.392   5.375   4.628  0.1990 -0.1407 -0.3349
 7524TIP3    H143987   1.358   5.383   4.539  0.4705 -1.7140 -0.5783
 7524TIP3    H243988   1.453   5.302   4.625 -0.1077 -0.4834  1.2455
 7525TIP3   OH243989   3.795   1.174  15.258  0.0241 -0.1115  0.1008
 7525TIP3    H143990   3.870   1.158  15.315  2.5052 -0.9029 -3.2658
 7525TIP3    H243991   3.779   1.089  15.216 -1.7479  0.4598 -0.4035
 7526TIP3   OH243992   0.961   1.564  13.252 -0.3254  0.2651 -0.4737
 7526TIP3    H143993   1.033   1.602  13.302  0.7868  0.6098 -2.3052
 7526TIP3    H243994   0.949   1.477  13.289  0.3133  0.6075  0.5578
 7527TIP3   OH243995   3.057   2.583   0.296 -0.3160 -0.3600  0.9426
 7527TIP3    H143996   3.134   2.535   0.265  0.0245  0.7781  0.0173
 7527TIP3    H243997   2.996   2.580   0.222 -0.3470  0.5175  0.9339
 7528TIP3   OH243998   1.955   3.188  14.289  0.2542 -0.6217  0.2623
 7528TIP3    H143999   1.936   3.269  14.241 -0.9918 -1.5376 -0.8554
 7528TIP3    H244000   2.045   3.167  14.266 -0.4097 -1.1905 -1.9507
 7529TIP3   OH244001   4.880   6.438   2.569  0.6771 -0.3996 -0.8077
 7529TIP3    H144002   4.945   6.450   2.500  0.0639  0.2254 -1.2871
 7529TIP3    H244003   4.804   6.486   2.538 -0.0186 -1.1389 -0.2485
 7530TIP3   OH244004   3.650   1.213   0.853 -0.4816 -0.4947  0.7477
 7530TIP3    H144005   3.562   1.175   0.857 -0.4805 -0.5880 -0.0749
 7530TIP3    H244006   3.635   1.307   0.838 -0.4174 -0.8647 -1.8495
 7531TIP3   OH244007   1.190   2.631  16.421 -0.3763 -0.0001  0.2702
 7531TIP3    H144008   1.180   2.613  16.327  0.5033 -0.0617  0.1816
 7531TIP3    H244009   1.138   2.709  16.436  0.5782  0.8063 -0.5557
 7532TIP3   OH244010   4.458   6.785  12.365 -0.0834  0.0692 -0.0815
 7532TIP3    H144011   4.540   6.770  12.318  0.5559  0.5134  0.8855
 7532TIP3    H244012   4.478   6.764  12.456 -1.3446 -0.8507 -0.0114
 7533TIP3   OH244013   0.469   6.514  12.814 -0.0853  0.0350 -0.4449
 7533TIP3    H144014   0.533   6.448  12.842  1.0627  1.1232 -0.4430
 7533TIP3    H244015   0.482   6.587  12.875 -0.2410  0.8789 -1.4132
 7534TIP3   OH244016   1.537   4.589  16.150  0.2802  0.3339  0.3859
 7534TIP3    H144017   1.521   4.566  16.242  2.9186 -0.3694  0.7109
 7534TIP3    H244018   1.475   4.536  16.101  0.7039 -1.3360  1.6176
 7535TIP3   OH244019   1.651   3.518  11.702  0.1088 -1.1098 -0.1528
 7535TIP3    H144020   1.674   3.525  11.610  1.3893  2.1854  0.3354
 7535TIP3    H244021   1.691   3.435  11.731  1.5394 -1.1193 -2.0616
 7536TIP3   OH244022   6.480   2.668  12.597  0.2001  0.3169 -0.3728
 7536TIP3    H144023   6.400   2.702  12.636 -0.6855 -0.9985 -0.9825
 7536TIP3    H244024   6.516   2.741  12.548  0.0933  1.3111  1.0128
 7537TIP3   OH244025   3.903   2.513  16.783  0.3402 -0.0308  0.3031
 7537TIP3    H144026   3.853   2.533  16.862  1.6904 -1.8072  1.6210
 7537TIP3    H244027   3.836   2.491  16.718 -0.7301  0.5885  1.1655
 7538TIP3   OH244028   0.426   2.031   4.426  0.5997 -0.4335 -0.2102
 7538TIP3    H144029   0.386   2.008   4.342 -0.3065  0.9698 -0.1847
 7538TIP3    H244030   0.511   2.068   4.403 -1.6726  4.8006 -0.9955
 7539TIP3   OH244031   1.645   5.881  13.465 -0.6360  0.0942 -0.4325
 7539TIP3    H144032   1.586   5.945  13.426 -1.9424 -0.1870  1.0290
 7539TIP3    H244033   1.628   5.887  13.559  1.4661 -0.2061 -0.0154
 7540TIP3   OH244034   0.287   2.155  15.296  0.5912 -0.3256  0.4263
 7540TIP3    H144035   0.330   2.194  15.372 -0.1619 -2.5256  2.0280
 7540TIP3    H244036   0.281   2.062  15.316 -1.7315 -0.6052 -1.2802
 7541TIP3   OH244037   4.787   4.026  13.303 -1.0169  0.4300 -0.3238
 7541TIP3    H144038   4.801   4.029  13.209  0.0856  1.0169 -0.1568
 7541TIP3    H244039   4.798   3.934  13.327 -0.9454  0.3387 -0.7141
 7542TIP3   OH244040   1.579   1.738  16.056  0.4591 -0.1558  0.2022
 7542TIP3    H144041   1.567   1.643  16.053  2.2977 -0.4190  0.5343
 7542TIP3    H244042   1.510   1.773  15.999 -0.9266 -1.6114  0.9480
 7543TIP3   OH244043   2.014   4.080   0.838  0.1990  0.3180 -0.0667
 7543TIP3    H144044   2.108   4.100   0.847  0.4913 -1.7495  1.9949
 7543TIP3    H244045   1.980   4.087   0.927 -1.0252 -1.6485 -0.3673
 7544TIP3   OH244046   1.778   2.181   0.285  0.4824 -0.0421  0.3155
 7544TIP3    H144047   1.792   2.089   0.303 -1.8861 -0.2161  1.4880
 7544TIP3    H244048   1.706   2.183   0.222  0.7682  0.9822  0.0038
 7545TIP3   OH244049   4.357   4.944   6.240 -0.4060 -0.9265  0.1407
 7545TIP3    H144050   4.349   5.031   6.200  1.1930 -1.3541 -1.1761
 7545TIP3    H244051   4.412   4.959   6.317  2.2419 -1.1874 -1.6361
 7546TIP3   OH244052   0.808   1.194   6.148  0.0523 -0.1997 -0.4605
 7546TIP3    H144053   0.799   1.102   6.174  0.1091 -0.1206 -0.1611
 7546TIP3    H244054   0.834   1.190   6.056  4.9750 -0.5945  0.8256
 7547TIP3   OH244055   3.569   5.618  12.442 -0.1484 -0.5261 -0.0356
 7547TIP3    H144056   3.539   5.530  12.462 -1.7016  0.5285  2.6531
 7547TIP3    H244057   3.567   5.624  12.346 -1.4832 -2.8961 -0.1863
 7548TIP3   OH244058   1.886   2.072   6.773  0.5511  0.2221 -0.1585
 7548TIP3    H144059   1.866   2.140   6.709  0.4690 -0.3256 -0.7163
 7548TIP3    H244060   1.981   2.077   6.786  0.5819  0.2725 -0.3992
 7549TIP3   OH244061   6.245   2.421   1.074 -0.6916 -0.2361  0.2894
 7549TIP3    H144062   6.298   2.443   0.997 -0.1557 -0.5956  0.5508
 7549TIP3    H244063   6.187   2.497   1.085  1.5768  1.3725  1.5653
 7550TIP3   OH244064   2.772   4.611   3.247  0.1641  0.1595 -0.0565
 7550TIP3    H144065   2.839   4.625   3.181 -2.7721  2.3051 -2.7285
 7550TIP3    H244066   2.737   4.523   3.228  0.4386  0.1050 -0.3067
 7551TIP3   OH244067   2.850   3.240  14.071  0.3069  0.5426 -0.1110
 7551TIP3    H144068   2.821   3.302  14.138  0.5046  1.0364 -0.4816
 7551TIP3    H244069   2.837   3.285  13.988 -1.0065 -0.4993 -0.4904
 7552TIP3   OH244070   6.622   3.371  11.392 -0.0790  0.1552  0.0594
 7552TIP3    H144071   6.624   3.348  11.485  1.8039 -0.6640 -0.1504
 7552TIP3    H244072   6.622   3.467  11.390  0.9145  0.1724  0.8970
 7553TIP3   OH244073   5.648   3.383   2.185 -0.4975  0.5648  0.2640
 7553TIP3    H144074   5.657   3.470   2.146 -0.4454  0.1836 -0.5822
 7553TIP3    H244075   5.716   3.379   2.252  0.1625  0.8038 -0.3879
 7554TIP3   OH244076   6.479   0.874  11.497 -0.1122  0.0816  0.3223
 7554TIP3    H144077   6.533   0.819  11.553  0.7728  0.2451 -0.3593
 7554TIP3    H244078   6.506   0.963  11.518 -0.7308  0.2075  0.5982
 7555TIP3   OH244079   5.916   3.260  13.412 -0.0664 -0.2481  0.1250
 7555TIP3    H144080   5.911   3.241  13.318 -0.2146 -0.4404  0.1706
 7555TIP3    H244081   5.991   3.209  13.443  0.6684  0.6903 -0.0934
 7556TIP3   OH244082   2.984   1.801   5.383 -0.5806  0.9686  0.0649
 7556TIP3    H144083   3.023   1.814   5.469  0.9635  0.8891 -0.6136
 7556TIP3    H244084   2.926   1.725   5.394 -2.1932  2.3688  1.5871
 7557TIP3   OH244085   3.405   1.570  11.707 -0.8266  0.0584  0.2833
 7557TIP3    H144086   3.318   1.557  11.669  0.1971  1.7469 -2.8112
 7557TIP3    H244087   3.437   1.481  11.722 -1.0595 -0.7716 -3.5066
 7558TIP3   OH244088   1.403   4.762  14.824  0.4767 -0.4898  0.0901
 7558TIP3    H144089   1.382   4.827  14.756 -1.3130 -1.8509 -0.6827
 7558TIP3    H244090   1.391   4.678  14.782  1.0505 -1.3550  1.6118
 7559TIP3   OH244091   2.334   1.824   0.771 -0.2292 -0.1899  0.0862
 7559TIP3    H144092   2.346   1.917   0.793  0.7011 -0.6934  1.8611
 7559TIP3    H244093   2.359   1.817   0.679 -3.3685  1.8804 -1.0190
 7560TIP3   OH244094   1.708   0.357   1.686  0.4020  0.6908 -0.3220
 7560TIP3    H144095   1.744   0.444   1.671  0.1537  0.7727 -0.4343
 7560TIP3    H244096   1.629   0.372   1.739  0.2266  0.5537 -0.5441
 7561TIP3   OH244097   0.175   6.566   1.863 -0.2232  0.4750  0.4689
 7561TIP3    H144098   0.212   6.486   1.900  3.0711  1.3428 -0.7381
 7561TIP3    H244099   0.086   6.542   1.836 -0.1959 -2.0385  2.4327
 7562TIP3   OH244100   1.921   1.946  14.071  0.5057 -0.2790  0.0698
 7562TIP3    H144101   1.891   1.976  13.985  1.8002 -0.3526 -0.4055
 7562TIP3    H244102   1.840   1.931  14.120 -0.2258  2.2623 -0.2732
 7563TIP3   OH244103   5.239   6.498   2.021  0.4731 -0.5000 -0.1235
 7563TIP3    H144104   5.176   6.438   2.060 -0.0865  0.6218  0.7317
 7563TIP3    H244105   5.188   6.549   1.957  0.9384 -0.9143 -0.8363
 7564TIP3   OH244106   5.967   1.446  11.768  0.1441 -0.2820 -0.1081
 7564TIP3    H144107   5.920   1.421  11.688 -2.1026 -0.2238  1.1399
 7564TIP3    H244108   5.986   1.363  11.811  1.6183 -0.3281 -0.8436
 7565TIP3   OH244109   4.952   5.724  15.802 -0.1195  0.1426 -0.0519
 7565TIP3    H144110   4.995   5.706  15.718 -1.0574 -0.1660 -0.4665
 7565TIP3    H244111   4.860   5.739  15.779 -0.2918  0.5103  0.8688
 7566TIP3   OH244112   6.491   1.885  12.843 -0.4932 -1.1188 -0.4252
 7566TIP3    H144113   6.460   1.851  12.760 -0.8279 -1.3729 -0.1966
 7566TIP3    H244114   6.421   1.943  12.873  1.0895  1.6929 -1.9577
 7567TIP3   OH244115   0.092   5.379   5.544  0.7578  0.1543 -0.3943
 7567TIP3    H144116   0.141   5.397   5.464 -0.5472  1.5668 -0.8982
 7567TIP3    H244117   0.148   5.413   5.614  2.3914 -2.0483 -0.5726
 7568TIP3   OH244118   5.531   4.504   5.788  0.1114 -0.2005 -0.5637
 7568TIP3    H144119   5.626   4.504   5.777  0.1174  0.1532 -0.5282
 7568TIP3    H244120   5.516   4.460   5.872  0.1900 -1.0719 -1.0099
 7569TIP3   OH244121   1.990   3.250   2.804  0.5394  0.5852 -0.4168
 7569TIP3    H144122   1.928   3.236   2.732  2.4220  0.1005 -1.9864
 7569TIP3    H244123   2.023   3.163   2.825  0.4637  0.7988  0.6508
 7570TIP3   OH244124   6.472   3.184  12.534 -0.2740  0.2210  0.4434
 7570TIP3    H144125   6.467   3.150  12.445  0.3837  1.7086 -0.1746
 7570TIP3    H244126   6.563   3.208  12.546 -0.3792  0.1499  1.4855
 7571TIP3   OH244127   2.786   5.726   1.836 -0.1444  0.3729 -0.2633
 7571TIP3    H144128   2.775   5.644   1.789  0.0758 -0.0637  0.4456
 7571TIP3    H244129   2.825   5.702   1.919  2.8807  1.5162 -1.2932
 7572TIP3   OH244130   3.190   5.775   5.636 -0.0719 -0.1353 -0.7334
 7572TIP3    H144131   3.153   5.836   5.571  1.6167  0.1021 -1.5112
 7572TIP3    H244132   3.271   5.745   5.596  0.3475 -0.9966  0.7375
 7573TIP3   OH244133   4.111   0.760   5.392 -0.2409 -0.0150 -0.0665
 7573TIP3    H144134   4.144   0.769   5.481  1.6611  1.0930 -0.8549
 7573TIP3    H244135   4.155   0.829   5.343 -0.4685 -1.2653 -2.0910
 7574TIP3   OH244136   5.545   5.765  13.857  0.0399 -0.1725 -0.1304
 7574TIP3    H144137   5.474   5.753  13.794  0.1976  0.3769 -0.4093
 7574TIP3    H244138   5.503   5.749  13.942 -0.0398 -1.4567 -0.4075
 7575TIP3   OH244139   5.894   4.186   1.703  0.2910 -0.1641 -0.0030
 7575TIP3    H144140   5.923   4.131   1.630  1.6588  1.2078 -0.4998
 7575TIP3    H244141   5.826   4.242   1.666  0.8639  0.4124 -0.1899
 7576TIP3   OH244142   1.662   4.119   5.225  0.2075  0.5615 -0.4627
 7576TIP3    H144143   1.719   4.046   5.250  2.2809  1.4446 -2.4952
 7576TIP3    H244144   1.590   4.078   5.177  0.7529 -0.2534 -0.5970
 7577TIP3   OH244145   3.889   4.993  16.577  0.2420 -0.1675  0.0958
 7577TIP3    H144146   3.917   5.085  16.577  0.2328 -0.1536 -0.8070
 7577TIP3    H244147   3.936   4.953  16.649 -0.0247  0.6328  0.7214
 7578TIP3   OH244148   4.998   5.821   0.287 -0.0223 -0.2960 -0.1096
 7578TIP3    H144149   4.940   5.896   0.301  0.7294  0.1600  0.6100
 7578TIP3    H244150   5.010   5.817   0.192 -0.6500  0.0555 -0.2029
 7579TIP3   OH244151   1.373   5.530   3.323  0.2331  0.0577  0.0271
 7579TIP3    H144152   1.448   5.483   3.285  0.1079 -1.3524  1.4380
 7579TIP3    H244153   1.358   5.486   3.407 -1.7534  0.7671  0.0672
 7580TIP3   OH244154   1.814   6.777   1.291  0.1425 -0.1189  0.0590
 7580TIP3    H144155   1.820   6.757   1.198 -0.1324 -1.3470  0.2925
 7580TIP3    H244156   1.721   6.767   1.311  0.4542 -1.5275  0.8250
 7581TIP3   OH244157   3.374   2.559   2.868 -0.2074  0.2305  0.4656
 7581TIP3    H144158   3.361   2.531   2.777  0.9634 -1.0235  0.6692
 7581TIP3    H244159   3.380   2.655   2.863 -0.1960  0.1732 -0.7788
 7582TIP3   OH244160   4.191   4.807  12.052 -0.0942  0.3800  0.0795
 7582TIP3    H144161   4.112   4.794  11.999  1.0424 -0.7642 -1.3893
 7582TIP3    H244162   4.245   4.730  12.032  1.2163  0.9667  1.3612
 7583TIP3   OH244163   3.977   4.600   0.357  0.0122  0.6949  0.1070
 7583TIP3    H144164   4.026   4.625   0.279 -2.0411  0.1804 -1.3951
 7583TIP3    H244165   4.022   4.522   0.390 -0.9098 -1.0125 -2.4458
 7584TIP3   OH244166   3.210   2.632  13.981  0.0951 -0.3807  0.5959
 7584TIP3    H144167   3.254   2.709  14.018 -0.7869 -0.2738  1.4634
 7584TIP3    H244168   3.117   2.655  13.982 -0.2257 -1.6280  1.3004
 7585TIP3   OH244169   6.100   4.517  15.200 -0.1873 -0.6055 -0.0570
 7585TIP3    H144170   6.038   4.455  15.162 -3.1567  2.0009  0.4111
 7585TIP3    H244171   6.106   4.588  15.137  0.2871  0.4241  1.1167
 7586TIP3   OH244172   1.302   4.459  14.795  0.4420  0.0609 -0.2055
 7586TIP3    H144173   1.330   4.370  14.774 -1.6838 -0.6974  0.0721
 7586TIP3    H244174   1.350   4.481  14.875 -1.7275 -2.2482  1.8204
 7587TIP3   OH244175   4.243   1.393  12.042  0.2571  0.0463  0.2995
 7587TIP3    H144176   4.170   1.422  12.096  0.8287 -0.7854  1.5347
 7587TIP3    H244177   4.204   1.329  11.982 -0.3659  0.9271 -0.2323
 7588TIP3   OH244178   1.884   6.737   2.625 -0.4214 -0.0697  0.3239
 7588TIP3    H144179   1.803   6.729   2.576 -0.2637  1.4730 -0.2025
 7588TIP3    H244180   1.909   6.829   2.617  1.5245 -0.5716  0.2359
 7589TIP3   OH244181   3.230   4.150  16.019  0.3187  0.9238 -0.1894
 7589TIP3    H144182   3.162   4.168  15.955  0.2345  1.4687  0.0470
 7589TIP3    H244183   3.183   4.144  16.102  0.2558 -1.0712 -0.3471
 7590TIP3   OH244184   6.026   3.623   1.811  0.0975  0.4171 -0.2599
 7590TIP3    H144185   6.036   3.529   1.831  0.3433  0.6401  0.7061
 7590TIP3    H244186   6.111   3.649   1.775  1.1423  0.9812  2.4813
 7591TIP3   OH244187   6.317   5.465   5.426  0.0548 -0.8019  1.0727
 7591TIP3    H144188   6.319   5.539   5.487 -0.4659 -1.0291  1.3653
 7591TIP3    H244189   6.294   5.390   5.480 -1.0205 -0.8984  0.4904
 7592TIP3   OH244190   4.245   1.778  15.239 -0.3283 -0.4281 -0.3469
 7592TIP3    H144191   4.165   1.793  15.190 -0.7492 -0.8541  0.2049
 7592TIP3    H244192   4.311   1.757  15.172 -0.0770  2.2575 -1.0166
 7593TIP3   OH244193   3.875   1.542   3.955  0.0525 -0.3278  0.0090
 7593TIP3    H144194   3.873   1.459   3.907  1.4382  0.2355 -1.0214
 7593TIP3    H244195   3.911   1.519   4.041 -1.2014 -1.0971  0.3379
 7594TIP3   OH244196   6.583   0.432   3.610  0.3266 -0.3089  0.1717
 7594TIP3    H144197   6.522   0.365   3.580 -0.4481  0.0973  0.8455
 7594TIP3    H244198   6.528   0.503   3.643  1.1174  1.2891 -1.8471
 7595TIP3   OH244199   4.436   4.800  11.856 -0.0362 -0.3131 -0.0310
 7595TIP3    H144200   4.357   4.846  11.826  0.6778  1.3447  0.5596
 7595TIP3    H244201   4.508   4.860  11.835  0.5681  0.7133  4.3845
 7596TIP3   OH244202   2.855   1.436   3.103 -0.6902 -0.1096 -0.1949
 7596TIP3    H144203   2.797   1.478   3.168  0.3319  1.0953 -0.0472
 7596TIP3    H244204   2.870   1.504   3.037  0.5458 -0.4032 -0.2306
 7597TIP3   OH244205   3.161   6.229   1.762  0.3199 -0.3845 -0.1390
 7597TIP3    H144206   3.087   6.250   1.820 -0.4731  0.6799 -1.5214
 7597TIP3    H244207   3.234   6.212   1.822 -0.4575  0.7981  1.1699
 7598TIP3   OH244208   1.478   0.829  14.742 -0.1911  0.2895  0.2606
 7598TIP3    H144209   1.573   0.818  14.733 -0.2353 -0.3546  0.5759
 7598TIP3    H244210   1.445   0.822  14.652 -0.0964 -1.0729  0.3103
 7599TIP3   OH244211   4.311   6.642  13.298  0.0335 -0.0577  0.1606
 7599TIP3    H144212   4.226   6.673  13.328 -0.1300  0.4550 -0.8120
 7599TIP3    H244213   4.351   6.719  13.256  0.4958 -0.6006 -0.3990
 7600TIP3   OH244214   6.409   2.604   0.152 -0.5196  0.0652 -0.2446
 7600TIP3    H144215   6.388   2.598   0.245  0.6791 -1.6061 -0.0583
 7600TIP3    H244216   6.504   2.592   0.148 -0.8591 -2.4145 -1.8688
 7601TIP3   OH244217   4.563   5.772  14.052  0.5923  0.2279 -0.4351
 7601TIP3    H144218   4.598   5.763  13.963 -1.0645 -0.9420 -0.9884
 7601TIP3    H244219   4.562   5.683  14.086  0.7622  0.6181  0.5950
 7602TIP3   OH244220   6.151   4.029  17.214 -0.6814  1.0180  0.1578
 7602TIP3    H144221   6.231   3.982  17.189 -0.7909  0.5297  0.7383
 7602TIP3    H244222   6.089   3.960  17.238 -1.0792  1.4257  0.2992
 7603TIP3   OH244223   5.039   1.494  14.441 -0.0227 -0.0267  0.4162
 7603TIP3    H144224   4.972   1.561  14.434 -0.2154 -0.3879 -1.3608
 7603TIP3    H244225   5.106   1.520  14.377  0.1177 -1.2789  0.0462
 7604TIP3   OH244226   2.791   2.035  12.212 -0.6484  0.7630 -0.3227
 7604TIP3    H144227   2.809   1.946  12.182 -2.0709  0.4208 -0.1818
 7604TIP3    H244228   2.857   2.088  12.168  0.0352 -0.3239 -0.6296
 7605TIP3   OH244229   0.322   2.524   5.043  0.2664  0.2613 -0.5485
 7605TIP3    H144230   0.305   2.473   4.964  0.9030  1.2811 -1.3554
 7605TIP3    H244231   0.376   2.466   5.098 -0.2488 -0.4806 -0.8137
 7606TIP3   OH244232   6.227   3.547  14.145 -0.5126 -0.2901 -0.0126
 7606TIP3    H144233   6.299   3.540  14.208  0.8144 -1.0701 -1.5995
 7606TIP3    H244234   6.148   3.539  14.199  0.5237  1.3207  1.8566
 7607TIP3   OH244235   2.338   1.592  11.580  0.3039  0.4363  0.4494
 7607TIP3    H144236   2.402   1.526  11.605  0.3421 -0.4993 -2.0056
 7607TIP3    H244237   2.375   1.634  11.502 -2.7127 -1.1948 -1.9925
 7608TIP3   OH244238   2.254   5.777  16.112  0.7360 -0.1041  0.7566
 7608TIP3    H144239   2.328   5.824  16.151 -1.2798  2.3547  1.7405
 7608TIP3    H244240   2.293   5.725  16.041  3.0518  3.0436 -0.3602
 7609TIP3   OH244241   4.560   2.612   2.292  0.2539 -0.4981  0.0770
 7609TIP3    H144242   4.542   2.527   2.332  0.3712  0.5722  2.4966
 7609TIP3    H244243   4.633   2.648   2.342  0.1583  1.0617 -0.8524
 7610TIP3   OH244244   4.763   2.767   4.185  0.3872  0.4489  0.0369
 7610TIP3    H144245   4.684   2.794   4.232  0.0403  0.0899 -0.3367
 7610TIP3    H244246   4.767   2.827   4.110  1.0040  1.0982  0.5763
 7611TIP3   OH244247   2.984   5.046  14.553  0.0929 -0.2724 -0.7613
 7611TIP3    H144248   3.010   5.114  14.491  0.0694 -0.9386 -1.5028
 7611TIP3    H244249   3.055   4.982  14.550 -1.2699 -1.7692 -2.3036
 7612TIP3   OH244250   3.061   2.099   1.470 -0.0040  0.7474 -0.2953
 7612TIP3    H144251   3.018   2.031   1.419  0.8194  0.0590 -0.0827
 7612TIP3    H244252   3.105   2.154   1.404 -1.4460  1.6446 -0.5373
 7613TIP3   OH244253   6.067   2.392   2.832 -0.2572 -0.5931 -0.4916
 7613TIP3    H144254   6.032   2.308   2.804  0.5924 -1.0532 -0.2137
 7613TIP3    H244255   6.048   2.452   2.760 -2.2477 -0.6471 -0.0357
 7614TIP3   OH244256   1.923   4.324   1.110 -0.1888 -1.0650  0.1950
 7614TIP3    H144257   1.990   4.361   1.052  0.5249 -2.4563  0.1144
 7614TIP3    H244258   1.940   4.230   1.110 -2.3629 -1.4881 -0.0962
 7615TIP3   OH244259   5.626   6.722   5.020  0.6242 -0.1949  0.1733
 7615TIP3    H144260   5.595   6.656   4.957  1.0274  0.9549 -1.2482
 7615TIP3    H244261   5.719   6.735   4.998  1.0623 -0.5687  1.7154
 7616TIP3   OH244262   4.348   3.215   2.799  0.2463  0.5635  0.9419
 7616TIP3    H144263   4.412   3.145   2.814  1.0130  1.2884  1.0707
 7616TIP3    H244264   4.355   3.271   2.876  0.4779  1.4334  0.2946
 7617TIP3   OH244265   3.533   4.493  10.678 -0.4295  0.1442  0.1409
 7617TIP3    H144266   3.588   4.557  10.724  0.0145 -0.5137  0.5301
 7617TIP3    H244267   3.594   4.424  10.652 -0.6822  0.4898 -1.4178
 7618TIP3   OH244268   3.886   6.655  16.403 -0.0395  0.2601 -0.6851
 7618TIP3    H144269   3.958   6.716  16.416  0.7934 -1.0694  1.0850
 7618TIP3    H244270   3.897   6.624  16.313  1.8836 -0.2986 -0.2718
 7619TIP3   OH244271   0.290   6.674   0.574 -0.2615  0.4756 -0.0616
 7619TIP3    H144272   0.372   6.630   0.599 -1.1876 -2.1889 -1.4507
 7619TIP3    H244273   0.249   6.698   0.656  1.2739  0.5574  0.6923
 7620TIP3   OH244274   5.189   1.720   4.093 -0.0534 -0.0901 -0.1877
 7620TIP3    H144275   5.221   1.793   4.146  1.9094 -0.6652 -0.5501
 7620TIP3    H244276   5.212   1.642   4.144 -0.3216 -0.5503 -0.7689
 7621TIP3   OH244277   1.349   1.181   5.504 -0.4587 -0.1853  0.0266
 7621TIP3    H144278   1.375   1.239   5.576 -0.5281 -2.5952  2.0501
 7621TIP3    H244279   1.254   1.190   5.499 -0.3577  0.6871 -0.3883
 7622TIP3   OH244280   5.723   6.622  12.257  0.2938  0.3195 -0.3259
 7622TIP3    H144281   5.752   6.598  12.345  2.0262  0.1877 -0.9064
 7622TIP3    H244282   5.638   6.578  12.247 -0.1023  0.6685  1.4131
 7623TIP3   OH244283   0.188   6.031   5.478  0.1501 -0.0695 -0.1777
 7623TIP3    H144284   0.270   5.983   5.492 -0.0247  0.3716  2.6178
 7623TIP3    H244285   0.125   5.986   5.534 -1.0121  0.9056 -0.6884
 7624TIP3   OH244286   5.583   1.101  16.755 -0.0650 -0.2210 -0.8401
 7624TIP3    H144287   5.539   1.058  16.828  0.8438 -1.4734 -1.0285
 7624TIP3    H244288   5.525   1.174  16.732 -1.2282 -0.8739 -0.0214
 7625TIP3   OH244289   1.878   1.916   0.401 -0.2201 -0.6628  0.5654
 7625TIP3    H144290   1.965   1.912   0.441  1.1389  0.5732 -2.0972
 7625TIP3    H244291   1.875   1.840   0.344  0.6879  1.3369 -2.2521
 7626TIP3   OH244292   2.517   1.635  12.581 -0.2652  0.5808 -0.6971
 7626TIP3    H144293   2.427   1.610  12.562 -0.0590 -1.0314  0.3347
 7626TIP3    H244294   2.526   1.621  12.675  1.8579 -1.9235 -1.2227
 7627TIP3   OH244295   0.882   0.946  15.775  0.1148 -0.6050 -0.5530
 7627TIP3    H144296   0.794   0.980  15.759  0.9334  1.5453 -0.7068
 7627TIP3    H244297   0.939   0.996  15.717  1.5282 -1.5071  0.0090
 7628TIP3   OH244298   0.371   6.334   1.869 -0.5730  0.5607 -0.3089
 7628TIP3    H144299   0.445   6.379   1.909 -0.4813  0.6367 -0.5623
 7628TIP3    H244300   0.378   6.244   1.901 -0.5555  0.6433 -0.0805
 7629TIP3   OH244301   2.450   4.757  13.325 -0.2097  0.3597 -0.2393
 7629TIP3    H144302   2.543   4.781  13.326 -0.0267 -0.3138 -0.6785
 7629TIP3    H244303   2.417   4.786  13.410  1.0121 -1.7466  0.9924
 7630TIP3   OH244304   0.520   5.638   4.665  0.3696  0.3844 -0.4530
 7630TIP3    H144305   0.442   5.638   4.721  1.1050 -0.2567  0.5812
 7630TIP3    H244306   0.510   5.716   4.611 -1.2105  0.0642 -0.6359
 7631TIP3   OH244307   2.367   3.508  10.562 -0.3537 -0.3305  0.5978
 7631TIP3    H144308   2.353   3.418  10.532  0.6357 -1.0587  2.2394
 7631TIP3    H244309   2.455   3.530  10.531 -0.2158 -0.2875  1.0141
 7632TIP3   OH244310   1.094   1.377  16.054 -0.0042 -0.2258 -0.7174
 7632TIP3    H144311   1.156   1.385  15.981  0.1825  0.7514 -0.4628
 7632TIP3    H244312   1.107   1.288  16.087  1.0898 -0.1205 -0.8293
 7633TIP3   OH244313   5.771   3.185  15.267  1.0364 -0.4421 -0.0152
 7633TIP3    H144314   5.799   3.095  15.248  2.1653  0.0169 -0.5503
 7633TIP3    H244315   5.842   3.222  15.319 -0.6618 -0.7228  2.6647
 7634TIP3   OH244316   0.355   4.821   6.046  0.4298  0.2175  0.6328
 7634TIP3    H144317   0.437   4.863   6.073  0.9289 -0.5314  0.2917
 7634TIP3    H244318   0.373   4.784   5.960  0.0746 -0.9002  1.0268
 7635TIP3   OH244319   0.686   1.087  17.164 -0.0733 -0.2176  0.2847
 7635TIP3    H144320   0.702   1.086  17.070 -1.9522 -0.3368 -0.0537
 7635TIP3    H244321   0.762   1.131  17.201  0.0621  1.0111 -1.4192
 7636TIP3   OH244322   0.949   4.509  17.128 -0.4238  0.3093  0.5793
 7636TIP3    H144323   1.039   4.541  17.140  0.9909 -3.0645 -0.4534
 7636TIP3    H244324   0.936   4.446  17.199 -0.5198 -2.1027 -1.4953
 7637TIP3   OH244325   1.448   0.484  12.069 -0.0073  0.4665 -0.3385
 7637TIP3    H144326   1.489   0.535  11.999 -0.6708 -0.6177 -1.5317
 7637TIP3    H244327   1.437   0.397  12.032  1.4068 -0.6410  1.8104
 7638TIP3   OH244328   0.785   4.994   4.051 -0.3983 -0.1304  0.6586
 7638TIP3    H144329   0.814   5.074   4.095 -0.2733  0.3651 -0.3199
 7638TIP3    H244330   0.853   4.930   4.071  1.4253  1.0273 -1.6451
 7639TIP3   OH244331   4.062   6.383   3.658 -0.1034  0.2985 -0.1106
 7639TIP3    H144332   4.045   6.293   3.686 -0.9065  0.3400 -0.4425
 7639TIP3    H244333   4.080   6.375   3.564 -0.3439  0.5016 -0.1732
 7640TIP3   OH244334   3.254   0.602   0.181 -1.1347  0.2729  0.0400
 7640TIP3    H144335   3.279   0.692   0.162 -1.0858  0.5713  1.4768
 7640TIP3    H244336   3.333   0.550   0.164 -0.6807  0.7135  0.7883
 7641TIP3   OH244337   3.921   0.153  15.325 -0.6322  0.5762  0.1036
 7641TIP3    H144338   3.976   0.227  15.350 -0.5686  0.5180  0.1353
 7641TIP3    H244339   3.891   0.116  15.408 -1.3916  1.1085  0.0683
 7642TIP3   OH244340   2.916   3.267  13.161  0.8591  0.0033  0.3470
 7642TIP3    H144341   2.901   3.176  13.186 -2.7822  1.1801  2.9084
 7642TIP3    H244342   2.861   3.281  13.084 -0.7255  0.7173  1.5857
 7643TIP3   OH244343   0.494   4.555  11.193  0.2148 -0.2232  0.2456
 7643TIP3    H144344   0.459   4.498  11.261  0.2355 -1.0824 -0.4537
 7643TIP3    H244345   0.447   4.638  11.204 -0.5533 -0.7036  0.6155
 7644TIP3   OH244346   6.441   6.061   3.547  0.2390 -0.3246 -0.0882
 7644TIP3    H144347   6.393   6.011   3.481 -1.8245  0.9509  0.4107
 7644TIP3    H244348   6.527   6.075   3.507 -1.1729  1.0037 -2.8522
 7645TIP3   OH244349   1.592   1.337   0.862 -0.1608 -0.3397  0.3916
 7645TIP3    H144350   1.578   1.261   0.918 -0.2244 -0.7968 -0.2355
 7645TIP3    H244351   1.654   1.392   0.910 -0.4973 -0.5429  1.0735
 7646TIP3   OH244352   0.092   5.342  15.418 -0.1723  0.1412 -0.3791
 7646TIP3    H144353   0.180   5.379  15.412  0.4001 -0.8655  1.5959
 7646TIP3    H244354   0.070   5.320  15.327  1.3782  0.9123 -0.9661
 7647TIP3   OH244355   4.455   0.851   1.982 -0.8989  0.2362 -0.0546
 7647TIP3    H144356   4.367   0.816   1.997 -0.7752 -0.4555 -0.8917
 7647TIP3    H244357   4.506   0.775   1.953  0.2832  0.3756  1.5914
 7648TIP3   OH244358   5.513   6.150  11.844  0.1255  0.2328 -0.3373
 7648TIP3    H144359   5.498   6.187  11.932  0.7763 -0.0304 -0.1172
 7648TIP3    H244360   5.592   6.098  11.853 -0.7640 -1.2113 -0.6567
 7649TIP3   OH244361   4.498   1.557   3.440 -0.3265  0.3214  0.2774
 7649TIP3    H144362   4.538   1.558   3.527 -0.5314 -0.0733  0.3788
 7649TIP3    H244363   4.497   1.464   3.416 -1.3381  0.3108  0.3502
 7650TIP3   OH244364   5.348   6.035  11.446 -0.1608  0.6401 -0.6779
 7650TIP3    H144365   5.358   5.969  11.514  0.7581  0.9650 -0.4963
 7650TIP3    H244366   5.395   6.000  11.370 -0.9995  0.3751 -1.0791
 7651TIP3   OH244367   0.219   2.692  16.275  0.0928 -0.4252 -0.1370
 7651TIP3    H144368   0.214   2.777  16.319  1.9793 -0.3285 -0.0893
 7651TIP3    H244369   0.128   2.661  16.274 -0.1434 -0.0848  3.1446
 7652TIP3   OH244370   5.313   1.849   3.843  0.4623 -0.2938  0.6204
 7652TIP3    H144371   5.368   1.870   3.919  0.5224 -0.5752  0.6557
 7652TIP3    H244372   5.315   1.928   3.789  0.2814 -0.0271  0.9939
 7653TIP3   OH244373   1.669   6.581   5.163  0.1222 -0.3385  0.6191
 7653TIP3    H144374   1.586   6.628   5.174  0.2828 -0.1131  0.8822
 7653TIP3    H244375   1.644   6.489   5.158 -0.2440 -0.1819 -0.4745
 7654TIP3   OH244376   6.338   2.551   1.444  0.3370 -0.4976  0.0305
 7654TIP3    H144377   6.270   2.535   1.509  0.3657  1.6810  0.6288
 7654TIP3    H244378   6.318   2.637   1.408  2.3949 -0.0986 -0.2520
 7655TIP3   OH244379   0.074   1.504   2.360  0.0932  0.1758 -0.1933
 7655TIP3    H144380   0.039   1.575   2.307 -0.6324  0.0519  0.1094
 7655TIP3    H244381   0.098   1.436   2.297  2.9764  1.5831 -0.6796
 7656TIP3   OH244382   4.241   3.167  16.566 -0.3259  0.2717 -0.3970
 7656TIP3    H144383   4.318   3.203  16.522  0.5757 -0.7004  0.3551
 7656TIP3    H244384   4.277   3.109  16.634 -1.7225 -0.5868 -0.3702
 7657TIP3   OH244385   2.445   4.122   5.178  0.1760 -0.6553 -0.7735
 7657TIP3    H144386   2.390   4.169   5.115  1.8541 -0.7100 -2.3489
 7657TIP3    H244387   2.396   4.043   5.199 -2.7844  1.7878  2.0523
 7658TIP3   OH244388   1.760   6.108  12.160 -0.4344 -1.0907 -0.4398
 7658TIP3    H144389   1.707   6.056  12.221  0.8581 -4.2816 -1.9246
 7658TIP3    H244390   1.697   6.145  12.099 -1.3949 -0.7843  0.7110
 7659TIP3   OH244391   4.106   3.494  15.769  0.2005  0.2662 -0.1402
 7659TIP3    H144392   4.031   3.456  15.814  0.2665 -0.3157 -0.5180
 7659TIP3    H244393   4.177   3.430  15.783  0.8480  1.1928  0.9001
 7660TIP3   OH244394   1.887   5.518   1.630 -0.6173  0.1610 -0.7163
 7660TIP3    H144395   1.946   5.446   1.655 -0.9310  0.0291 -0.3489
 7660TIP3    H244396   1.946   5.589   1.604 -0.3021 -0.1776 -0.9391
 7661TIP3   OH244397   0.362   0.442   4.328 -0.3501  0.1197  0.4198
 7661TIP3    H144398   0.333   0.496   4.254 -0.8616 -1.4980 -0.5831
 7661TIP3    H244399   0.395   0.505   4.391 -0.1292  1.5577 -1.0818
 7662TIP3   OH244400   5.331   6.344  13.906  0.0013  0.7201  0.8063
 7662TIP3    H144401   5.405   6.392  13.868  0.2772  0.3179  0.8275
 7662TIP3    H244402   5.258   6.363  13.847  0.6431 -0.6200 -0.4685
 7663TIP3   OH244403   4.498   5.417   1.442 -0.0753  0.0315  0.1617
 7663TIP3    H144404   4.525   5.430   1.533 -0.6062  0.2533  0.2911
 7663TIP3    H244405   4.555   5.347   1.410  2.3499  2.1529 -0.3346
 7664TIP3   OH244406   1.352   5.965  11.981 -0.4436 -0.2149 -0.5110
 7664TIP3    H144407   1.445   5.943  11.990 -0.5501 -0.9062 -1.0626
 7664TIP3    H244408   1.309   5.912  12.048 -0.3629  0.7218  0.3033
 7665TIP3   OH244409   0.814   0.973  14.512 -0.0039 -0.4381  0.0017
 7665TIP3    H144410   0.870   1.047  14.533  2.0542 -1.6227 -1.1497
 7665TIP3    H244411   0.780   0.943  14.596 -0.0564  1.1736  0.5648
 7666TIP3   OH244412   2.620   0.264  14.190 -0.2707  0.3181  0.0330
 7666TIP3    H144413   2.692   0.328  14.194 -0.3886  0.4889 -0.5308
 7666TIP3    H244414   2.658   0.188  14.146 -0.2093  0.0980  0.4584
 7667TIP3   OH244415   2.643   6.513  17.207 -0.8478 -0.3637 -0.7346
 7667TIP3    H144416   2.548   6.517  17.194 -1.0480  1.3026  1.0653
 7667TIP3    H244417   2.654   6.507  17.302  0.8303 -1.8764 -1.0002
 7668TIP3   OH244418   3.128   0.427  14.534  0.7396 -0.2332  0.3155
 7668TIP3    H144419   3.119   0.446  14.441 -1.2692  2.1879  0.9573
 7668TIP3    H244420   3.222   0.420  14.548  1.1314  0.8021 -1.6286
 7669TIP3   OH244421   3.597   4.015   1.678 -0.2671 -0.0896 -0.6179
 7669TIP3    H144422   3.584   3.923   1.656 -0.0732 -0.2897  0.0936
 7669TIP3    H244423   3.623   4.014   1.770  0.7125  0.6015 -0.8805
 7670TIP3   OH244424   5.676   2.374  16.229  0.1773 -0.8135  0.2982
 7670TIP3    H144425   5.648   2.460  16.260 -1.2318 -1.6865  1.5367
 7670TIP3    H244426   5.747   2.349  16.288  1.1599 -0.1561 -0.5839
 7671TIP3   OH244427   3.813   3.236  15.254 -0.0634  0.7796  0.1508
 7671TIP3    H144428   3.732   3.241  15.303  0.5717  0.5993  1.2272
 7671TIP3    H244429   3.881   3.259  15.317  0.7316  0.7982 -0.7027
 7672TIP3   OH244430   2.362   0.445   6.162 -0.1933  0.7062 -0.1788
 7672TIP3    H144431   2.399   0.360   6.141  0.2954  0.9223 -0.1803
 7672TIP3    H244432   2.372   0.497   6.082  0.5503  1.1334  0.1919
 7673TIP3   OH244433   3.585   0.837  13.665  0.5200 -0.2372 -0.3146
 7673TIP3    H144434   3.508   0.806  13.618 -1.7973  0.6403  2.7634
 7673TIP3    H244435   3.618   0.759  13.710  1.5264 -0.6296 -1.6925
 7674TIP3   OH244436   4.360   0.224  12.664  0.0093  0.5851  0.1861
 7674TIP3    H144437   4.436   0.231  12.607  1.4318  0.8635  2.0586
 7674TIP3    H244438   4.289   0.265  12.615 -0.2090 -3.8734 -3.6462
 7675TIP3   OH244439   1.975   5.652   0.307  0.3475 -0.5320  0.4475
 7675TIP3    H144440   2.024   5.700   0.239  1.5603  0.2873  1.8631
 7675TIP3    H244441   2.030   5.576   0.325  2.1831  1.4210  3.4696
 7676TIP3   OH244442   2.527   3.756  10.981 -0.1609 -0.0340  0.3905
 7676TIP3    H144443   2.589   3.788  11.046  0.4751 -0.4029 -0.0185
 7676TIP3    H244444   2.558   3.793  10.898 -0.9877  0.4698  0.2960
 7677TIP3   OH244445   0.940   3.690  16.483 -0.6880  0.4457 -0.0654
 7677TIP3    H144446   1.019   3.673  16.432 -0.8427 -1.1228  0.2002
 7677TIP3    H244447   0.872   3.638  16.440 -1.4483  1.3129  0.0682
 7678TIP3   OH244448   4.615   3.914  12.102  0.1654 -0.2063  0.2182
 7678TIP3    H144449   4.678   3.868  12.158 -1.3553 -2.0487  0.4695
 7678TIP3    H244450   4.666   3.942  12.026  1.2633 -1.7861  0.3500
 7679TIP3   OH244451   3.003   3.264  12.576 -0.0363 -0.4832 -0.1547
 7679TIP3    H144452   2.935   3.226  12.631  0.0937  0.2950  0.5614
 7679TIP3    H244453   3.063   3.192  12.559  0.6774 -0.4170  1.9289
 7680TIP3   OH244454   3.816   4.834   0.368  0.1924 -0.0897  0.1580
 7680TIP3    H144455   3.840   4.816   0.277 -0.6193 -1.3793  0.1825
 7680TIP3    H244456   3.755   4.764   0.391 -2.1477  2.0271  0.6710
 7681TIP3   OH244457   4.511   3.022   3.672 -0.5034 -0.4806  0.1460
 7681TIP3    H144458   4.589   2.976   3.639  0.0508 -0.5185  1.5017
 7681TIP3    H244459   4.474   2.962   3.736 -1.5945 -0.4047 -0.4041
 7682TIP3   OH244460   3.926   0.065  16.941 -0.0266  0.2254 -0.1303
 7682TIP3    H144461   4.014   0.093  16.969 -0.0251 -2.0286  2.3406
 7682TIP3    H244462   3.867   0.125  16.985  0.1916  0.3074  0.0547
 7683TIP3   OH244463   5.550   1.569  13.494 -0.4656 -0.2111  0.3552
 7683TIP3    H144464   5.516   1.503  13.434  1.1923 -0.0375 -0.8069
 7683TIP3    H244465   5.641   1.582  13.467 -0.4942  1.8990  1.1368
 7684TIP3   OH244466   3.953   5.939  12.025 -0.1509 -0.0573 -0.1190
 7684TIP3    H144467   4.048   5.954  12.025 -0.0653 -0.6341 -0.9797
 7684TIP3    H244468   3.920   5.996  11.956 -0.4891  0.4462  0.4477
 7685TIP3   OH244469   0.803   3.351   3.335 -0.0155  0.4624  0.0237
 7685TIP3    H144470   0.846   3.368   3.251 -0.9609 -1.3169 -0.8547
 7685TIP3    H244471   0.718   3.396   3.328 -0.8663 -1.2100 -0.7367
 7686TIP3   OH244472   2.880   3.714   4.662  0.3545 -0.4945  0.0414
 7686TIP3    H144473   2.950   3.780   4.668 -0.2076  0.3712 -2.3758
 7686TIP3    H244474   2.901   3.666   4.582 -1.7297 -0.3201 -0.6181
 7687TIP3   OH244475   2.149   5.569   1.218 -0.3534  0.2942 -0.0419
 7687TIP3    H144476   2.130   5.515   1.141  0.8170  0.3787 -0.4053
 7687TIP3    H244477   2.150   5.659   1.186  0.8334  0.2783 -0.0842
 7688TIP3   OH244478   3.687   0.798   5.874 -0.0015  0.0212  0.3484
 7688TIP3    H144479   3.722   0.810   5.786  0.4904 -0.3030  0.4975
 7688TIP3    H244480   3.623   0.728   5.866  1.3184 -1.2274  0.5797
 7689TIP3   OH244481   1.012   1.095   4.730  0.2633  0.1443 -0.3781
 7689TIP3    H144482   0.967   1.063   4.808  0.1639  1.8424  0.2625
 7689TIP3    H244483   1.103   1.070   4.742  0.1756  0.0577  0.0900
 7690TIP3   OH244484   2.463   1.912  12.871  0.2751  0.3344  0.2379
 7690TIP3    H144485   2.404   1.889  12.799 -0.4838  1.6496  0.4209
 7690TIP3    H244486   2.551   1.903  12.834  0.0062 -2.4231  0.1980
 7691TIP3   OH244487   4.357   4.752   0.191  0.2788 -0.7318  0.1145
 7691TIP3    H144488   4.314   4.717   0.112  2.4841 -1.6465 -0.7228
 7691TIP3    H244489   4.382   4.841   0.168 -0.2843 -0.5372  0.2547
 7692TIP3   OH244490   4.327   5.804   6.617  0.3437  0.0906  0.0735
 7692TIP3    H144491   4.391   5.739   6.645  0.5042  0.7298  1.2170
 7692TIP3    H244492   4.242   5.766   6.641  0.2919 -0.6670 -1.2634
 7693TIP3   OH244493   3.832   4.007   0.783  0.0590  0.2676  0.0155
 7693TIP3    H144494   3.858   3.971   0.868 -1.7508 -2.9318 -0.6924
 7693TIP3    H244495   3.736   4.000   0.783 -0.1144  2.2954 -1.4348
 7694TIP3   OH244496   6.314   6.110  13.288  0.0375 -0.7037  0.0181
 7694TIP3    H144497   6.387   6.073  13.237 -0.6410 -1.2012 -0.6027
 7694TIP3    H244498   6.356   6.172  13.348  1.0096 -1.2387 -0.0964
 7695TIP3   OH244499   0.770   1.015  13.910  0.7823 -0.1526  0.3577
 7695TIP3    H144500   0.808   1.019  13.998  0.2611 -3.7955  0.7981
 7695TIP3    H244501   0.677   1.001  13.925  0.6620 -0.5537 -0.7768
 7696TIP3   OH244502   1.016   3.198  15.970 -0.3523 -0.1044 -0.4713
 7696TIP3    H144503   1.082   3.204  15.901  0.6513 -0.3301  0.4534
 7696TIP3    H244504   0.989   3.288  15.985  0.6956  0.1344  0.0393
 7697TIP3   OH244505   1.849   1.653  14.262  0.5285 -0.1795  0.5102
 7697TIP3    H144506   1.806   1.709  14.197 -2.1930 -2.3326  0.3442
 7697TIP3    H244507   1.900   1.591  14.210 -1.2381 -1.5726  0.3586
 7698TIP3   OH244508   0.740   6.731  12.399 -0.1111 -0.8697  0.1872
 7698TIP3    H144509   0.735   6.647  12.445 -0.4374 -0.5979  0.6600
 7698TIP3    H244510   0.659   6.736  12.349  0.0581 -0.9841 -0.0966
 7699TIP3   OH244511   3.193   0.850  11.476  0.3129  0.3474 -0.3589
 7699TIP3    H144512   3.122   0.881  11.533  1.1364  1.3564  0.1184
 7699TIP3    H244513   3.171   0.886  11.390  0.5178  1.0874 -0.1037
 7700TIP3   OH244514   6.040   1.749  16.526  0.5463 -0.3259  0.4996
 7700TIP3    H144515   6.084   1.664  16.531  0.0876 -0.5093  1.4688
 7700TIP3    H244516   6.038   1.781  16.616 -2.3697 -0.8820  0.6967
 7701TIP3   OH244517   3.366   1.252  15.134  0.0242  0.7969  0.7092
 7701TIP3    H144518   3.395   1.160  15.133  0.4363  0.9248  0.5181
 7701TIP3    H244519   3.428   1.297  15.076 -0.5105  1.1004  0.3701
 7702TIP3   OH244520   1.283   1.752   5.849  0.3380 -0.1161 -0.6656
 7702TIP3    H144521   1.251   1.711   5.769 -0.1759  0.9919 -1.0374
 7702TIP3    H244522   1.235   1.835   5.854  1.1964  0.3348  0.1848
 7703TIP3   OH244523   2.030   3.201   0.954  0.2750 -0.0508  0.0888
 7703TIP3    H144524   1.997   3.213   0.865 -1.9482 -2.3560  0.5333
 7703TIP3    H244525   2.075   3.283   0.974  0.5419  0.6356 -3.0229
 7704TIP3   OH244526   4.710   1.016  10.422  0.6139  0.2281  0.1378
 7704TIP3    H144527   4.690   1.095  10.473  0.1754  0.2274 -0.0311
 7704TIP3    H244528   4.765   1.048  10.350  0.1847  0.4316 -0.1026
 7705TIP3   OH244529   2.165   1.648   0.881 -0.5589  0.4285 -0.3545
 7705TIP3    H144530   2.154   1.725   0.937 -0.1248  0.3341 -0.1462
 7705TIP3    H244531   2.253   1.657   0.844 -0.2994 -0.2631  0.1031
 7706TIP3   OH244532   3.198   5.909  11.503  0.1395 -0.1667  0.6815
 7706TIP3    H144533   3.196   5.979  11.569  0.4515 -0.1349  0.6551
 7706TIP3    H244534   3.234   5.834  11.549  0.3911 -0.1341  0.5349
 7707TIP3   OH244535   6.264   4.124  13.988  0.5455 -0.0589  0.4346
 7707TIP3    H144536   6.278   4.035  14.022 -3.0103 -0.8216  0.1193
 7707TIP3    H244537   6.262   4.113  13.893 -0.7372  0.1697  0.4156
 7708TIP3   OH244538   3.533   2.091  11.478  0.2665 -0.1037  0.1922
 7708TIP3    H144539   3.531   1.995  11.475  1.2647 -0.1549  1.0671
 7708TIP3    H244540   3.609   2.112  11.532 -0.4804  1.1709  0.7726
 7709TIP3   OH244541   1.359   3.231  12.721  0.1646  0.1187  0.7749
 7709TIP3    H144542   1.446   3.196  12.739  0.4838 -0.4739 -1.8103
 7709TIP3    H244543   1.299   3.157  12.735  0.5362 -0.6869 -1.6465
 7710TIP3   OH244544   2.477   2.125  15.491  0.0251  0.3808 -0.2134
 7710TIP3    H144545   2.527   2.044  15.491  0.2036  0.4796 -2.1299
 7710TIP3    H244546   2.392   2.101  15.527 -0.0479 -0.7435 -1.1081
 7711TIP3   OH244547   2.543   1.133  14.117  0.3849  0.5000  0.6252
 7711TIP3    H144548   2.492   1.203  14.157 -1.4010 -0.6027  0.3512
 7711TIP3    H244549   2.484   1.057  14.118  1.9176 -0.7242  0.0098
 7712TIP3   OH244550   4.524   0.511  14.832  0.8196 -0.2160 -0.2180
 7712TIP3    H144551   4.478   0.481  14.754 -1.5024  0.7100  0.7683
 7712TIP3    H244552   4.616   0.512  14.806  0.1381 -0.3796 -2.7931
 7713TIP3   OH244553   1.113   3.078   5.714 -0.5128 -1.2137 -0.1667
 7713TIP3    H144554   1.133   3.153   5.658  0.6797 -1.8938 -0.6783
 7713TIP3    H244555   1.143   3.105   5.801  0.2273 -1.2153 -0.4155
 7714TIP3   OH244556   2.560   6.355   4.897  0.7443  0.4149 -0.6998
 7714TIP3    H144557   2.623   6.355   4.825  0.0113  0.6401 -1.3493
 7714TIP3    H244558   2.529   6.264   4.901  0.5075  0.4863 -0.9133
 7715TIP3   OH244559   3.765   3.593   0.618 -0.2560 -0.1241 -0.3607
 7715TIP3    H144560   3.761   3.681   0.582  1.7291 -0.6312 -1.9217
 7715TIP3    H244561   3.707   3.541   0.562  0.3338 -0.2548 -0.8590
 7716TIP3   OH244562   0.462   5.294  16.598  0.0640  0.0905 -0.4681
 7716TIP3    H144563   0.553   5.266  16.584 -0.2453 -1.2480  0.1205
 7716TIP3    H244564   0.465   5.345  16.679  0.6359  1.8475 -1.5636
 7717TIP3   OH244565   6.391   2.430  17.144 -0.2216  0.1193  0.3638
 7717TIP3    H144566   6.445   2.439  17.223  1.0349  0.4112 -0.5215
 7717TIP3    H244567   6.420   2.501  17.087 -2.1453  0.8139  0.2123
 7718TIP3   OH244568   5.401   6.130   0.052  0.0749  0.6019 -0.1108
 7718TIP3    H144569   5.492   6.119   0.025  0.2647  0.7976  0.4400
 7718TIP3    H244570   5.350   6.103  -0.024  0.5816 -0.4150 -0.0959
 7719TIP3   OH244571   2.110   4.932  17.022  0.2312  0.2093  0.1689
 7719TIP3    H144572   2.134   5.002  17.083  0.5281 -0.4383  0.7997
 7719TIP3    H244573   2.068   4.865  17.076 -2.4713  1.0431 -0.8194
 7720TIP3   OH244574   0.474   0.443  16.826 -0.3812 -0.0969 -0.0129
 7720TIP3    H144575   0.400   0.495  16.795 -0.0789 -0.2242 -0.9683
 7720TIP3    H244576   0.462   0.438  16.921  0.2270  2.7246  0.2512
 7721TIP3   OH244577   2.955   6.301   1.004 -0.3797 -0.2544 -0.5712
 7721TIP3    H144578   2.936   6.208   1.020  0.1225 -0.4848 -1.2819
 7721TIP3    H244579   3.050   6.308   1.015 -0.4461  0.2218 -0.2951
 7722TIP3   OH244580   3.322   6.321   2.033  0.3488  0.4612 -0.0066
 7722TIP3    H144581   3.299   6.257   2.099  0.5617  0.8464  0.4417
 7722TIP3    H244582   3.347   6.399   2.082  1.9742  0.2607 -0.4885
 7723TIP3   OH244583   0.299   6.308   1.614  0.0800 -0.1099  0.3146
 7723TIP3    H144584   0.333   6.310   1.703  0.6639 -0.0880  0.0947
 7723TIP3    H244585   0.364   6.357   1.563 -0.2221 -0.1682 -0.1285
 7724TIP3   OH244586   2.083   3.100  15.297  0.0919  0.2333 -0.1778
 7724TIP3    H144587   2.085   3.033  15.229  0.0876  1.3639 -1.3133
 7724TIP3    H244588   2.106   3.181  15.252 -2.5701  1.4823  0.6263
 7725TIP3   OH244589   1.531   5.732  14.080  0.8478  0.0155  0.0603
 7725TIP3    H144590   1.475   5.803  14.049  1.6506  0.9222  0.6428
 7725TIP3    H244591   1.590   5.774  14.142  1.2513 -1.1978  0.5050
 7726TIP3   OH244592   3.934   6.608  17.112 -0.1763  0.1266 -0.9358
 7726TIP3    H144593   3.971   6.544  17.051 -2.6934 -1.6272 -0.7108
 7726TIP3    H244594   3.875   6.661  17.059  1.4013  1.8431 -0.9849
 7727TIP3   OH244595   5.055   2.870  17.033 -0.4441 -0.1163  0.0550
 7727TIP3    H144596   5.018   2.826  16.957 -0.3786  0.5211 -0.3546
 7727TIP3    H244597   5.110   2.939  16.996  0.7013 -0.6931  0.6601
 7728TIP3   OH244598   4.105   0.516   4.335 -0.1975  0.0834  0.2482
 7728TIP3    H144599   4.065   0.429   4.343 -1.5504  0.3827 -2.4637
 7728TIP3    H244600   4.040   0.576   4.371  0.5015  0.0458  1.6042
 7729TIP3   OH244601   3.419   2.127  12.604  0.2340  0.9180 -0.0398
 7729TIP3    H144602   3.359   2.183  12.556  1.2420  1.5600 -0.5511
 7729TIP3    H244603   3.492   2.113  12.545  0.1619 -0.6584  0.2116
 7730TIP3   OH244604   3.561   3.759   1.582 -0.3067 -0.1876  0.5538
 7730TIP3    H144605   3.611   3.690   1.539 -1.6334 -1.0879  0.4225
 7730TIP3    H244606   3.489   3.713   1.624 -0.8609  1.0592  0.9696
 7731TIP3   OH244607   5.283   2.797   5.068 -0.1853  0.2934 -0.2166
 7731TIP3    H144608   5.303   2.708   5.041 -2.6515 -0.3091 -0.1259
 7731TIP3    H244609   5.258   2.790   5.160 -0.2410  1.1132 -0.1588
 7732TIP3   OH244610   0.418   5.715   6.290 -0.0754 -0.3000  0.3711
 7732TIP3    H144611   0.404   5.628   6.327  1.4008 -1.0293 -0.7400
 7732TIP3    H244612   0.496   5.706   6.235 -0.9360  1.2939 -1.1619
 7733TIP3   OH244613   4.472   6.425   0.172 -0.3468 -0.5076  0.2596
 7733TIP3    H144614   4.458   6.491   0.241 -2.5960  0.1427 -0.7509
 7733TIP3    H244615   4.389   6.423   0.124  0.0269 -3.3773 -0.3647
 7734TIP3   OH244616   6.204   5.114  14.731  0.1656  0.3243 -0.3851
 7734TIP3    H144617   6.159   5.030  14.729  3.3396 -1.4199 -0.6892
 7734TIP3    H244618   6.133   5.179  14.727 -2.3832 -2.2770  1.0591
 7735TIP3   OH244619   6.741   0.696   1.020 -0.1227  0.4059  0.0123
 7735TIP3    H144620   6.762   0.674   0.930  0.6428  1.5647 -0.1014
 7735TIP3    H244621   6.761   0.790   1.028 -1.1888  0.5656  1.0884
 7736TIP3   OH244622   4.860   1.686  14.364 -0.0287  0.1052 -0.3982
 7736TIP3    H144623   4.870   1.666  14.271  0.6911 -0.9640 -0.1025
 7736TIP3    H244624   4.831   1.777  14.366  0.3951  0.2808 -1.6603
 7737TIP3   OH244625   2.035   6.258  15.634  0.7036  0.3158 -0.0977
 7737TIP3    H144626   2.010   6.166  15.642 -2.1060  1.1010  0.9320
 7737TIP3    H244627   1.984   6.291  15.560 -0.7804  1.7765  1.5232
 7738TIP3   OH244628   1.274   3.486   1.364 -0.4930  0.4067 -0.0161
 7738TIP3    H144629   1.201   3.458   1.417  0.9279  0.5570  2.0688
 7738TIP3    H244630   1.274   3.426   1.289  0.1092 -2.6402  2.3498
 7739TIP3   OH244631   0.588   4.682  12.840  0.1667  0.3299  0.5181
 7739TIP3    H144632   0.560   4.592  12.824  0.7735  0.1012  0.6980
 7739TIP3    H244633   0.653   4.700  12.772 -2.7737  2.0165 -1.9704
 7740TIP3   OH244634   1.262   3.030   4.302 -0.3133  0.5126  0.6128
 7740TIP3    H144635   1.266   3.106   4.244 -0.6127  1.9882  2.4782
 7740TIP3    H244636   1.176   2.992   4.285 -0.9074  1.6693  0.9807
 7741TIP3   OH244637   2.918   5.958  11.555  0.3093  0.3430 -0.2470
 7741TIP3    H144638   2.825   5.976  11.571  0.2510  1.5177 -1.8535
 7741TIP3    H244639   2.937   5.883  11.612 -1.8853 -0.5883 -0.6798
 7742TIP3   OH244640   2.164   3.607   3.453  0.7503 -0.3661  0.1386
 7742TIP3    H144641   2.203   3.676   3.399  2.9065 -0.6340  1.3065
 7742TIP3    H244642   2.210   3.613   3.537 -1.7699 -0.6799  1.6173
 7743TIP3   OH244643   1.273   4.689  13.749  0.2941 -0.1449 -0.2549
 7743TIP3    H144644   1.333   4.641  13.806  0.5667 -0.6698 -0.9850
 7743TIP3    H244645   1.302   4.780  13.754 -0.8212  0.1385  1.9116
 7744TIP3   OH244646   3.744   2.555   3.714  0.2609  0.0188  0.1510
 7744TIP3    H144647   3.747   2.469   3.757 -1.0567 -0.2310 -0.2326
 7744TIP3    H244648   3.686   2.542   3.639  0.0315  1.2506  0.1042
 7745TIP3   OH244649   5.415   1.949   2.858 -0.0923  0.1208  0.1788
 7745TIP3    H144650   5.453   1.916   2.777 -2.0133  2.4893 -1.7476
 7745TIP3    H244651   5.490   1.978   2.910  1.0336  0.6762 -1.6990
 7746TIP3   OH244652   6.277   4.567  12.869  0.1311  0.6208  0.8649
 7746TIP3    H144653   6.259   4.474  12.884  0.5550 -0.0284 -2.1193
 7746TIP3    H244654   6.353   4.586  12.924  1.7635 -1.5742 -0.5412
 7747TIP3   OH244655   0.903   2.826   2.180  0.0351  0.3970 -0.0327
 7747TIP3    H144656   0.905   2.900   2.240  0.1499  0.9886 -0.7569
 7747TIP3    H244657   0.919   2.749   2.235  0.7246  0.9877  0.5885
 7748TIP3   OH244658   4.319   1.025  12.248 -0.0614 -0.3363 -0.2654
 7748TIP3    H144659   4.363   1.025  12.162  0.8857  0.3015  0.2159
 7748TIP3    H244660   4.226   1.032  12.227  0.1908  0.1986 -1.2349
 7749TIP3   OH244661   6.399   6.582  11.910 -0.5883 -0.6282  0.1548
 7749TIP3    H144662   6.332   6.589  11.978 -1.5997  0.6622 -0.9501
 7749TIP3    H244663   6.370   6.508  11.857 -0.1027 -1.2780  0.7849
 7750TIP3   OH244664   0.133   2.860  15.625  0.3682 -0.0280  0.0677
 7750TIP3    H144665   0.165   2.915  15.696  1.0169 -1.2402  0.7213
 7750TIP3    H244666   0.069   2.802  15.665 -0.4117  0.3191 -0.6450
 7751TIP3   OH244667   4.685   4.508   4.632  0.0289  0.0992  0.4230
 7751TIP3    H144668   4.686   4.413   4.615 -0.7161  0.1593  0.0066
 7751TIP3    H244669   4.593   4.527   4.651 -0.1820  1.0854 -1.4546
 7752TIP3   OH244670   5.666   3.302  16.675 -0.4095  0.6145 -0.1199
 7752TIP3    H144671   5.654   3.314  16.769  2.2791  0.9036  0.2242
 7752TIP3    H244672   5.584   3.330  16.636 -0.3783  3.7522  1.9174
 7753TIP3   OH244673   5.060   1.562  16.469  0.1550  0.1600  0.1563
 7753TIP3    H144674   5.021   1.594  16.388  0.3667 -0.6621 -0.2701
 7753TIP3    H244675   4.985   1.540  16.525 -0.0136 -1.2951 -0.6151
 7754TIP3   OH244676   1.022   2.514  16.957  0.2070 -0.5235  0.0642
 7754TIP3    H144677   1.100   2.497  17.010 -0.2174 -0.1692  0.8159
 7754TIP3    H244678   0.984   2.593  16.995 -1.3147 -1.5034  0.6348
 7755TIP3   OH244679   6.736   5.395   5.176 -0.2444 -0.2376  0.2016
 7755TIP3    H144680   6.674   5.333   5.214 -0.8844  0.7028  0.7126
 7755TIP3    H244681   6.696   5.421   5.093  1.5142 -2.8715 -1.5532
 7756TIP3   OH244682   1.339   6.670   1.111 -0.1952  0.0082 -0.7181
 7756TIP3    H144683   1.398   6.646   1.040 -0.3468 -0.6735 -0.6186
 7756TIP3    H244684   1.350   6.600   1.176 -1.5604 -0.4439 -0.9655
 7757TIP3   OH244685   5.976   3.373  13.687  0.4949  0.1482  0.1618
 7757TIP3    H144686   5.959   3.335  13.601  0.2036 -0.2509  0.3929
 7757TIP3    H244687   5.889   3.389  13.723  0.6160 -0.3950  0.6938
 7758TIP3   OH244688   4.654   2.373   1.666 -0.1449  0.4301  0.3543
 7758TIP3    H144689   4.600   2.365   1.745  1.6655  0.3084  1.6025
 7758TIP3    H244690   4.690   2.285   1.654 -2.1901 -0.1575 -1.9506
 7759TIP3   OH244691   4.669   2.708   4.517 -0.1194 -1.0003 -0.1140
 7759TIP3    H144692   4.691   2.616   4.529 -0.6260 -1.1512 -0.3434
 7759TIP3    H244693   4.648   2.739   4.606 -1.6648 -1.5528 -0.2679
 7760TIP3   OH244694   2.595   0.157   2.626 -0.9071  0.1768  0.5013
 7760TIP3    H144695   2.502   0.138   2.641 -1.2033  0.9028 -0.3317
 7760TIP3    H244696   2.620   0.099   2.554 -1.3250  1.5632 -0.7953
 7761TIP3   OH244697   1.592   4.042   1.945  0.0741 -0.0167  0.1080
 7761TIP3    H144698   1.681   4.073   1.928  0.2344 -0.3814  0.2900
 7761TIP3    H244699   1.575   4.067   2.036 -0.1054  0.2852 -0.0082
 7762TIP3   OH244700   2.673   2.574  12.621  0.7629 -0.6183 -0.0545
 7762TIP3    H144701   2.767   2.554  12.618  0.9982  0.3517  0.6888
 7762TIP3    H244702   2.668   2.660  12.663 -0.6132 -1.6545  1.9591
 7763TIP3   OH244703   3.594   1.986   1.975  0.2744 -0.5014 -0.3690
 7763TIP3    H144704   3.606   2.068   1.925  0.9097 -0.5245 -0.2530
 7763TIP3    H244705   3.682   1.952   1.987  0.1826 -0.1657  1.3413
 7764TIP3   OH244706   6.466   3.728  16.901  0.1007 -0.2043  0.0983
 7764TIP3    H144707   6.388   3.680  16.928  1.1665 -1.6986  0.6166
 7764TIP3    H244708   6.527   3.660  16.874  1.0543  0.9730 -0.7481
 7765TIP3   OH244709   6.717   0.542  16.215 -0.1866  0.4266 -0.0031
 7765TIP3    H144710   6.782   0.491  16.166 -1.8191  0.4322 -2.2336
 7765TIP3    H244711   6.673   0.478  16.270  0.0580  0.0093 -0.2900
 7766TIP3   OH244712   4.695   2.067   4.163  0.6113  0.6136 -0.0839
 7766TIP3    H144713   4.633   2.000   4.136  0.5528  0.4508  0.4532
 7766TIP3    H244714   4.752   2.080   4.087  0.6426 -0.0593 -0.1702
 7767TIP3   OH244715   4.101   4.460  11.971  0.0637  0.1587  0.5003
 7767TIP3    H144716   4.035   4.523  11.941  1.8820  0.1525 -3.8728
 7767TIP3    H244717   4.185   4.504  11.957  1.3251 -2.7857 -1.7630
 7768TIP3   OH244718   4.294   0.110   1.385 -0.3050  0.2169 -0.0834
 7768TIP3    H144719   4.367   0.075   1.437 -1.4375  0.2373  1.5672
 7768TIP3    H244720   4.286   0.051   1.311  1.8884  0.6583 -0.6993
 7769TIP3   OH244721   6.342   1.454  13.771 -0.2828 -0.4680  0.0691
 7769TIP3    H144722   6.375   1.543  13.785 -1.7709  0.1231 -0.1081
 7769TIP3    H244723   6.399   1.399  13.825  0.3772  0.6440  0.5263
 7770TIP3   OH244724   4.687   0.293  11.600 -0.7867  0.1042 -0.2619
 7770TIP3    H144725   4.756   0.297  11.666 -1.4773  1.2042  0.4175
 7770TIP3    H244726   4.661   0.384  11.587 -2.0855 -0.2851 -0.5158
 7771TIP3   OH244727   0.454   0.770   3.804  0.0560 -0.5350  0.5209
 7771TIP3    H144728   0.540   0.807   3.823  1.3156 -3.3323  0.5855
 7771TIP3    H244729   0.423   0.819   3.728  1.3201  1.0499  0.9869
 7772TIP3   OH244730   0.085   5.370   1.947  0.3895 -0.6338 -0.5620
 7772TIP3    H144731   0.168   5.413   1.930  0.9626 -0.7825  1.7011
 7772TIP3    H244732   0.023   5.413   1.889  1.6707  0.7243 -0.9475
 7773TIP3   OH244733   2.737   4.354  11.119 -0.1539  0.2038  0.0068
 7773TIP3    H144734   2.775   4.320  11.200  0.4872 -0.9657 -0.7686
 7773TIP3    H244735   2.720   4.275  11.066 -0.4633  0.9614 -1.0340
 7774TIP3   OH244736   5.480   6.306  12.601 -0.1649  0.0118  0.4712
 7774TIP3    H144737   5.542   6.235  12.585  0.3083  0.7275 -1.0468
 7774TIP3    H244738   5.430   6.279  12.677  0.3555 -1.7098  0.2061
 7775TIP3   OH244739   2.763   0.179   0.386 -0.3798  0.3273 -0.4853
 7775TIP3    H144740   2.848   0.218   0.406  0.0320  0.3746 -2.2153
 7775TIP3    H244741   2.783   0.113   0.320 -1.6952  0.3620 -0.9201
 7776TIP3   OH244742   3.595   3.444   0.436 -0.1621 -0.0780  0.2715
 7776TIP3    H144743   3.613   3.373   0.497 -1.6675 -0.2202  0.5687
 7776TIP3    H244744   3.553   3.402   0.362  2.7722 -0.0867 -1.4706
 7777TIP3   OH244745   0.385   4.180   1.280 -0.7547  0.4010 -0.0907
 7777TIP3    H144746   0.393   4.143   1.368  1.4462  0.6947 -0.1290
 7777TIP3    H244747   0.436   4.121   1.224 -0.2350  1.4530 -0.7669
 7778TIP3   OH244748   4.986   6.017   0.752 -0.1319  0.1153 -0.5732
 7778TIP3    H144749   4.898   5.995   0.782  0.1682  1.0574  1.0592
 7778TIP3    H244750   5.042   5.953   0.795  0.0402 -0.1481 -1.1869
 7779TIP3   OH244751   4.345   4.483   1.785 -0.3860 -0.7001 -0.1030
 7779TIP3    H144752   4.342   4.444   1.697 -0.3755 -0.2548 -0.3015
 7779TIP3    H244753   4.407   4.428   1.833 -2.5285 -2.7187  0.4984
 7780TIP3   OH244754   3.653   2.372   3.908 -1.0668 -0.8049 -0.0655
 7780TIP3    H144755   3.609   2.400   3.988 -1.2756  0.3573 -0.5907
 7780TIP3    H244756   3.652   2.276   3.913  0.7475 -0.7634  2.3277
 7781TIP3   OH244757   4.700   6.525  13.287  0.1518  0.5097 -0.1433
 7781TIP3    H144758   4.680   6.592  13.353  0.5966  0.4254  0.0747
 7781TIP3    H244759   4.622   6.469  13.286  0.2263  0.3995  0.4423
 7782TIP3   OH244760   0.302   0.293  11.625 -0.1331  0.4681  0.0404
 7782TIP3    H144761   0.398   0.291  11.617  0.0284  1.7571  1.2617
 7782TIP3    H244762   0.275   0.364  11.566 -0.3567 -0.0185 -0.4438
 7783TIP3   OH244763   0.877   2.742   0.733 -0.0899 -0.7063 -1.1960
 7783TIP3    H144764   0.823   2.711   0.661 -1.8632  1.3266 -0.8038
 7783TIP3    H244765   0.817   2.745   0.808  0.4304  1.8481 -0.8220
 7784TIP3   OH244766   2.469   3.879   1.533  0.0164  0.6687 -0.0414
 7784TIP3    H144767   2.381   3.867   1.570  0.0748 -1.8493 -0.6183
 7784TIP3    H244768   2.525   3.894   1.609 -0.5457 -0.0165  0.5177
 7785TIP3   OH244769   0.002   1.263  16.853  0.2950  0.2004 -0.4933
 7785TIP3    H144770  -0.043   1.348  16.848  1.1606  0.7540  0.8039
 7785TIP3    H244771  -0.038   1.211  16.783 -2.1871  0.7488  0.4483
 7786TIP3   OH244772   2.056   2.380  11.771 -0.0943 -0.0963 -0.0055
 7786TIP3    H144773   2.150   2.397  11.767 -0.0842 -0.2879 -0.5134
 7786TIP3    H244774   2.017   2.466  11.788  0.1436  0.0349 -0.1284
 7787TIP3   OH244775   4.797   5.685   4.861  0.3702 -0.0436 -0.1862
 7787TIP3    H144776   4.835   5.625   4.796  0.9218 -1.1253  1.1164
 7787TIP3    H244777   4.713   5.645   4.884  0.9263 -0.5258  0.9931
 7788TIP3   OH244778   0.870   5.324  15.800  0.3645  0.6818 -0.4908
 7788TIP3    H144779   0.839   5.376  15.726  2.0016  1.5826 -0.5595
 7788TIP3    H244780   0.793   5.315  15.857 -0.6743  0.7251 -1.8521
 7789TIP3   OH244781   4.230   4.577   0.007 -0.4665 -0.2340 -0.2328
 7789TIP3    H144782   4.146   4.563  -0.037 -0.5467  1.3939 -0.6279
 7789TIP3    H244783   4.288   4.510  -0.030 -0.6534  0.8173 -2.5248
 7790TIP3   OH244784   4.699   2.988   0.415 -0.7225 -0.3206 -0.0716
 7790TIP3    H144785   4.719   2.987   0.321 -1.7948  1.2530 -0.3384
 7790TIP3    H244786   4.631   3.055   0.424 -0.5610 -0.3932  1.8469
 7791TIP3   OH244787   0.785   5.557   4.753  0.5303  0.2665  0.0600
 7791TIP3    H144788   0.836   5.592   4.826  0.4042 -2.1141  1.3379
 7791TIP3    H244789   0.706   5.611   4.750  0.6189  0.5011  1.5978
 7792TIP3   OH244790   0.219   3.986   5.984 -0.0394 -0.2949 -0.3622
 7792TIP3    H144791   0.154   4.049   6.014  1.6412  1.3182  0.0285
 7792TIP3    H244792   0.290   3.993   6.048  1.8806  0.2994 -2.4822
 7793TIP3   OH244793   4.432   3.787   0.519 -0.1298  0.0387  0.4522
 7793TIP3    H144794   4.510   3.827   0.557 -1.0904  0.7531  1.7132
 7793TIP3    H244795   4.404   3.848   0.451 -0.5635  0.6276  1.1573
 7794TIP3   OH244796   5.378   4.407   0.883 -0.1257 -0.0922  0.0951
 7794TIP3    H144797   5.418   4.353   0.951 -0.1531  2.5806  2.3234
 7794TIP3    H244798   5.291   4.370   0.871  0.6628 -1.9239 -0.0430
 7795TIP3   OH244799   3.504   1.068   0.588  0.3271  0.7216  0.6085
 7795TIP3    H144800   3.598   1.051   0.595  0.0864 -1.1017 -0.5110
 7795TIP3    H244801   3.476   1.084   0.679  1.0812 -2.1569  1.4020
 7796TIP3   OH244802   0.435   1.228   5.412 -0.0638  0.4545  0.0855
 7796TIP3    H144803   0.447   1.252   5.504 -0.4663  1.8320 -0.2169
 7796TIP3    H244804   0.491   1.289   5.364  1.2873 -1.1990 -0.5103
 7797TIP3   OH244805   6.275   2.905   4.862 -0.1200 -0.9382 -0.5283
 7797TIP3    H144806   6.346   2.851   4.826 -0.1806 -1.3707 -0.0148
 7797TIP3    H244807   6.293   2.906   4.956  0.0290  0.1598 -0.5628
 7798TIP3   OH244808   0.339   1.383  12.340  0.1006  0.2922  0.1178
 7798TIP3    H144809   0.280   1.338  12.400  1.1113  0.4037  1.2168
 7798TIP3    H244810   0.301   1.471  12.330 -0.1504  0.2263  0.4769
 7799TIP3   OH244811   3.071   3.545   5.321 -0.3207  0.3445 -0.4084
 7799TIP3    H144812   3.035   3.627   5.287  0.2482  0.9251  0.3742
 7799TIP3    H244813   3.166   3.556   5.316 -0.2409 -0.2827 -0.3422
 7800TIP3   OH244814   0.585   4.800   1.674 -0.2750  0.0121 -0.0281
 7800TIP3    H144815   0.495   4.787   1.705 -0.5901  0.0247 -0.9078
 7800TIP3    H244816   0.585   4.890   1.641 -0.1466 -0.2369 -0.7120
 7801TIP3   OH244817   2.750   6.345  15.897  0.3803 -0.3114 -0.1296
 7801TIP3    H144818   2.842   6.369  15.889  0.4665 -0.2502  0.9300
 7801TIP3    H244819   2.735   6.340  15.991  0.0368 -3.0892 -0.2920
 7802TIP3   OH244820   4.471   6.595  17.082 -0.4214  0.0661  0.3803
 7802TIP3    H144821   4.399   6.606  17.021 -0.2705  1.0672  0.3854
 7802TIP3    H244822   4.486   6.682  17.118  0.6725 -0.1650  0.5036
 7803TIP3   OH244823   4.966   5.635  13.672  0.1003  0.0782  0.1159
 7803TIP3    H144824   4.957   5.633  13.577  0.8284 -0.3541  0.0532
 7803TIP3    H244825   5.054   5.671  13.687 -0.2174  0.6468  0.6322
 7804TIP3   OH244826   0.738   5.292  14.929  0.0297 -0.0311  0.2383
 7804TIP3    H144827   0.755   5.336  14.845 -0.0239 -0.6749 -0.1161
 7804TIP3    H244828   0.823   5.291  14.973  0.3773 -0.9800 -0.4402
 7805TIP3   OH244829   5.198   3.426   2.902 -0.0992 -0.3380 -0.7699
 7805TIP3    H144830   5.219   3.356   2.964 -0.1059 -0.0936 -0.4912
 7805TIP3    H244831   5.108   3.409   2.875 -0.5041  0.2387  0.1985
 7806TIP3   OH244832   0.086   6.505  12.423 -0.0356  0.0301  1.1136
 7806TIP3    H144833   0.158   6.493  12.484  1.8767 -0.6784 -1.2034
 7806TIP3    H244834   0.128   6.529  12.340 -2.4723 -0.1088 -0.2209
 7807TIP3   OH244835   4.993   1.667   3.312  0.3565  0.5879 -0.0386
 7807TIP3    H144836   4.936   1.738   3.343  0.4178  0.8023 -0.4156
 7807TIP3    H244837   4.985   1.670   3.217 -1.5898 -1.5071  0.0173
 7808TIP3   OH244838   3.163   0.911  10.433 -0.5443  0.2526 -0.4860
 7808TIP3    H144839   3.223   0.868  10.372 -0.2354 -1.1237  0.7542
 7808TIP3    H244840   3.078   0.871  10.416 -0.8899  1.3508 -1.4179
 7809TIP3   OH244841   1.791   6.178   3.410  0.2324 -0.0883  0.1192
 7809TIP3    H144842   1.800   6.088   3.439 -1.3598 -0.0390  0.8324
 7809TIP3    H244843   1.750   6.172   3.323  1.2709 -0.0834 -0.3828
 7810TIP3   OH244844   1.359   1.639   0.096 -0.1076  0.7314  0.2868
 7810TIP3    H144845   1.426   1.641   0.028 -1.8759  1.7041 -1.4997
 7810TIP3    H244846   1.358   1.548   0.126 -1.1167 -0.4118 -2.9382
 7811TIP3   OH244847   6.438   3.547   0.312 -0.4307 -0.5522  0.0448
 7811TIP3    H144848   6.349   3.582   0.319 -0.1307 -0.0773  1.8853
 7811TIP3    H244849   6.480   3.572   0.394  1.4098 -0.7751 -0.7866
 7812TIP3   OH244850   3.320   5.998  15.179  0.3389  0.0752 -0.2280
 7812TIP3    H144851   3.271   5.975  15.258  0.6736 -0.3118 -0.1363
 7812TIP3    H244852   3.274   5.951  15.109  0.6784 -0.4172 -0.1198
 7813TIP3   OH244853   2.904   4.698  14.807 -1.0102  0.3935  0.0349
 7813TIP3    H144854   2.952   4.637  14.863  0.8703  0.1955 -1.6963
 7813TIP3    H244855   2.812   4.679  14.824 -0.5229 -3.6615 -1.1535
 7814TIP3   OH244856   0.131   5.622   3.095  0.0785 -0.2688 -0.0614
 7814TIP3    H144857   0.185   5.649   3.020 -1.1559  1.1946 -0.4398
 7814TIP3    H244858   0.186   5.638   3.171  0.7639 -0.2777 -0.5476
 7815TIP3   OH244859   1.553   2.889   4.830  0.1019 -0.1690 -0.1727
 7815TIP3    H144860   1.604   2.836   4.769 -2.3667 -2.0355 -0.7011
 7815TIP3    H244861   1.470   2.906   4.785 -0.8963  0.3069  1.7621
 7816TIP3   OH244862   5.391   0.850   5.234 -0.3714  0.2528  0.0295
 7816TIP3    H144863   5.416   0.771   5.282  1.4798  0.2945 -0.8214
 7816TIP3    H244864   5.295   0.850   5.237 -0.3291 -0.5822  2.3367
 7817TIP3   OH244865   3.473   2.558   3.722 -0.5147 -0.1387  0.9283
 7817TIP3    H144866   3.411   2.577   3.793 -1.6728  1.1372 -0.4061
 7817TIP3    H244867   3.558   2.581   3.759 -1.1590  0.9444  1.7590
 7818TIP3   OH244868   4.920   5.900  14.826  0.7189  0.2229  0.3523
 7818TIP3    H144869   4.862   5.922  14.900 -0.4224 -2.2673  0.2428
 7818TIP3    H244870   4.960   5.817  14.851  0.5751 -0.4818 -1.6632
 7819TIP3   OH244871   1.154   6.190  11.948  0.1844  0.3039  0.8071
 7819TIP3    H144872   1.111   6.273  11.969 -0.7300  0.0972 -0.1650
 7819TIP3    H244873   1.231   6.187  12.005 -0.7898  0.9519  2.1993
 7820TIP3   OH244874   0.852   0.624  14.157  0.4217  0.1842 -0.1157
 7820TIP3    H144875   0.832   0.696  14.217  1.0964  0.7606 -0.5750
 7820TIP3    H244876   0.927   0.654  14.107  0.6049 -0.7757 -0.4371
 7821TIP3   OH244877   3.710   0.909   1.830 -0.0999 -0.1598  0.6655
 7821TIP3    H144878   3.706   0.869   1.917 -0.4940 -1.6816 -0.0307
 7821TIP3    H244879   3.735   0.837   1.772  2.2638  1.2909 -0.1913
 7822TIP3   OH244880   5.248   3.262   4.892  0.1210  0.0974 -0.0001
 7822TIP3    H144881   5.280   3.191   4.947 -0.0733  0.0071 -0.0036
 7822TIP3    H244882   5.163   3.232   4.860  0.1315  0.2438 -0.1689
 7823TIP3   OH244883   2.120   2.148  12.294 -0.0528  0.4791 -0.6637
 7823TIP3    H144884   2.099   2.229  12.247  0.0641  1.3316  0.7085
 7823TIP3    H244885   2.110   2.171  12.387  3.0577 -0.1640 -0.1016
 7824TIP3   OH244886   5.060   2.164   3.433 -0.3355 -0.4793  0.5118
 7824TIP3    H144887   5.111   2.154   3.513  0.6877  0.3335 -0.0364
 7824TIP3    H244888   5.079   2.252   3.403 -0.3623 -0.9383 -0.8775
 7825TIP3   OH244889   3.492   1.924  10.346 -0.7269  0.2868  0.3809
 7825TIP3    H144890   3.567   1.971  10.382 -0.7111  1.1524 -0.7684
 7825TIP3    H244891   3.529   1.842  10.312 -0.4514  0.3091  0.6274
 7826TIP3   OH244892   1.029   5.974  11.218  0.6871  0.3251  0.1565
 7826TIP3    H144893   0.990   6.008  11.298 -0.8389  0.4476 -0.6147
 7826TIP3    H244894   0.976   6.014  11.148  1.4365 -0.4794 -0.8649
 7827TIP3   OH244895   1.065   0.304   2.652 -0.1470  0.6479  0.7083
 7827TIP3    H144896   1.127   0.376   2.667 -0.2989  1.4263 -2.1333
 7827TIP3    H244897   0.980   0.348   2.643 -0.5304 -0.0749  0.8037
 7828TIP3   OH244898   4.049   3.817   2.911 -0.0121 -0.1893  0.2226
 7828TIP3    H144899   4.041   3.722   2.911  1.8508 -0.3745  0.8347
 7828TIP3    H244900   4.125   3.834   2.967 -1.1147  1.7321  1.1769
 7829TIP3   OH244901   2.339   1.689   3.982 -0.4188  0.0104  0.3566
 7829TIP3    H144902   2.422   1.736   3.984 -0.4081 -0.0296  1.3955
 7829TIP3    H244903   2.350   1.619   4.047 -0.0104 -2.1616 -1.9896
 7830TIP3   OH244904   1.915   1.109   4.656  0.3810  0.3045  0.5668
 7830TIP3    H144905   1.982   1.059   4.702 -0.0945 -0.5956  0.3061
 7830TIP3    H244906   1.851   1.132   4.724  1.0508  1.3355  0.8512
 7831TIP3   OH244907   6.258   6.060   5.755 -0.1591 -0.0097  0.3235
 7831TIP3    H144908   6.233   5.988   5.813  2.1797 -0.7443  0.4694
 7831TIP3    H244909   6.263   6.137   5.813  0.6828 -0.4290  0.8073
 7832TIP3   OH244910   3.079   5.895  12.378 -0.5095  0.0739 -0.1958
 7832TIP3    H144911   3.041   5.975  12.342 -0.2458  0.4389  0.3276
 7832TIP3    H244912   3.138   5.925  12.448 -0.1854 -0.5563 -0.1902
 7833TIP3   OH244913   6.324   3.366   6.243 -0.1823 -0.0336  0.4976
 7833TIP3    H144914   6.326   3.461   6.242 -0.3438 -0.0294  0.1351
 7833TIP3    H244915   6.248   3.344   6.297 -0.3461  0.0522  0.3064
 7834TIP3   OH244916   4.380   6.676  11.200  0.3014  0.4021 -0.3083
 7834TIP3    H144917   4.288   6.698  11.212 -0.0368 -1.2838  0.4204
 7834TIP3    H244918   4.382   6.622  11.120  1.0042  2.3328 -1.6488
 7835TIP3   OH244919   4.096   4.150   5.948  1.2200  0.2238 -0.0779
 7835TIP3    H144920   4.140   4.076   5.905 -2.2263 -1.3960 -1.0002
 7835TIP3    H244921   4.112   4.224   5.889  2.3976 -0.3918 -0.5602
 7836TIP3   OH244922   0.334   0.951  16.463  0.3576  0.6472  0.1325
 7836TIP3    H144923   0.308   0.973  16.552 -0.6172 -1.5280  0.4098
 7836TIP3    H244924   0.262   0.896  16.430  0.7346  1.3687 -1.9658
 7837TIP3   OH244925   4.146   5.558   6.063 -0.2898  0.3052 -0.0693
 7837TIP3    H144926   4.169   5.521   6.149 -1.7547  1.2589  0.7521
 7837TIP3    H244927   4.052   5.546   6.057 -0.1025 -0.3447 -1.8496
 7838TIP3   OH244928   3.792   5.763  16.110 -0.0898  0.2469 -0.2570
 7838TIP3    H144929   3.740   5.722  16.042 -0.5783 -1.1452  0.9407
 7838TIP3    H244930   3.883   5.751  16.082 -0.2625 -0.8967 -0.3487
 7839TIP3   OH244931   6.149   6.600   3.449  0.3199 -0.5345 -0.7028
 7839TIP3    H144932   6.139   6.671   3.513 -0.7069 -1.6189  0.3738
 7839TIP3    H244933   6.134   6.520   3.500 -0.6963 -1.4144 -2.3282
 7840TIP3   OH244934   5.805   0.405   1.543 -0.5522 -0.3028 -0.0217
 7840TIP3    H144935   5.762   0.471   1.598 -1.5929 -0.7374 -0.3046
 7840TIP3    H244936   5.748   0.396   1.467 -1.2815 -2.6848  0.7503
 7841TIP3   OH244937   4.300   2.625  13.698  0.2986 -0.2552 -0.1369
 7841TIP3    H144938   4.391   2.603  13.681 -0.2388 -1.8036 -1.0809
 7841TIP3    H244939   4.250   2.563  13.645 -1.3381 -0.7617  1.9352
 7842TIP3   OH244940   1.441   4.707   6.245  0.6024 -0.7782  0.3154
 7842TIP3    H144941   1.495   4.661   6.308  0.8172  0.2942  0.9269
 7842TIP3    H244942   1.380   4.641   6.213  1.1276 -1.5650  0.9153
 7843TIP3   OH244943   2.601   5.243  10.906 -0.0436  0.1077 -0.0253
 7843TIP3    H144944   2.649   5.270  10.828 -0.6085  0.1037 -0.3796
 7843TIP3    H244945   2.513   5.280  10.894 -0.5884 -1.1989 -0.1327
 7844TIP3   OH244946   5.696   1.157   5.929 -0.9308  0.4087 -0.1836
 7844TIP3    H144947   5.733   1.070   5.912  0.8014  0.9602  0.6026
 7844TIP3    H244948   5.667   1.188   5.844 -1.5228 -0.9116 -0.4775
 7845TIP3   OH244949   1.270   3.188  15.828 -0.4019 -0.2032 -0.7562
 7845TIP3    H144950   1.364   3.190  15.847 -0.6113  2.5919  0.3169
 7845TIP3    H244951   1.265   3.191  15.733  0.6274  2.4101 -0.7690
 7846TIP3   OH244952   1.972   5.694  13.410 -0.0235 -0.0278 -0.0470
 7846TIP3    H144953   1.930   5.748  13.343  1.8515 -1.9389 -2.8661
 7846TIP3    H244954   1.909   5.623  13.427 -0.2063  0.0721 -0.3091
 7847TIP3   OH244955   5.634   4.148  14.480  0.2571 -0.4461  0.8797
 7847TIP3    H144956   5.644   4.054  14.471  0.3074 -0.2562 -1.4126
 7847TIP3    H244957   5.706   4.175  14.538  1.7081 -1.5109 -0.3833
 7848TIP3   OH244958   0.925   6.160   1.221  0.1431 -0.4259  0.3976
 7848TIP3    H144959   0.999   6.099   1.219 -0.4630 -1.1753  0.6402
 7848TIP3    H244960   0.947   6.222   1.290  0.3306 -0.9284  0.7924
 7849TIP3   OH244961   4.287   6.000  16.867 -0.0767  0.0287 -0.3704
 7849TIP3    H144962   4.317   6.082  16.829  0.1951 -0.2485 -0.7538
 7849TIP3    H244963   4.303   6.010  16.961 -0.0988  0.4338 -0.4084
 7850TIP3   OH244964   4.420   3.169   6.990 -0.6681 -0.2994 -0.1148
 7850TIP3    H144965   4.500   3.214   7.019 -0.4170 -0.0550 -1.1555
 7850TIP3    H244966   4.349   3.227   7.017 -0.3194  1.0487 -1.9689
 7851TIP3   OH244967   5.223   5.065   2.139  0.4218 -0.5620 -0.5521
 7851TIP3    H144968   5.316   5.077   2.120  0.5951 -1.6603 -0.4503
 7851TIP3    H244969   5.180   5.143   2.103  1.5661  0.7946  0.9194
 7852TIP3   OH244970   1.676   0.768   5.257  0.4262 -0.3999 -0.1075
 7852TIP3    H144971   1.618   0.812   5.319 -0.4478 -1.0290 -0.4662
 7852TIP3    H244972   1.625   0.761   5.177  1.7498  0.9093 -1.0950
 7853TIP3   OH244973   0.980   2.986   0.648  0.0452  0.8629 -0.2791
 7853TIP3    H144974   0.944   3.024   0.728  1.6307  0.1105  0.8103
 7853TIP3    H244975   0.974   2.891   0.661  3.5607  0.6899  0.4939
 7854TIP3   OH244976   6.214   6.055   4.265  0.5610  0.2451  0.1307
 7854TIP3    H144977   6.205   6.091   4.353  1.2588  2.1037 -0.5462
 7854TIP3    H244978   6.308   6.039   4.256  0.8654  2.6590 -1.2688
 7855TIP3   OH244979   2.906   2.526  14.505 -0.5645  0.5006 -0.2270
 7855TIP3    H144980   2.994   2.495  14.525 -1.5045 -0.6994  2.1735
 7855TIP3    H244981   2.863   2.451  14.464 -0.4806  1.1031 -1.4485
 7856TIP3   OH244982   3.418   0.050  12.049 -0.7098 -0.0209  0.3280
 7856TIP3    H144983   3.342   0.030  11.994  0.3483  2.0178 -1.9681
 7856TIP3    H244984   3.458  -0.035  12.067 -1.5661 -0.8072 -1.3510
 7857TIP3   OH244985   1.803   4.807   3.877 -0.3580 -0.0326  0.1611
 7857TIP3    H144986   1.789   4.713   3.888  2.8131 -0.3122  2.4033
 7857TIP3    H244987   1.790   4.843   3.965  0.1029  1.4182 -0.3527
 7858TIP3   OH244988   4.319   2.877  17.006  0.0553 -0.4794  0.2908
 7858TIP3    H144989   4.327   2.797  17.059  0.5852  0.4911  1.7151
 7858TIP3    H244990   4.326   2.948  17.070 -1.9162  0.6908 -0.7492
 7859TIP3   OH244991   5.262   1.319   2.563 -0.6722 -0.1690  0.2323
 7859TIP3    H144992   5.344   1.279   2.591 -0.2693 -0.3286 -1.1392
 7859TIP3    H244993   5.197   1.287   2.625 -0.1663 -2.1407 -0.2399
 7860TIP3   OH244994   0.275   0.490  11.433 -0.2568 -0.2361  0.5094
 7860TIP3    H144995   0.365   0.505  11.406 -0.4124  0.6407  0.4717
 7860TIP3    H244996   0.240   0.430  11.367  0.8606 -2.1108  1.5846
 7861TIP3   OH244997   2.766   2.744  14.404  0.1075  0.2646 -0.0026
 7861TIP3    H144998   2.719   2.683  14.347 -2.0344 -0.0571  2.0097
 7861TIP3    H244999   2.829   2.689  14.451  0.8133  0.2746 -0.9196
 7862TIP3   OH245000   3.439   5.768  12.609 -0.8331 -0.3393  0.2413
 7862TIP3    H145001   3.410   5.718  12.685 -0.9665  0.5476  0.7796
 7862TIP3    H245002   3.510   5.715  12.571  1.5405  0.8048  2.9221
 7863TIP3   OH245003   1.657   4.465  12.386 -0.6815  0.0678  0.0613
 7863TIP3    H145004   1.729   4.476  12.324 -0.3090 -1.1264  0.2623
 7863TIP3    H245005   1.675   4.381  12.429 -2.5361 -0.5576 -0.3295
 7864TIP3   OH245006   1.753   6.435   1.834  0.3597  0.2116 -0.5340
 7864TIP3    H145007   1.742   6.490   1.756  1.2577  0.7894 -0.2717
 7864TIP3    H245008   1.803   6.359   1.803  2.3598  1.3268 -0.1869
 7865TIP3   OH245009   0.905   0.898   0.587 -0.3679  0.2051 -0.1191
 7865TIP3    H145010   0.920   0.804   0.574  1.9727  0.4400  0.6198
 7865TIP3    H245011   0.904   0.909   0.682  3.0936  1.3966 -0.1186
 7866TIP3   OH245012   6.288   5.657   5.669 -0.0099  0.1272  0.4269
 7866TIP3    H145013   6.198   5.675   5.697 -1.0078 -3.7324 -0.0629
 7866TIP3    H245014   6.322   5.596   5.734  1.3515 -0.4825 -0.8231
 7867TIP3   OH245015   6.731   2.917  16.526 -0.6409 -0.5196  0.1398
 7867TIP3    H145016   6.683   2.858  16.584 -0.4175  0.4852  1.4001
 7867TIP3    H245017   6.684   3.001  16.534 -0.7866 -0.4517 -1.3835
 7868TIP3   OH245018   2.016   4.707   0.790  0.0183 -0.0014  0.1867
 7868TIP3    H145019   2.014   4.612   0.781  2.4894  0.1018 -2.6858
 7868TIP3    H245020   2.106   4.726   0.819 -0.4363  1.4505  0.6839
 7869TIP3   OH245021   5.208   6.625  10.788 -0.1881 -0.1934  0.2848
 7869TIP3    H145022   5.180   6.601  10.700 -3.7089  1.9092  0.7594
 7869TIP3    H245023   5.148   6.579  10.846  1.1626 -0.3601  1.5937
 7870TIP3   OH245024   4.003   2.716   4.625  0.0973  0.4993  0.7956
 7870TIP3    H145025   3.942   2.648   4.655  1.6458 -1.7836 -0.9905
 7870TIP3    H245026   3.948   2.783   4.587 -1.3624 -1.2398 -0.2405
 7871TIP3   OH245027   1.074   0.504  17.032  0.1004 -0.1613 -0.3351
 7871TIP3    H145028   1.075   0.574  17.097  0.1761 -0.7668  0.3136
 7871TIP3    H245029   1.167   0.487  17.013  0.0768  0.0623 -0.6518
 7872TIP3   OH245030   4.627   2.424   3.184  0.0277 -0.1414 -0.4691
 7872TIP3    H145031   4.584   2.500   3.145  0.2718  0.2353 -0.0050
 7872TIP3    H245032   4.701   2.406   3.127  1.7246  1.8000  1.0504
 7873TIP3   OH245033   1.467   0.451   4.365 -0.0783  0.0965  0.0937
 7873TIP3    H145034   1.377   0.419   4.377  0.3801 -1.8440 -1.2774
 7873TIP3    H245035   1.457   0.536   4.324 -1.3160  0.6360  1.4618
 7874TIP3   OH245036   3.261   1.221  15.875  0.1117 -0.2817  0.2777
 7874TIP3    H145037   3.330   1.191  15.815  0.7250  0.0535  0.8108
 7874TIP3    H245038   3.192   1.255  15.817  1.8465  2.5726 -0.2281
 7875TIP3   OH245039   6.383   1.423   4.735 -0.0798 -0.4052  0.2044
 7875TIP3    H145040   6.436   1.345   4.723  0.5996  0.3912 -2.4727
 7875TIP3    H245041   6.293   1.391   4.742  0.5045 -1.6171  2.5146
 7876TIP3   OH245042   1.515   3.506   4.901  0.3454 -0.1020 -0.0894
 7876TIP3    H145043   1.529   3.595   4.935  0.5330 -0.7564  1.5787
 7876TIP3    H245044   1.511   3.518   4.806 -0.8044  1.8490  0.1672
 7877TIP3   OH245045   4.218   4.308  17.163 -0.1106  0.6452 -0.0104
 7877TIP3    H145046   4.307   4.326  17.194 -0.1098 -0.2882  0.5269
 7877TIP3    H245047   4.164   4.313  17.242 -0.3697  0.0744 -0.1530
 7878TIP3   OH245048   1.380   5.233  16.083 -0.6528  0.7090 -0.0674
 7878TIP3    H145049   1.437   5.174  16.132 -0.3709 -0.2893 -1.5682
 7878TIP3    H245050   1.408   5.321  16.109  0.4143  0.2095  0.5045
 7879TIP3   OH245051   2.701   4.959   3.360  0.6919 -0.0146 -0.0349
 7879TIP3    H145052   2.792   4.934   3.343  0.7389 -0.2746  0.5769
 7879TIP3    H245053   2.692   4.953   3.455 -0.4465 -1.7072 -0.2243
 7880TIP3   OH245054   2.083   0.545   4.899 -0.1024 -0.5432  0.5856
 7880TIP3    H145055   2.161   0.600   4.905  1.7488 -3.2042  2.2066
 7880TIP3    H245056   2.031   0.568   4.975  0.6370 -0.9656  1.2252
 7881TIP3   OH245057   0.959   2.787  15.122  0.2054 -0.0836  0.2325
 7881TIP3    H145058   0.980   2.866  15.172 -2.2493  0.3946  0.5817
 7881TIP3    H245059   0.880   2.810  15.074 -0.3971 -2.2611  0.1261
 7882TIP3   OH245060   6.283   3.640  12.222 -0.4266 -0.1127 -0.3446
 7882TIP3    H145061   6.358   3.635  12.281  0.0842  1.2939 -0.8600
 7882TIP3    H245062   6.212   3.597  12.270  0.6594 -1.3657  0.1903
 7883TIP3   OH245063   5.367   2.584  15.843 -0.2299 -0.1558  0.4138
 7883TIP3    H145064   5.382   2.498  15.805 -0.6532  0.3219 -0.8867
 7883TIP3    H245065   5.381   2.645  15.770  1.2781  0.9724  1.6022
 7884TIP3   OH245066   1.933   4.190  14.184 -0.3963  0.4693 -0.5167
 7884TIP3    H145067   1.971   4.180  14.097  2.1615  2.9867  0.2231
 7884TIP3    H245068   1.926   4.285  14.196 -0.6430  0.1661  2.0308
 7885TIP3   OH245069   0.051   5.343   0.523 -0.8260 -0.5656 -0.0057
 7885TIP3    H145070   0.029   5.380   0.609 -1.7513 -0.4609 -0.2817
 7885TIP3    H245071   0.146   5.334   0.524 -0.5635  1.8848  0.0556
 7886TIP3   OH245072   1.119   0.551  13.132  0.6343 -0.6796  0.5280
 7886TIP3    H145073   1.157   0.492  13.197  1.1168  0.7555  1.5567
 7886TIP3    H245074   1.106   0.633  13.178  0.4385  0.1863 -1.0399
 7887TIP3   OH245075   5.423   5.507  11.236 -0.2595 -0.2449  0.3478
 7887TIP3    H145076   5.479   5.578  11.204  0.6768 -1.8696 -1.7784
 7887TIP3    H245077   5.349   5.505  11.175 -1.6037  0.5832  1.9456
 7888TIP3   OH245078   3.485   5.811   3.579 -0.4188 -0.5070 -0.1155
 7888TIP3    H145079   3.576   5.797   3.553  0.0296  0.0846  1.1376
 7888TIP3    H245080   3.463   5.734   3.631 -0.1442  0.1090  0.9054
 7889TIP3   OH245081   0.755   3.249   2.691  0.5534  0.1436 -0.3568
 7889TIP3    H145082   0.749   3.311   2.618 -0.1460  0.1286 -0.3233
 7889TIP3    H245083   0.843   3.261   2.727  1.0111 -0.0790 -1.3999
 7890TIP3   OH245084   2.318   1.227   0.387 -0.1006 -0.5976 -0.6498
 7890TIP3    H145085   2.291   1.240   0.297  0.4190  0.6289 -0.6354
 7890TIP3    H245086   2.254   1.166   0.423 -0.1645 -1.2780 -1.9110
 7891TIP3   OH245087   3.457   3.269  14.548  0.0420 -0.7653  0.1729
 7891TIP3    H145088   3.429   3.345  14.598  2.1926 -0.3439  0.8172
 7891TIP3    H245089   3.463   3.300  14.457  0.9903 -0.1229  0.4455
 7892TIP3   OH245090   1.448   3.316  15.377 -0.1309 -1.1380  0.5698
 7892TIP3    H145091   1.379   3.268  15.423 -0.6551  0.6855  1.7360
 7892TIP3    H245092   1.402   3.388  15.332  0.8602 -0.5813  0.4230
 7893TIP3   OH245093   5.262   6.066  15.488 -0.8486  0.5524  0.6355
 7893TIP3    H145094   5.204   6.072  15.564 -1.9816 -1.6803 -0.0067
 7893TIP3    H245095   5.349   6.087  15.522 -1.4282  0.1473  2.4235
 7894TIP3   OH245096   6.236   4.044  13.352 -0.4661 -0.1136 -0.2510
 7894TIP3    H145097   6.170   4.110  13.375 -0.5924  1.2028 -4.1128
 7894TIP3    H245098   6.192   3.961  13.365 -0.7445  0.4792  3.3837
 7895TIP3   OH245099   4.761   2.920  12.295  0.4565 -0.3212 -0.0079
 7895TIP3    H145100   4.854   2.916  12.277  0.3870 -2.6884  0.0254
 7895TIP3    H245101   4.720   2.868  12.226 -0.8895  1.1554 -0.3462
 7896TIP3   OH245102   2.767   5.422  13.032 -0.4403 -0.5093  0.1677
 7896TIP3    H145103   2.711   5.486  12.987  1.1307  1.0834  0.4361
 7896TIP3    H245104   2.753   5.340  12.984 -0.2366  0.7114 -2.0510
 7897TIP3   OH245105   6.249   2.051  11.805  0.3238 -0.6377 -0.4677
 7897TIP3    H145106   6.269   2.144  11.795 -2.1170  0.3673  2.9098
 7897TIP3    H245107   6.204   2.027  11.723 -0.1176  1.4922 -0.8820
 7898TIP3   OH245108   0.076   2.257  13.955 -0.3756  0.2731 -0.0691
 7898TIP3    H145109   0.045   2.342  13.924  0.2563  0.9044  0.9874
 7898TIP3    H245110   0.020   2.236  14.030 -0.0684  0.0898  0.1111
 7899TIP3   OH245111   2.984   4.853  16.999  0.5149  0.2121 -0.5107
 7899TIP3    H145112   3.028   4.781  16.954  1.9357 -1.8128  3.8357
 7899TIP3    H245113   2.916   4.810  17.052  0.5800  2.1569  1.2287
 7900TIP3   OH245114   0.512   3.355   3.483 -0.1875  0.4125  0.5573
 7900TIP3    H145115   0.507   3.373   3.390 -0.1694  1.6273  0.7801
 7900TIP3    H245116   0.507   3.442   3.525 -1.0783 -0.1640  1.7073
 7901TIP3   OH245117   5.942   3.745   0.671 -0.0583 -0.6837  0.7795
 7901TIP3    H145118   5.909   3.687   0.739 -0.1602 -2.2030 -0.5163
 7901TIP3    H245119   5.865   3.794   0.642 -0.4036 -1.3770  0.4941
 7902TIP3   OH245120   0.266   2.536  12.912 -0.2597 -0.6849 -0.2419
 7902TIP3    H145121   0.329   2.533  12.985 -1.3058  1.2892  0.7715
 7902TIP3    H245122   0.214   2.456  12.924 -0.3901 -0.4126  1.1512
 7903TIP3   OH245123   5.510   1.718   3.610 -0.4982 -0.1437 -0.1725
 7903TIP3    H145124   5.537   1.754   3.695  2.8112 -0.0287 -1.1930
 7903TIP3    H245125   5.485   1.794   3.558  0.6422  0.1228 -0.3453
 7904TIP3   OH245126   4.427   2.705   3.701  0.1494  0.4046 -0.3443
 7904TIP3    H145127   4.423   2.705   3.605  0.6421  1.6604 -0.3813
 7904TIP3    H245128   4.362   2.640   3.728  1.2278 -1.2145 -1.5545
 7905TIP3   OH245129   4.841   1.339   0.491 -0.0465  0.7069 -0.2998
 7905TIP3    H145130   4.933   1.366   0.485 -0.0809  0.4550 -2.0845
 7905TIP3    H245131   4.845   1.248   0.520  0.3137  0.3507 -1.4457
 7906TIP3   OH245132   0.424   1.160  15.077 -0.2814 -0.0628  0.0751
 7906TIP3    H145133   0.381   1.173  15.162 -1.4445  1.0841 -0.6633
 7906TIP3    H245134   0.503   1.111  15.097 -0.3519  0.5268  1.8874
 7907TIP3   OH245135   2.954   0.982   0.855  0.3161  0.3803  0.3271
 7907TIP3    H145136   2.971   0.889   0.869  0.1452 -0.1093 -2.5921
 7907TIP3    H245137   3.039   1.018   0.829 -0.1277  0.5930 -0.8354
 7908TIP3   OH245138   5.008   1.877   3.659  0.2522  0.3858 -0.6582
 7908TIP3    H145139   5.051   1.813   3.715 -0.7088  0.3396  0.0527
 7908TIP3    H245140   5.078   1.937   3.632  1.2896 -1.3113 -1.8649
 7909TIP3   OH245141   5.169   5.919   2.945 -0.2371  0.3571 -0.2285
 7909TIP3    H145142   5.114   5.994   2.968  0.2045  0.6741 -0.2203
 7909TIP3    H245143   5.124   5.879   2.870 -0.8594  0.2063  0.2211
 7910TIP3   OH245144   3.057   4.838  15.239  0.2985 -0.0649 -0.4382
 7910TIP3    H145145   2.970   4.807  15.214 -0.4885  0.8869  1.0789
 7910TIP3    H245146   3.046   4.931  15.256  1.9388  0.3846 -1.6379
 7911TIP3   OH245147   0.642   3.937  13.712 -0.0135 -0.6576 -0.1216
 7911TIP3    H145148   0.628   3.848  13.743 -0.4174 -1.2627 -1.9806
 7911TIP3    H245149   0.735   3.942  13.692  0.1286 -0.4611  0.5834
 7912TIP3   OH245150   2.282   6.490   4.712 -0.1268 -0.1824  0.0452
 7912TIP3    H145151   2.195   6.465   4.680 -0.5396 -0.8747  1.6749
 7912TIP3    H245152   2.342   6.448   4.650 -0.9463  1.5263 -1.9575
 7913TIP3   OH245153   3.327   4.857   1.168 -0.4067  0.0164 -0.1769
 7913TIP3    H145154   3.358   4.888   1.083  1.4782 -0.7255  0.2059
 7913TIP3    H245155   3.351   4.764   1.170 -3.5194 -0.8485 -0.2084
 7914TIP3   OH245156   5.022   2.915   0.429  0.0179 -0.5619 -0.7237
 7914TIP3    H145157   5.081   2.986   0.453 -1.4855  0.0941  1.1807
 7914TIP3    H245158   4.986   2.884   0.512  1.6893 -4.5482 -1.3674
 7915TIP3   OH245159   6.204   3.720  15.965  0.5688 -0.2228 -0.3991
 7915TIP3    H145160   6.148   3.791  15.934 -0.0392  0.0049  1.1871
 7915TIP3    H245161   6.165   3.641  15.928  0.1172  0.0777 -0.5681
 7916TIP3   OH245162   2.939   3.354   6.493 -0.1731  0.1673  0.5695
 7916TIP3    H145163   2.986   3.273   6.476  1.1204  1.1763 -0.8338
 7916TIP3    H245164   2.846   3.329   6.488  0.2017 -1.0549 -0.8232
 7917TIP3   OH245165   4.034   0.759  13.425  0.0812 -0.3035 -0.3095
 7917TIP3    H145166   3.946   0.795  13.438  0.3281  0.1129  0.2345
 7917TIP3    H245167   4.030   0.673  13.466  0.6313  0.7007  1.9305
 7918TIP3   OH245168   0.420   6.682   1.797 -0.0444  0.0393 -0.2335
 7918TIP3    H145169   0.329   6.653   1.801  0.1249 -0.1301  3.6151
 7918TIP3    H245170   0.471   6.601   1.800  0.2998  0.1844 -1.5549
 7919TIP3   OH245171   6.443   0.908  14.132 -0.3044 -0.0289 -0.2894
 7919TIP3    H145172   6.531   0.896  14.096 -0.6396  0.6959 -1.3759
 7919TIP3    H245173   6.444   0.997  14.168 -0.0726 -0.6309  1.2394
 7920TIP3   OH245174   2.672   6.615  11.599 -0.0212  0.1049 -0.4629
 7920TIP3    H145175   2.678   6.666  11.518 -0.0214  0.0179 -0.5180
 7920TIP3    H245176   2.592   6.646  11.641  0.5467  0.9096  0.0347
 7921TIP3   OH245177   4.553   2.280   5.777 -0.4495  0.2170 -0.3322
 7921TIP3    H145178   4.519   2.369   5.773 -0.9464  0.1089  1.1526
 7921TIP3    H245179   4.496   2.230   5.719 -1.3678  0.4953  0.3199
 7922TIP3   OH245180   1.616   0.869  12.457  0.7406  0.3108  0.4080
 7922TIP3    H145181   1.586   0.930  12.524 -0.5056 -1.3709  1.4079
 7922TIP3    H245182   1.711   0.865  12.470  0.7553  1.5333  0.7447
 7923TIP3   OH245183   5.423   2.854  10.613  0.6191  0.1774 -0.3234
 7923TIP3    H145184   5.349   2.852  10.552  1.5382 -0.6051 -1.4375
 7923TIP3    H245185   5.402   2.925  10.673 -2.0115 -1.3273  0.6365
 7924TIP3   OH245186   3.883   0.177  11.862 -0.1416  0.0449  0.0527
 7924TIP3    H145187   3.820   0.163  11.791  2.7773  1.0784 -2.8721
 7924TIP3    H245188   3.920   0.090  11.878 -1.1470 -0.2790  0.7160
 7925TIP3   OH245189   3.590   4.337   4.159  0.4474 -0.6908  0.3282
 7925TIP3    H145190   3.604   4.356   4.252  1.6951  0.4459 -0.0686
 7925TIP3    H245191   3.664   4.380   4.115 -1.3210  0.6642 -1.3867
 7926TIP3   OH245192   4.681   1.606  11.363  0.1540 -0.3014 -0.1766
 7926TIP3    H145193   4.684   1.517  11.329 -0.8979 -0.3155 -0.2577
 7926TIP3    H245194   4.688   1.662  11.285  0.3497 -0.3147 -0.1684
 7927TIP3   OH245195   3.488   1.672   5.146  0.8991 -0.4990 -0.2558
 7927TIP3    H145196   3.398   1.695   5.121  0.7896  1.6395  1.8776
 7927TIP3    H245197   3.532   1.654   5.063 -1.0349  0.2109 -1.4861
 7928TIP3   OH245198   0.297   3.865  16.726 -0.8881 -0.0241 -0.2830
 7928TIP3    H145199   0.286   3.959  16.733 -0.6583 -0.0170  0.0044
 7928TIP3    H245200   0.249   3.829  16.800  1.9266  0.0817  1.6804
 7929TIP3   OH245201   6.364   0.995  13.353  0.0523 -0.1459  0.3691
 7929TIP3    H145202   6.451   0.985  13.316 -0.5083 -0.9350 -0.7891
 7929TIP3    H245203   6.339   0.907  13.380 -0.4606  0.0435  0.5257
 7930TIP3   OH245204   5.090   0.300   0.578 -0.0120  0.1676 -0.2710
 7930TIP3    H145205   5.075   0.241   0.652  0.0073  0.9450  0.3758
 7930TIP3    H245206   5.170   0.348   0.602 -0.0563  0.4848 -0.7525
 7931TIP3   OH245207   0.042   0.650   5.267  0.2492 -0.1527  0.1771
 7931TIP3    H145208   0.044   0.731   5.217 -0.9912 -0.7485 -0.8545
 7931TIP3    H245209   0.016   0.676   5.355 -2.8250  0.2527 -0.8183
 7932TIP3   OH245210   6.584   2.114  13.498 -0.4751  0.1390 -0.3639
 7932TIP3    H145211   6.638   2.103  13.576 -1.4270  0.7446  0.3923
 7932TIP3    H245212   6.497   2.135  13.532 -1.3774 -1.5845 -1.5377
 7933TIP3   OH245213   0.945   5.805   4.913 -0.2398 -0.0841 -0.4336
 7933TIP3    H145214   0.913   5.819   4.824 -1.1084  1.4429  0.1115
 7933TIP3    H245215   0.875   5.756   4.956  0.7807 -2.0771 -0.9715
 7934TIP3   OH245216   1.295   1.418   1.446  0.5043  0.3318 -0.0940
 7934TIP3    H145217   1.260   1.462   1.523  0.2294 -0.4392  0.2300
 7934TIP3    H245218   1.359   1.356   1.481  0.3853 -0.0129 -0.4821
 7935TIP3   OH245219   1.295   3.664  11.339 -0.9959 -0.2380 -0.2983
 7935TIP3    H145220   1.320   3.730  11.403  0.2267 -0.8901 -0.0939
 7935TIP3    H245221   1.325   3.700  11.255  1.7519 -1.5457  0.0827
 7936TIP3   OH245222   6.468   0.218  13.308  0.4555  0.3126  0.4334
 7936TIP3    H145223   6.473   0.235  13.214  0.1202 -0.2732  0.3041
 7936TIP3    H245224   6.378   0.239  13.332  0.1415 -0.8784  0.3424
 7937TIP3   OH245225   6.069   2.193   1.139  0.7317 -0.5233 -0.5840
 7937TIP3    H145226   6.152   2.226   1.174  0.1066 -0.8851  1.2753
 7937TIP3    H245227   6.076   2.208   1.044  2.9257 -0.5775 -0.4712
 7938TIP3   OH245228   0.965   4.355   3.767  0.2038 -0.3782 -0.4752
 7938TIP3    H145229   0.974   4.367   3.673  1.4873 -0.7537 -0.4076
 7938TIP3    H245230   0.905   4.425   3.794 -1.2224 -1.0852 -1.7478
 7939TIP3   OH245231   5.467   3.881   6.037 -0.4835 -0.1321  0.0508
 7939TIP3    H145232   5.379   3.854   6.011 -0.3646 -0.0874 -0.4054
 7939TIP3    H245233   5.485   3.960   5.986 -0.1321 -0.2109  0.0488
 7940TIP3   OH245234   6.352   2.325   0.534 -0.4126  0.0138  0.0898
 7940TIP3    H145235   6.337   2.297   0.444 -1.8803 -0.3783  0.4525
 7940TIP3    H245236   6.266   2.320   0.576  0.0086  1.4619  1.1608
 7941TIP3   OH245237   1.949   3.476   1.773  0.1200 -0.0024  0.4035
 7941TIP3    H145238   1.865   3.433   1.787 -0.1226  0.2637 -0.1860
 7941TIP3    H245239   1.987   3.484   1.860 -0.2004 -0.6553  0.6063
 7942TIP3   OH245240   0.260   6.253   4.444  0.2639 -0.1714  0.0416
 7942TIP3    H145241   0.277   6.206   4.526  0.6688 -0.8541 -0.4311
 7942TIP3    H245242   0.304   6.337   4.454  1.1307 -0.6344  0.1423
 7943TIP3   OH245243   3.764   6.412  11.267  0.5199 -0.2807 -0.4103
 7943TIP3    H145244   3.835   6.348  11.276  1.0851  0.3730 -0.1949
 7943TIP3    H245245   3.782   6.458  11.185 -0.2469 -0.8225 -0.8993
 7944TIP3   OH245246   4.072   4.145   4.525 -0.0677 -0.4024  0.0588
 7944TIP3    H145247   4.038   4.071   4.576 -0.5083 -1.5140 -1.7934
 7944TIP3    H245248   4.117   4.103   4.451  1.1597  1.1599 -0.0884
 7945TIP3   OH245249   2.798   5.006   6.742  0.3101  0.6515  0.3036
 7945TIP3    H145250   2.884   5.035   6.712  0.3848  0.2952  0.1640
 7945TIP3    H245251   2.801   4.911   6.734 -0.0685  0.6321  0.3769
 7946TIP3   OH245252   0.011   3.225   3.807  0.5820  0.0817  0.6241
 7946TIP3    H145253   0.091   3.271   3.780  0.3362  0.3985  0.4395
 7946TIP3    H245254   0.038   3.133   3.814  0.4974 -0.0941 -1.2683
 7947TIP3   OH245255   4.795   3.461  16.315 -0.0356 -0.2684  0.0359
 7947TIP3    H145256   4.883   3.479  16.348  0.1847  0.7846 -1.0654
 7947TIP3    H245257   4.747   3.543  16.328 -0.7214 -0.6907  0.1974
 7948TIP3   OH245258   6.459   2.879   1.614 -0.0870  0.6179  0.4361
 7948TIP3    H145259   6.375   2.837   1.597  0.8894 -2.1014  1.8273
 7948TIP3    H245260   6.491   2.906   1.528 -0.1752 -2.8468 -0.7815
 7949TIP3   OH245261   2.229   4.078   4.663  0.1172 -0.4047  0.2987
 7949TIP3    H145262   2.277   4.024   4.725 -1.0628 -0.5354  1.1216
 7949TIP3    H245263   2.138   4.048   4.670 -0.1131 -0.0596 -1.1074
 7950TIP3   OH245264   4.053   2.075  13.850 -0.0746 -0.0604 -0.0740
 7950TIP3    H145265   4.096   1.990  13.859  0.2239  0.2885  2.1141
 7950TIP3    H245266   3.989   2.063  13.780  0.5850 -1.8238 -0.3877
 7951TIP3   OH245267   1.835   0.612   2.836 -0.3205  0.4325 -0.1300
 7951TIP3    H145268   1.777   0.688   2.836 -0.4687  0.3197 -0.1893
 7951TIP3    H245269   1.903   0.634   2.899 -2.3343 -0.9149  2.6013
 7952TIP3   OH245270   4.148   6.519   0.475 -0.0072  0.1159  0.7391
 7952TIP3    H145271   4.076   6.483   0.423 -0.5239  3.4371 -0.9634
 7952TIP3    H245272   4.104   6.576   0.539  1.0947  2.4383 -0.5373
 7953TIP3   OH245273   6.596   2.644  11.220 -0.0822 -0.1221 -0.2201
 7953TIP3    H145274   6.522   2.593  11.186 -0.5813 -0.0856  0.7894
 7953TIP3    H245275   6.654   2.656  11.144 -0.6500 -0.9659 -0.8002
 7954TIP3   OH245276   2.583   6.042  13.400 -0.6304 -0.2849  0.1692
 7954TIP3    H145277   2.514   5.976  13.398 -0.8772 -0.0262  0.1767
 7954TIP3    H245278   2.630   6.025  13.482  0.1804 -1.3474 -0.4984
 7955TIP3   OH245279   3.245   6.001   0.328  0.0233 -0.4939 -0.1776
 7955TIP3    H145280   3.248   5.929   0.392 -1.3140  0.6768  1.2458
 7955TIP3    H245281   3.213   5.960   0.248  0.0554 -1.6467  0.3835
 7956TIP3   OH245282   3.742   4.246   5.309 -0.0801  0.6316  0.9813
 7956TIP3    H145283   3.696   4.167   5.280  1.7132  0.2307 -0.8406
 7956TIP3    H245284   3.725   4.310   5.240  0.3294  1.1496  1.3561
 7957TIP3   OH245285   6.007   5.422  14.087  0.2409 -0.1776 -0.2859
 7957TIP3    H145286   5.944   5.447  14.020 -2.3571 -2.1244  1.3370
 7957TIP3    H245287   5.954   5.401  14.164  2.9614 -0.5672  1.5731
 7958TIP3   OH245288   4.207   6.657   1.241  0.0610 -0.0330  0.9073
 7958TIP3    H145289   4.129   6.641   1.188  1.8339 -0.9301 -1.5445
 7958TIP3    H245290   4.206   6.588   1.307 -0.2489 -1.1532 -0.2549
 7959TIP3   OH245291   2.714   0.403   2.784 -0.2556 -0.1421 -0.5926
 7959TIP3    H145292   2.733   0.374   2.873 -1.0649  0.4070 -0.2387
 7959TIP3    H245293   2.680   0.324   2.740 -1.9829  0.1261  0.2279
 7960TIP3   OH245294   2.010   1.945  13.396  0.9466  0.0375  0.4784
 7960TIP3    H145295   1.943   2.012  13.384  1.5655  0.7319  0.9163
 7960TIP3    H245296   2.082   1.971  13.339  1.9241  0.7429  1.9955
 7961TIP3   OH245297   4.729   0.037  14.725 -0.0740  0.1785  0.4147
 7961TIP3    H145298   4.691   0.013  14.809 -0.2147  0.0481  0.3141
 7961TIP3    H245299   4.760   0.127  14.737 -2.4862  1.1205 -0.1886
 7962TIP3   OH245300   1.513   1.985   0.165 -0.0717  0.2576  0.3018
 7962TIP3    H145301   1.530   1.916   0.102  1.2707 -0.3928  1.3570
 7962TIP3    H245302   1.482   2.059   0.113 -1.7534 -1.2023 -0.8116
 7963TIP3   OH245303   6.366   0.164   0.224  0.1256 -0.8531 -0.4332
 7963TIP3    H145304   6.310   0.107   0.172 -1.1563  0.4241 -0.4819
 7963TIP3    H245305   6.325   0.165   0.311  1.1556 -1.4248  0.0662
 7964TIP3   OH245306   0.865   1.642  14.809  0.0865  0.1776  0.4604
 7964TIP3    H145307   0.950   1.675  14.783 -0.5999  0.8519 -0.9384
 7964TIP3    H245308   0.878   1.547  14.818  0.5837  0.0601 -1.3575
 7965TIP3   OH245309   1.527   0.117   2.682  0.3726 -0.1939  0.3000
 7965TIP3    H145310   1.609   0.109   2.633 -0.9409 -2.6998 -1.5752
 7965TIP3    H245311   1.505   0.209   2.676  1.3755 -0.0589 -1.9933
 7966TIP3   OH245312   5.320   1.366  10.334 -0.5588 -0.2793  0.5967
 7966TIP3    H145313   5.300   1.457  10.312  1.7022  0.4510  1.4994
 7966TIP3    H245314   5.289   1.356  10.424 -0.5361 -0.3135  0.5998
 7967TIP3   OH245315   6.377   5.121  12.429  0.3213 -0.1765 -0.0007
 7967TIP3    H145316   6.344   5.155  12.512  0.9699 -3.1062  1.5086
 7967TIP3    H245317   6.316   5.050  12.407  0.9765 -0.3358 -1.3234
 7968TIP3   OH245318   4.686   5.694   4.140 -0.4628  0.3281  0.1406
 7968TIP3    H145319   4.683   5.788   4.160 -0.1148  0.3540  0.0693
 7968TIP3    H245320   4.734   5.688   4.058 -1.2709  0.1546 -0.3279
 7969TIP3   OH245321   6.120   1.440   5.477  0.4214 -0.6589 -0.1944
 7969TIP3    H145322   6.145   1.522   5.519  0.4750 -0.8379  0.1262
 7969TIP3    H245323   6.025   1.447   5.466 -0.0366 -1.8235  2.6333
 7970TIP3   OH245324   3.737   3.312   1.696  0.1824  0.3886  0.3009
 7970TIP3    H145325   3.823   3.331   1.658  0.7686 -1.0318  0.8809
 7970TIP3    H245326   3.732   3.217   1.697 -1.4399  0.4597  0.2163
 7971TIP3   OH245327   0.186   6.502   2.754 -0.1306 -0.1462 -0.0262
 7971TIP3    H145328   0.225   6.506   2.667 -0.4912 -1.6696 -0.2719
 7971TIP3    H245329   0.111   6.561   2.749  0.4595  0.5908 -0.4141
 7972TIP3   OH245330   5.130   2.769  14.010  0.0813 -0.0641  0.2586
 7972TIP3    H145331   5.184   2.837  13.969 -0.4047  0.3199  0.2409
 7972TIP3    H245332   5.071   2.741  13.940  0.3988 -0.6275  0.2188
 7973TIP3   OH245333   2.721   5.836   0.881  0.3125  0.2760  0.1244
 7973TIP3    H145334   2.664   5.858   0.807  0.7761  1.1958  0.0409
 7973TIP3    H245335   2.666   5.782   0.938 -0.1127 -0.2726 -0.7891
 7974TIP3   OH245336   3.509   3.086  12.436 -0.5321 -0.0569 -0.0526
 7974TIP3    H145337   3.540   3.118  12.351 -0.2779 -0.7489 -0.2239
 7974TIP3    H245338   3.540   2.995  12.440  0.9469  0.5174  1.5336
 7975TIP3   OH245339   6.404   6.500   0.980  0.5997 -0.0851 -0.0017
 7975TIP3    H145340   6.469   6.431   0.967 -0.6345 -0.9619 -1.5696
 7975TIP3    H245341   6.433   6.570   0.921  0.4125 -0.2652 -0.3058
 7976TIP3   OH245342   0.325   2.261   5.482 -0.0038  0.2940 -0.1381
 7976TIP3    H145343   0.298   2.191   5.422  0.1689  1.0050 -1.0512
 7976TIP3    H245344   0.244   2.285   5.528  0.2414 -1.6137  1.3735
 7977TIP3   OH245345   1.169   0.778  15.603  0.0703 -0.5849  0.1770
 7977TIP3    H145346   1.096   0.820  15.557  0.8506  0.2043 -0.3712
 7977TIP3    H245347   1.244   0.835  15.585  0.2288  0.2607  3.1911
 7978TIP3   OH245348   6.324   0.307   2.543 -0.1575 -0.4826 -0.1441
 7978TIP3    H145349   6.381   0.267   2.608  0.2424  0.1163 -0.1229
 7978TIP3    H245350   6.355   0.273   2.459  0.6731  0.3608 -0.1914
 7979TIP3   OH245351   6.203   4.558   4.146  0.2321  0.4660 -0.2157
 7979TIP3    H145352   6.230   4.485   4.202 -1.8178  0.7957  1.2439
 7979TIP3    H245353   6.237   4.536   4.059  3.8028  0.1095  1.1906
 7980TIP3   OH245354   1.488   1.624  13.473  0.8318 -0.6294 -0.0504
 7980TIP3    H145355   1.501   1.639  13.566  1.0911 -1.7790  0.1183
 7980TIP3    H245356   1.525   1.701  13.430  1.0127 -0.2498  0.7855
 7981TIP3   OH245357   2.500   2.962  13.352 -0.1929 -0.4883 -0.4199
 7981TIP3    H145358   2.523   2.979  13.444  0.2806 -1.8046 -0.2732
 7981TIP3    H245359   2.499   2.866  13.346 -0.0482 -0.4023 -1.8323
 7982TIP3   OH245360   4.544   1.798   5.666  0.1421 -0.3223 -0.1913
 7982TIP3    H145361   4.519   1.706   5.677  0.1557 -0.4266 -0.9728
 7982TIP3    H245362   4.635   1.794   5.636  0.3758 -0.0263  0.4644
 7983TIP3   OH245363   2.596   2.052   6.073 -0.1657  0.5111  0.2662
 7983TIP3    H145364   2.647   2.060   6.154  0.5877  1.3530 -0.2789
 7983TIP3    H245365   2.661   2.026   6.007 -0.3257  2.1432 -0.5590
 7984TIP3   OH245366   0.346   5.015  11.778 -0.0020  0.0276 -0.0496
 7984TIP3    H145367   0.429   5.032  11.733 -0.6714  1.4381 -0.7878
 7984TIP3    H245368   0.302   4.951  11.722 -0.4286  1.0681 -0.9114
 7985TIP3   OH245369   2.645   4.211   2.104  0.1549  0.0571  0.2722
 7985TIP3    H145370   2.633   4.236   2.012 -0.3073  0.3823  0.4216
 7985TIP3    H245371   2.612   4.121   2.109 -0.5225  0.3020  0.2805
 7986TIP3   OH245372   5.754   2.933  16.376  0.0880 -0.6921  0.3247
 7986TIP3    H145373   5.835   2.886  16.394 -0.1740 -0.3908  2.4798
 7986TIP3    H245374   5.744   2.993  16.450 -1.7418 -0.2297 -0.2607
 7987TIP3   OH245375   3.112   6.295  15.435 -0.1046 -0.2165 -0.1335
 7987TIP3    H145376   3.141   6.322  15.523 -1.6159 -0.1426  0.3590
 7987TIP3    H245377   3.136   6.203  15.429  2.7249  0.5191 -0.8103
 7988TIP3   OH245378   1.957   1.048  14.829  0.1821 -0.1573 -0.0015
 7988TIP3    H145379   1.960   0.982  14.760  0.2610  0.5433 -0.6748
 7988TIP3    H245380   1.978   1.131  14.785  2.8596 -0.0687  1.3265
 7989TIP3   OH245381   0.044   1.040   3.224  0.1150  0.0585  0.0266
 7989TIP3    H145382   0.012   1.123   3.188  0.4395  1.2730  2.4123
 7989TIP3    H245383  -0.020   1.018   3.292  1.2225 -0.5004  0.8916
 7990TIP3   OH245384   4.835   3.934   2.795 -0.0898 -0.2279 -0.6045
 7990TIP3    H145385   4.921   3.897   2.816 -0.2936 -0.2356  0.2323
 7990TIP3    H245386   4.840   4.026   2.822  0.2477  0.2317 -2.2147
 7991TIP3   OH245387   0.990   3.112  15.434 -0.1499 -0.3202 -0.3081
 7991TIP3    H145388   0.956   3.040  15.379 -2.2828  1.3359 -1.2466
 7991TIP3    H245389   0.960   3.091  15.522 -2.6673  0.4708 -0.9250
 7992TIP3   OH245390   5.440   2.052   6.048  0.5442  0.1649  0.0695
 7992TIP3    H145391   5.405   1.992   5.982 -1.5744  1.2625  0.1492
 7992TIP3    H245392   5.367   2.111   6.067  1.8816  1.3282  1.6692
 7993TIP3   OH245393   4.527   3.363  15.677  0.1722 -0.3589 -0.0042
 7993TIP3    H145394   4.510   3.424  15.749 -0.5781 -0.0735 -0.4156
 7993TIP3    H245395   4.622   3.362  15.669  0.1345  2.1221 -1.1283
 7994TIP3   OH245396   0.261   2.798   5.066  0.1065 -0.3792  0.3101
 7994TIP3    H145397   0.296   2.712   5.088  1.0696 -0.0893 -0.0604
 7994TIP3    H245398   0.322   2.833   5.001 -0.4090  0.4856  0.2813
 7995TIP3   OH245399   5.710   0.712  14.203 -0.4016  0.0118 -0.3347
 7995TIP3    H145400   5.670   0.762  14.274 -0.5238 -0.0213 -0.3794
 7995TIP3    H245401   5.783   0.766  14.173 -0.9371  0.4750 -0.8278
 7996TIP3   OH245402   4.068   1.236  11.085  0.1319 -0.5961  0.3167
 7996TIP3    H145403   3.992   1.178  11.097  1.1572 -1.8328  1.0056
 7996TIP3    H245404   4.058   1.270  10.996 -2.2632  0.8048  1.0661
 7997TIP3   OH245405   3.386   6.625   3.003  0.0079 -0.2912  0.2503
 7997TIP3    H145406   3.401   6.596   3.093 -0.7343 -1.6909 -0.0686
 7997TIP3    H245407   3.385   6.545   2.952  0.2073  0.4847 -0.9840
 7998TIP3   OH245408   0.932   5.710   1.349 -0.6903 -0.0437  0.4414
 7998TIP3    H145409   0.929   5.713   1.445  0.0794  1.2872  0.4213
 7998TIP3    H245410   0.855   5.760   1.321 -1.8566 -1.8130  0.3533
 7999TIP3   OH245411   1.788   1.675   2.049 -0.1835 -0.2208 -0.5245
 7999TIP3    H145412   1.778   1.613   2.121 -2.3056 -0.7368 -1.2051
 7999TIP3    H245413   1.727   1.746   2.070 -0.3903 -0.0943 -1.5084
 8000TIP3   OH245414   0.895   1.315   1.288 -0.6234  0.0582 -0.3204
 8000TIP3    H145415   0.871   1.407   1.305 -0.0889  0.3955 -1.3405
 8000TIP3    H245416   0.962   1.320   1.220 -0.2939 -1.0766 -0.0860
 8001TIP3   OH245417   6.328   1.759   5.182  0.3958 -0.4953 -0.3943
 8001TIP3    H145418   6.336   1.664   5.171 -0.0137 -0.5393 -0.2982
 8001TIP3    H245419   6.248   1.771   5.232 -0.1343 -0.0458 -1.3366
 8002TIP3   OH245420   3.193   6.686   0.835 -0.7595 -0.2002 -0.3794
 8002TIP3    H145421   3.186   6.661   0.742 -1.3384 -2.3374  0.2140
 8002TIP3    H245422   3.130   6.629   0.880 -0.0394  0.3931  1.4054
 8003TIP3   OH245423   1.344   6.656  12.492  0.5654 -0.5386 -0.4109
 8003TIP3    H145424   1.254   6.631  12.473  0.4574 -0.7409  0.3755
 8003TIP3    H245425   1.343   6.751  12.498  0.2423 -0.5905  0.4250
 8004TIP3   OH245426   2.562   0.164  13.611 -0.2753  0.0451 -0.1828
 8004TIP3    H145427   2.558   0.132  13.702  0.1334  1.3621  0.3117
 8004TIP3    H245428   2.476   0.143  13.575 -0.6976  0.1380  0.7321
 8005TIP3   OH245429   6.499   4.583   3.286 -0.2952  0.1169  0.2729
 8005TIP3    H145430   6.518   4.495   3.320  2.0879  0.1624 -0.8191
 8005TIP3    H245431   6.424   4.571   3.229  0.8698 -1.5115 -0.9633
 8006TIP3   OH245432   3.074   6.464   1.590 -0.0968 -0.1731 -0.2769
 8006TIP3    H145433   3.096   6.386   1.642  2.1840 -0.3855 -1.4861
 8006TIP3    H245434   3.080   6.536   1.653  1.7194 -0.5346 -0.0069
 8007TIP3   OH245435   5.236   5.602  13.209 -0.7758 -0.4229  0.2981
 8007TIP3    H145436   5.256   5.508  13.205  0.0739 -0.2387 -0.1470
 8007TIP3    H245437   5.319   5.644  13.186 -0.8823  0.4572  1.4957
 8008TIP3   OH245438   5.069   1.426   2.962 -0.1283  0.2608  0.0278
 8008TIP3    H145439   5.035   1.356   2.907 -3.3108  0.8649  1.1440
 8008TIP3    H245440   5.077   1.501   2.903  1.1157 -0.3903 -0.6531
 8009TIP3   OH245441   4.880   1.580   2.089  0.8120  0.4057  0.2673
 8009TIP3    H145442   4.899   1.522   2.015 -0.8378 -1.3734  1.2108
 8009TIP3    H245443   4.921   1.663   2.065  1.6511 -0.6053 -1.9299
 8010TIP3   OH245444   4.312   0.831  12.438  0.0723  0.1482  0.3774
 8010TIP3    H145445   4.322   0.899  12.372 -2.6150 -0.0549 -0.2527
 8010TIP3    H245446   4.301   0.750  12.389  0.5350 -0.3680  1.1063
 8011TIP3   OH245447   0.098   0.160  15.022  0.0062  0.8608 -0.0472
 8011TIP3    H145448   0.134   0.153  14.933  0.3206  1.5084  0.0240
 8011TIP3    H245449   0.166   0.123  15.078 -0.4907 -0.2092 -0.1356
 8012TIP3   OH245450   0.490   2.073   0.391  0.0203 -0.2501 -0.0467
 8012TIP3    H145451   0.530   2.119   0.465  0.1549  1.8887 -1.3973
 8012TIP3    H245452   0.550   2.088   0.318 -1.3881 -0.1534 -1.1975
 8013TIP3   OH245453   6.432   2.067  14.274 -0.2218  0.7109 -0.2426
 8013TIP3    H145454   6.406   1.980  14.304 -1.6818  1.1537 -0.2091
 8013TIP3    H245455   6.527   2.067  14.283 -0.0283 -1.4466 -1.7401
 8014TIP3   OH245456   6.070   1.977  13.998 -0.0682 -0.7085  0.0055
 8014TIP3    H145457   6.041   2.048  14.055  0.0225 -0.6410 -0.0309
 8014TIP3    H245458   6.002   1.910  14.006  0.4898 -1.1663  1.0439
 8015TIP3   OH245459   1.233   6.173   2.312  0.1859  0.4062 -0.3023
 8015TIP3    H145460   1.139   6.153   2.315  0.0079  0.6673 -2.7526
 8015TIP3    H245461   1.237   6.267   2.332 -0.1977  0.6198 -1.1710
 8016TIP3   OH245462   4.244   5.263  15.763  0.1642 -0.3668  0.0158
 8016TIP3    H145463   4.274   5.342  15.808  0.4346  0.9107 -2.3062
 8016TIP3    H245464   4.173   5.293  15.706 -0.6406 -2.0565  0.0758
 8017TIP3   OH245465   0.365   4.633  16.795 -0.2739 -0.3902  0.4759
 8017TIP3    H145466   0.296   4.687  16.756 -0.9056 -1.3089  0.3053
 8017TIP3    H245467   0.371   4.556  16.739  2.6453  0.8044 -0.9749
 8018TIP3   OH245468   4.904   3.349   2.875  0.0386  0.3890  0.2799
 8018TIP3    H145469   4.817   3.328   2.844  0.1376 -0.5452  0.6192
 8018TIP3    H245470   4.896   3.347   2.971  0.6614 -0.6944  0.3157
 8019TIP3   OH245471   5.160   2.004   2.731 -0.3272  0.4796 -0.0283
 8019TIP3    H145472   5.251   1.999   2.761  0.4375  0.9882 -2.1622
 8019TIP3    H245473   5.155   1.942   2.659 -1.7888  0.1832  0.3153
 8020TIP3   OH245474   2.243   2.490   0.578  0.3689 -0.1022  0.1337
 8020TIP3    H145475   2.172   2.509   0.639 -0.0416 -0.7020 -0.1509
 8020TIP3    H245476   2.239   2.560   0.514  0.1846 -0.0008  0.2559
 8021TIP3   OH245477   6.074   5.273   2.641  0.1745 -0.0963  1.0593
 8021TIP3    H145478   5.980   5.256   2.638  0.1794 -0.4680  2.8709
 8021TIP3    H245479   6.114   5.187   2.630  0.2917 -0.0947  1.4724
 8022TIP3   OH245480   2.783   2.084  12.956  0.0142  0.2585  0.4190
 8022TIP3    H145481   2.836   2.064  13.033  2.2254 -0.0465 -1.1385
 8022TIP3    H245482   2.759   1.999  12.920 -0.3153  0.4092  0.2722
 8023TIP3   OH245483   4.371   2.467  12.966 -0.3442 -0.3548 -0.0138
 8023TIP3    H145484   4.464   2.489  12.964 -0.5496  0.4669 -2.0439
 8023TIP3    H245485   4.341   2.481  12.876 -2.8623  1.3619  1.0229
 8024TIP3   OH245486   6.051   0.665   2.661  0.2963 -0.3499  0.3238
 8024TIP3    H145487   6.072   0.599   2.595 -0.3053 -0.5662  0.3477
 8024TIP3    H245488   5.997   0.619   2.725  1.1715 -0.2378  1.1625
 8025TIP3   OH245489   2.484   3.524  13.296 -0.0073 -0.8801 -0.3728
 8025TIP3    H145490   2.395   3.512  13.261 -0.1347  0.9880 -0.7320
 8025TIP3    H245491   2.530   3.443  13.274 -1.7314 -2.0347  0.1640
 8026TIP3   OH245492   5.901   4.563  12.313  0.1373 -1.0835  0.0071
 8026TIP3    H145493   5.814   4.552  12.350  0.1638  0.8433  0.7003
 8026TIP3    H245494   5.903   4.503  12.238 -1.8913 -0.8692 -0.2448
 8027TIP3   OH245495   1.119   5.663  11.986 -0.3058  0.1166 -0.0953
 8027TIP3    H145496   1.106   5.741  12.039 -0.7333  0.0008 -0.0263
 8027TIP3    H245497   1.181   5.610  12.035 -2.1909 -0.8938  1.2667
 8028TIP3   OH245498   3.916   4.329   1.471  0.3814 -0.3802 -0.1374
 8028TIP3    H145499   3.894   4.328   1.564  0.8125 -1.5023 -0.0457
 8028TIP3    H245500   3.832   4.318   1.426  0.0079  1.4241  0.0792
 8029TIP3   OH245501   3.881   5.961   4.539 -0.3304 -0.4210 -0.4638
 8029TIP3    H145502   3.890   5.869   4.515  0.8268 -0.2487 -0.6975
 8029TIP3    H245503   3.933   6.008   4.474  0.3221  0.2884  0.5692
 8030TIP3   OH245504   1.491   3.787  16.179 -0.3185 -0.3360  0.7448
 8030TIP3    H145505   1.426   3.778  16.110 -0.1849  0.1384  0.5552
 8030TIP3    H245506   1.575   3.786  16.133 -0.1944 -0.9640  0.9882
 8031TIP3   OH245507   5.388   2.643   0.094 -0.0916 -0.2130  0.0276
 8031TIP3    H145508   5.301   2.678   0.112 -1.0213 -2.5770  0.3380
 8031TIP3    H245509   5.376   2.548   0.094  2.2344 -0.5439 -1.2508
 8032TIP3   OH245510   3.890   4.371  12.280  0.8183  0.2148 -0.0603
 8032TIP3    H145511   3.812   4.409  12.238  1.3464 -0.4373 -1.6744
 8032TIP3    H245512   3.860   4.346  12.367 -1.3471 -1.9260 -1.3497
 8033TIP3   OH245513   2.106   0.648  14.821  0.2063  0.0643  1.0153
 8033TIP3    H145514   2.093   0.726  14.876  3.3098 -0.4067  2.5297
 8033TIP3    H245515   2.090   0.574  14.880  2.0682 -0.4393  0.9197
 8034TIP3   OH245516   6.193   3.879   0.704 -0.1623 -0.3834 -0.1312
 8034TIP3    H145517   6.153   3.956   0.743  0.5238 -0.5045  0.8371
 8034TIP3    H245518   6.122   3.816   0.696 -0.8321  0.5171 -1.3850
 8035TIP3   OH245519   4.999   3.457   3.264  0.4110  0.0657 -0.0705
 8035TIP3    H145520   5.094   3.450   3.255  0.7230  2.9728  0.6305
 8035TIP3    H245521   4.970   3.505   3.186  0.1177  3.1411  1.8419
 8036TIP3   OH245522   0.453   0.135   0.650  0.2522  0.1128  0.2827
 8036TIP3    H145523   0.363   0.117   0.675  0.3255 -2.2536 -0.9987
 8036TIP3    H245524   0.488   0.188   0.722 -1.4203 -1.0250  1.9725
 8037TIP3   OH245525   1.045   1.497  13.994 -0.5499 -0.2195  0.4445
 8037TIP3    H145526   1.075   1.586  14.010 -0.2451 -0.2137 -0.1405
 8037TIP3    H245527   1.120   1.453  13.953 -0.4393 -0.9549  1.3951
 8038TIP3   OH245528   3.342   3.390   0.973 -0.5909  0.2946  0.0083
 8038TIP3    H145529   3.414   3.337   1.007 -0.3912  1.0093  0.7121
 8038TIP3    H245530   3.359   3.394   0.879  0.2022  0.3166  0.1461
 8039TIP3   OH245531   1.391   4.564   0.280  0.1331  0.5389  0.2008
 8039TIP3    H145532   1.450   4.490   0.295 -0.5099  0.0268  0.1944
 8039TIP3    H245533   1.436   4.639   0.320  1.7562  0.5668 -1.6038
 8040TIP3   OH245534   1.141   5.156  14.030 -0.5864 -0.2117  0.5337
 8040TIP3    H145535   1.218   5.152  13.974 -0.4157 -1.5823  0.8542
 8040TIP3    H245536   1.144   5.244  14.069 -0.1868  0.3919 -0.8435
 8041TIP3   OH245537   3.885   0.573   0.766  0.0598 -0.1075 -0.5997
 8041TIP3    H145538   3.898   0.569   0.861 -1.4458 -0.5506 -0.4087
 8041TIP3    H245539   3.908   0.485   0.736  0.0257 -0.1190 -0.5914
 8042TIP3   OH245540   3.522   4.017   2.365 -1.0277 -0.4254  0.3661
 8042TIP3    H145541   3.529   4.009   2.460 -2.2487  0.1598  0.5163
 8042TIP3    H245542   3.509   3.928   2.333 -1.3763 -0.5327  0.8133
 8043TIP3   OH245543   1.011   5.741  15.145  0.1900  0.7655  0.0532
 8043TIP3    H145544   1.095   5.730  15.188  1.0048  3.8892 -0.5761
 8043TIP3    H245545   0.964   5.660  15.162  2.6909 -0.3780  1.8089
 8044TIP3   OH245546   5.138   3.877   4.748 -0.2541 -0.2246  0.0476
 8044TIP3    H145547   5.128   3.843   4.837  0.3628  0.2669  0.3191
 8044TIP3    H245548   5.228   3.854   4.725 -0.1546  0.3539 -0.1382
 8045TIP3   OH245549   6.740   0.927   5.452  0.4018  0.8136 -0.0029
 8045TIP3    H145550   6.745   0.850   5.509  0.5354 -0.6722 -1.9881
 8045TIP3    H245551   6.829   0.937   5.419 -0.4917 -0.7097 -2.9966
 8046TIP3   OH245552   6.161   5.069  12.959  0.5661 -0.9665 -0.4444
 8046TIP3    H145553   6.160   4.997  12.897  0.3477 -0.8172 -0.6169
 8046TIP3    H245554   6.069   5.091  12.972  0.6045 -1.0854  0.0358
 8047TIP3   OH245555   2.845   3.062   0.203 -0.4287 -0.0782 -0.5643
 8047TIP3    H145556   2.795   3.010   0.141  0.0007  0.5517 -1.4529
 8047TIP3    H245557   2.823   3.153   0.181 -0.7515  0.1345  0.6069
 8048TIP3   OH245558   3.578   0.220   4.023 -0.8965  0.7182 -0.3622
 8048TIP3    H145559   3.569   0.139   3.972  0.6497 -0.5705  1.3453
 8048TIP3    H245560   3.507   0.276   3.991 -2.0358 -1.3170 -1.5468
 8049TIP3   OH245561   0.514   5.977   0.322 -0.2133  0.3293  0.0390
 8049TIP3    H145562   0.509   6.051   0.382 -0.6253  0.5602 -0.2799
 8049TIP3    H245563   0.602   5.985   0.283 -0.5303  1.0946 -0.5533
 8050TIP3   OH245564   2.832   4.753  13.617 -0.1701 -0.0206 -0.1878
 8050TIP3    H145565   2.821   4.742  13.523  0.8201  1.4511 -0.4982
 8050TIP3    H245566   2.914   4.801  13.626 -0.3362 -0.0010  1.4154
 8051TIP3   OH245567   1.890   2.978   5.346 -0.0705  0.3200 -0.6583
 8051TIP3    H145568   1.812   2.954   5.296  1.2065 -1.4506 -1.8390
 8051TIP3    H245569   1.942   3.031   5.286  0.2734  0.3545 -0.3342
 8052TIP3   OH245570   0.652   3.440   4.934 -0.1308  0.6478  0.3188
 8052TIP3    H145571   0.605   3.361   4.960 -0.7913  1.1798  0.7530
 8052TIP3    H245572   0.598   3.479   4.866 -0.6517  1.6093  1.2771
 8053TIP3   OH245573   4.220   4.453  16.248  0.0560 -0.1389 -0.1950
 8053TIP3    H145574   4.267   4.517  16.302 -0.0714  0.8668 -1.2514
 8053TIP3    H245575   4.175   4.506  16.183 -1.4577 -1.2020 -0.0278
 8054TIP3   OH245576   5.876   1.564   3.727  0.1220 -0.3123  0.6210
 8054TIP3    H145577   5.859   1.597   3.638  2.8546 -0.9424 -0.1779
 8054TIP3    H245578   5.798   1.514   3.749 -1.8624  2.2864 -0.2439
 8055TIP3   OH245579   2.891   4.586   5.796 -0.2598  0.3366  0.6005
 8055TIP3    H145580   2.883   4.540   5.713 -0.0635 -0.5954  1.0896
 8055TIP3    H245581   2.805   4.577   5.837  0.2583 -0.9855  1.4067
 8056TIP3   OH245582   6.777   2.461  16.988 -0.1226  0.3705 -0.4750
 8056TIP3    H145583   6.851   2.423  17.036  0.6483  0.5393 -1.5177
 8056TIP3    H245584   6.817   2.514  16.920 -1.2124  0.5291 -1.0036
 8057TIP3   OH245585   5.113   2.342   5.069 -0.7108  0.0181 -0.1048
 8057TIP3    H145586   5.114   2.247   5.076 -2.0832  0.1030  1.6102
 8057TIP3    H245587   5.172   2.362   4.997 -0.6063 -2.1477 -0.6335
 8058TIP3   OH245588   5.393   4.074   4.737  0.2554 -0.0996 -0.1502
 8058TIP3    H145589   5.463   4.083   4.800 -1.0736  1.0162  1.1979
 8058TIP3    H245590   5.375   3.980   4.733  0.9581 -0.2551  0.4498
 8059TIP3   OH245591   0.213   5.306  14.315 -0.6182  0.3254  0.0684
 8059TIP3    H145592   0.214   5.398  14.341  0.0034  0.5447 -0.7244
 8059TIP3    H245593   0.126   5.293  14.276  0.7401  1.6541 -3.5888
 8060TIP3   OH245594   1.646   3.973  12.914 -0.2658  0.3091 -0.1903
 8060TIP3    H145595   1.559   3.983  12.875 -0.1789 -1.6120 -0.9505
 8060TIP3    H245596   1.706   4.005  12.846 -0.0944 -3.3394 -1.8602
 8061TIP3   OH245597   6.653   2.466  13.678 -0.8299  0.2473  0.0147
 8061TIP3    H145598   6.571   2.446  13.633 -0.6354  0.8227 -0.6003
 8061TIP3    H245599   6.721   2.429  13.622 -0.4785  2.4199 -1.0345
 8062TIP3   OH245600   4.994   1.862  15.175 -0.0224  0.5398 -0.0247
 8062TIP3    H145601   4.961   1.796  15.235  2.9132 -0.9557  0.0388
 8062TIP3    H245602   5.085   1.876  15.202 -0.2949  3.9279 -0.6362
 8063TIP3   OH245603   6.286   1.741   5.859  0.1321  0.0446  0.2221
 8063TIP3    H145604   6.245   1.819   5.897 -1.0302 -0.1575 -0.6057
 8063TIP3    H245605   6.312   1.689   5.935  0.8529  1.1889  0.7853
 8064TIP3   OH245606   5.993   0.840  10.961  0.3441  0.3193  0.5116
 8064TIP3    H145607   6.061   0.900  10.931 -0.0027 -0.1879 -1.3345
 8064TIP3    H245608   6.033   0.754  10.957  0.1641  0.2021  1.1493
 8065TIP3   OH245609   3.078   0.901  13.792  0.2575  0.0779  0.1215
 8065TIP3    H145610   2.997   0.933  13.832 -0.8973 -1.5257 -0.8588
 8065TIP3    H245611   3.125   0.857  13.863 -1.3105 -1.8897 -0.0205
 8066TIP3   OH245612   5.273   1.923   3.109 -0.0647 -0.2370 -0.2299
 8066TIP3    H145613   5.365   1.895   3.108  0.3905  1.0656  1.9667
 8066TIP3    H245614   5.270   1.999   3.051  0.4993  0.4207  0.5891
 8067TIP3   OH245615   5.830   0.751  16.486 -0.7840 -0.0564  0.1324
 8067TIP3    H145616   5.768   0.786  16.550 -0.4031  1.7618 -0.4908
 8067TIP3    H245617   5.913   0.748  16.533 -0.6482  0.6324 -0.0640
 8068TIP3   OH245618   4.364   1.930  14.964  0.4432  0.1165  0.2056
 8068TIP3    H145619   4.323   1.845  14.944 -1.8213  1.5490 -1.4993
 8068TIP3    H245620   4.377   1.971  14.878  2.6015  1.0290  0.9416
 8069TIP3   OH245621   4.484   3.122   0.888  0.1072  0.3065  0.2978
 8069TIP3    H145622   4.446   3.109   0.975  0.6585 -0.2719  0.4575
 8069TIP3    H245623   4.452   3.208   0.860 -0.0060  0.5318  1.1125
 8070TIP3   OH245624   5.805   5.304   1.105  0.7086  0.2340  0.1262
 8070TIP3    H145625   5.848   5.225   1.137  1.6143  0.7301  0.1664
 8070TIP3    H245626   5.761   5.278   1.025 -0.7551 -0.8005  1.2419
 8071TIP3   OH245627   4.388   5.905  16.351  0.0869  0.1354 -0.1133
 8071TIP3    H145628   4.300   5.878  16.323  0.0360 -1.5003  1.5038
 8071TIP3    H245629   4.442   5.896  16.272 -1.1520  0.9204 -1.0481
 8072TIP3   OH245630   6.393   0.378  15.086  0.8985 -0.8622 -0.8365
 8072TIP3    H145631   6.432   0.465  15.074 -1.2894  0.1698 -0.6702
 8072TIP3    H245632   6.333   0.389  15.159 -0.4316 -2.1806 -1.7159
 8073TIP3   OH245633   2.349   2.210   5.046 -0.1567  0.4575 -0.2824
 8073TIP3    H145634   2.254   2.197   5.043 -0.1469 -0.3278  2.0881
 8073TIP3    H245635   2.381   2.168   4.967 -1.6710 -0.2831 -0.5215
 8074TIP3   OH245636   4.165   4.295  13.158  0.2809 -0.7903  0.2345
 8074TIP3    H145637   4.256   4.290  13.128  1.1766 -0.8919  2.8005
 8074TIP3    H245638   4.171   4.328  13.247 -2.2104 -0.9453  0.5043
 8075TIP3   OH245639   6.573   3.871   5.405  0.0242  0.1498  0.2986
 8075TIP3    H145640   6.580   3.782   5.369  0.7891  0.3264  0.0061
 8075TIP3    H245641   6.607   3.863   5.494 -0.1325  0.1072  0.3562
 8076TIP3   OH245642   2.961   4.262   4.109  0.4267  0.7786 -0.3614
 8076TIP3    H145643   3.039   4.275   4.054  0.6023 -0.8594 -0.5181
 8076TIP3    H245644   2.896   4.224   4.051 -0.0133  0.7966  0.1149
 8077TIP3   OH245645   5.113   0.002   0.170  0.2358 -0.3352 -0.0721
 8077TIP3    H145646   5.080   0.069   0.229 -1.1539 -1.9927  1.1142
 8077TIP3    H245647   5.093  -0.081   0.215 -0.7731 -1.6420 -2.8200
 8078TIP3   OH245648   5.414   4.563   3.148 -0.2519  0.8871  0.8227
 8078TIP3    H145649   5.407   4.645   3.197  0.2341  1.1759  0.4188
 8078TIP3    H245650   5.438   4.498   3.213 -1.0987  0.9711  1.2300
 8079TIP3   OH245651   4.215   3.992   4.341  0.3733  0.4136  0.1018
 8079TIP3    H145652   4.211   3.977   4.247  0.1549 -0.0794  0.1879
 8079TIP3    H245653   4.307   4.014   4.358  0.6712 -0.7014 -0.0506
 8080TIP3   OH245654   2.132   4.634   5.543 -0.7864  0.1518 -0.0594
 8080TIP3    H145655   2.141   4.614   5.636  0.9013  1.2764  0.0480
 8080TIP3    H245656   2.145   4.550   5.499  1.1010  0.0528  0.6206
 8081TIP3   OH245657   3.645   2.794   4.083  0.1996 -0.5073 -0.1073
 8081TIP3    H145658   3.630   2.827   4.171  1.0099 -0.1611 -0.0949
 8081TIP3    H245659   3.583   2.843   4.028 -1.4751 -1.8828  0.4808
 8082TIP3   OH245660   5.928   4.322   3.723 -0.4688  0.0789 -0.3681
 8082TIP3    H145661   5.992   4.268   3.770 -0.7031  0.3848  0.3089
 8082TIP3    H245662   5.869   4.354   3.791  0.2865  2.0538 -0.5992
 8083TIP3   OH245663   2.370   6.455  17.205 -0.0569 -0.1085  0.6637
 8083TIP3    H145664   2.317   6.509  17.264 -0.5220  1.1027 -0.8284
 8083TIP3    H245665   2.395   6.379  17.258 -3.3602 -0.7562  1.3536
 8084TIP3   OH245666   4.183   6.427  15.671 -0.6030  0.0096  0.6500
 8084TIP3    H145667   4.177   6.344  15.624 -1.0155  0.3375  0.1201
 8084TIP3    H245668   4.126   6.486  15.623  0.7151  0.9741  0.2365
 8085TIP3   OH245669   2.535   5.859   0.168 -0.3238 -0.5893  0.2708
 8085TIP3    H145670   2.563   5.837   0.079 -1.4240 -0.9741  0.0143
 8085TIP3    H245671   2.503   5.776   0.204 -0.7185 -0.2475  0.7112
 8086TIP3   OH245672   2.620   2.425   2.218 -0.4231  0.1704 -0.2666
 8086TIP3    H145673   2.634   2.457   2.129 -1.3921 -1.3063 -0.9698
 8086TIP3    H245674   2.624   2.504   2.272  0.7408  1.0099 -1.5379
 8087TIP3   OH245675   1.440   5.644   2.592  0.0886  0.0293 -0.3617
 8087TIP3    H145676   1.427   5.648   2.687 -0.8319  0.3898 -0.4990
 8087TIP3    H245677   1.398   5.562   2.566 -0.2837  0.2844 -0.5587
 8088TIP3   OH245678   1.012   4.809   6.363  0.5042  0.2840  0.0445
 8088TIP3    H145679   1.014   4.719   6.330  1.9069 -0.1063  1.1267
 8088TIP3    H245680   0.958   4.856   6.300  0.6614 -1.0769 -1.1439
 8089TIP3   OH245681   4.922   1.083  14.375 -0.1645 -0.2832 -1.0936
 8089TIP3    H145682   4.856   1.152  14.381 -1.3475 -1.3466 -1.5885
 8089TIP3    H245683   4.989   1.107  14.440 -1.6556  0.1444  0.3048
 8090TIP3   OH245684   3.849   3.138  12.890 -0.2600 -0.4690  0.3051
 8090TIP3    H145685   3.903   3.199  12.941  1.0284 -0.4881 -0.9806
 8090TIP3    H245686   3.866   3.163  12.799 -1.6561 -1.1504 -0.1477
 8091TIP3   OH245687   0.733   1.450  16.316 -0.3462 -0.2696  0.0286
 8091TIP3    H145688   0.797   1.443  16.386 -1.7877 -0.7511  1.3204
 8091TIP3    H245689   0.676   1.374  16.327 -1.7082  0.6505 -0.5130
 8092TIP3   OH245690   1.429   0.462  14.312 -0.0417 -0.4133 -0.0941
 8092TIP3    H145691   1.373   0.461  14.390  0.9889  0.1208  0.6622
 8092TIP3    H245692   1.384   0.522  14.252 -0.1966  0.1406  0.5709
 8093TIP3   OH245693   0.561   6.754  12.183 -0.0458  0.1643  0.8903
 8093TIP3    H145694   0.486   6.812  12.193 -0.7140 -0.1062 -2.0309
 8093TIP3    H245695   0.525   6.673  12.147  1.6774  0.2123 -1.0706
 8094TIP3   OH245696   0.270   4.331  14.355 -0.3567  0.5664  0.9612
 8094TIP3    H145697   0.204   4.398  14.339  0.6047  1.3718  0.3104
 8094TIP3    H245698   0.340   4.350  14.293  0.4247 -0.3696  1.5274
 8095TIP3   OH245699   5.751   2.503   1.498 -0.2540  0.0199 -0.2794
 8095TIP3    H145700   5.723   2.437   1.434  0.0165 -0.3322 -0.0407
 8095TIP3    H245701   5.832   2.538   1.463 -1.7688  2.1547 -1.7494
 8096TIP3   OH245702   1.453   0.700   4.231 -0.2360  0.3240 -0.3956
 8096TIP3    H145703   1.539   0.733   4.258 -0.4448 -0.1979  0.9136
 8096TIP3    H245704   1.393   0.771   4.254 -0.1514  0.7797 -1.5085
 8097TIP3   OH245705   5.487   5.267  11.582 -0.0025 -0.5707 -0.0481
 8097TIP3    H145706   5.397   5.234  11.579 -0.2298 -0.3824  3.4261
 8097TIP3    H245707   5.540   5.189  11.599 -0.0239  0.0271  2.8766
 8098TIP3   OH245708   0.972   6.641   4.715  0.0025 -0.5793 -0.2024
 8098TIP3    H145709   0.983   6.569   4.776  1.2663 -0.0322  0.2317
 8098TIP3    H245710   0.985   6.602   4.629 -1.2905 -1.2504 -0.1075
 8099TIP3   OH245711   3.035   0.303  12.573  0.6284 -0.1033  0.2666
 8099TIP3    H145712   2.991   0.313  12.489 -1.1496  1.3091  1.3204
 8099TIP3    H245713   3.090   0.381  12.581 -1.5068  1.3000  1.7091
 8100TIP3   OH245714   4.330   3.334   5.728 -0.2141  0.2001  0.2414
 8100TIP3    H145715   4.410   3.304   5.685  0.4697  0.7491  1.1112
 8100TIP3    H245716   4.354   3.344   5.820 -1.1689  0.7669  0.4396
 8101TIP3   OH245717   2.898   4.993  11.757 -0.2088  0.0957  0.6263
 8101TIP3    H145718   2.894   5.064  11.821  1.4923 -0.8589  1.8255
 8101TIP3    H245719   2.955   5.027  11.688  0.6019 -0.0796  1.1969
 8102TIP3   OH245720   2.060   6.419   1.846  0.4351 -0.2130  0.4480
 8102TIP3    H145721   2.012   6.337   1.837  1.0495 -0.4459 -0.8639
 8102TIP3    H245722   2.068   6.452   1.756 -0.0810  1.4369  0.9871
 8103TIP3   OH245723   6.073   3.548  15.812  0.5144  0.3145  1.0122
 8103TIP3    H145724   6.049   3.605  15.739  2.4220  0.6338  0.6054
 8103TIP3    H245725   5.995   3.543  15.866 -0.3430  1.5664 -0.0945
 8104TIP3   OH245726   1.201   1.645   3.890 -0.9346  0.0341  0.1342
 8104TIP3    H145727   1.258   1.712   3.853  0.2000 -1.2899 -0.5678
 8104TIP3    H245728   1.113   1.679   3.879 -0.3416  1.6135  0.2181
 8105TIP3   OH245729   4.779   6.734  14.462  0.4840 -0.3203  0.3448
 8105TIP3    H145730   4.761   6.758  14.553 -0.7302  1.2212 -0.2795
 8105TIP3    H245731   4.833   6.806  14.429 -0.5491  0.0079 -0.6553
 8106TIP3   OH245732   4.548   3.627   5.063 -0.0194 -0.0121 -0.3641
 8106TIP3    H145733   4.547   3.657   5.154  0.7799  1.3339 -0.7937
 8106TIP3    H245734   4.459   3.595   5.048  0.2026 -1.4488  1.2831
 8107TIP3   OH245735   4.761   3.612   0.138  0.9729  0.5404 -0.1032
 8107TIP3    H145736   4.691   3.617   0.203 -2.1665 -1.3150 -3.1902
 8107TIP3    H245737   4.768   3.700   0.102  0.9997  0.9882  0.9934
 8108TIP3   OH245738   3.415   1.715  15.944 -0.1347 -0.0163 -0.6516
 8108TIP3    H145739   3.496   1.684  15.903 -0.5713 -1.2978 -0.5442
 8108TIP3    H245740   3.351   1.645  15.928 -1.0467  0.6901 -0.1561
 8109TIP3   OH245741   3.370   6.330  14.690 -1.0534  0.4488 -0.3600
 8109TIP3    H145742   3.401   6.240  14.699 -0.6833  0.5048 -1.0018
 8109TIP3    H245743   3.309   6.342  14.763  1.1368  0.6372  1.4875
 8110TIP3   OH245744   0.376   2.516  14.018 -0.3014  0.0031  0.0054
 8110TIP3    H145745   0.346   2.550  14.102 -2.5924 -1.8273 -0.0237
 8110TIP3    H245746   0.330   2.569  13.953 -1.4567 -1.0452 -0.0503
 8111TIP3   OH245747   0.736   6.354   3.533  0.2288 -0.2243 -0.2105
 8111TIP3    H145748   0.777   6.330   3.616 -3.1778 -1.1673  1.2898
 8111TIP3    H245749   0.753   6.447   3.524  1.0905 -0.2156  1.3081
 8112TIP3   OH245750   6.541   4.375   0.399 -0.6197 -0.9292  0.5438
 8112TIP3    H145751   6.553   4.308   0.466  1.5055 -1.5222 -0.3801
 8112TIP3    H245752   6.611   4.358   0.336 -0.1779  2.0108  0.1743
 8113TIP3   OH245753   6.250   3.133  16.909  0.4650  0.1119 -0.0225
 8113TIP3    H145754   6.249   3.052  16.961  1.2383  0.2751  0.2479
 8113TIP3    H245755   6.230   3.104  16.820 -0.2156 -0.2539  0.2383
 8114TIP3   OH245756   0.132   2.506   0.055 -0.3620 -0.6679  0.1881
 8114TIP3    H145757   0.182   2.446  -0.001 -0.5267 -0.3854 -0.2604
 8114TIP3    H245758   0.137   2.590   0.011  0.6504 -0.1341  1.2987
 8115TIP3   OH245759   3.130   2.991   3.481 -0.1694 -0.3477  0.2348
 8115TIP3    H145760   3.120   3.072   3.532 -0.1917  1.2247 -2.1753
 8115TIP3    H245761   3.087   3.010   3.397  1.2015 -2.2980 -0.9574
 8116TIP3   OH245762   4.455   1.571   5.215  0.0128 -0.1124 -0.5491
 8116TIP3    H145763   4.392   1.522   5.162  0.3570 -0.5584 -0.5467
 8116TIP3    H245764   4.442   1.538   5.304 -0.6237  0.6936 -0.3384
 8117TIP3   OH245765   4.283   0.053   2.552 -0.3170 -0.4722  0.5959
 8117TIP3    H145766   4.275   0.046   2.457 -0.2642 -2.3559  0.7123
 8117TIP3    H245767   4.194   0.068   2.583 -0.1878  1.3227  0.1914
 8118TIP3   OH245768   4.999   0.697   1.402  0.3900 -0.0953 -0.0248
 8118TIP3    H145769   4.915   0.670   1.367  0.9641 -2.7086  0.5070
 8118TIP3    H245770   5.002   0.658   1.490  2.3650 -0.5315 -0.2563
 8119TIP3   OH245771   4.902   2.498   1.681  0.5732  0.3778  0.6085
 8119TIP3    H145772   4.814   2.466   1.663  0.8080  0.4413 -0.6657
 8119TIP3    H245773   4.906   2.504   1.777 -0.7552  0.2579  0.6782
 8120TIP3   OH245774   1.187   4.319   4.346  0.3652 -0.4459 -0.2068
 8120TIP3    H145775   1.207   4.296   4.255  0.4892 -0.2308 -0.2323
 8120TIP3    H245776   1.222   4.246   4.397  1.8129  0.2395 -0.1945
 8121TIP3   OH245777   2.004   1.425  12.822  0.4756  0.6548  0.0672
 8121TIP3    H145778   2.081   1.435  12.877 -0.5912 -0.9828  1.9540
 8121TIP3    H245779   1.932   1.412  12.884 -1.2333  1.6253 -1.6598
 8122TIP3   OH245780   0.668   4.565   4.623 -0.5754 -0.0775  0.2018
 8122TIP3    H145781   0.698   4.653   4.645  0.0603 -0.0197 -0.9194
 8122TIP3    H245782   0.733   4.531   4.562 -1.7664 -0.6591 -0.7579
 8123TIP3   OH245783   0.094   0.235   0.978  0.0452 -0.0068  0.2378
 8123TIP3    H145784   0.058   0.316   0.943  1.9626  1.6502  2.0284
 8123TIP3    H245785   0.141   0.261   1.057  2.5189 -2.5316 -0.3172
 8124TIP3   OH245786   6.161   5.427  11.137  0.2367  0.0751  0.1176
 8124TIP3    H145787   6.076   5.390  11.162  1.4395 -3.3372 -0.5399
 8124TIP3    H245788   6.196   5.464  11.218 -1.0349 -0.2318  0.8150
 8125TIP3   OH245789   1.115   0.540   1.936  0.8098  0.4309 -0.4902
 8125TIP3    H145790   1.163   0.616   1.900 -0.0275  1.4500  0.5245
 8125TIP3    H245791   1.145   0.534   2.026  0.3802 -0.0484 -0.3823
 8126TIP3   OH245792   3.448   1.064  12.967 -0.3846  0.3655  0.2342
 8126TIP3    H145793   3.393   1.068  13.046  0.4060 -0.1839  0.8289
 8126TIP3    H245794   3.474   0.972  12.961  0.0727  0.5281 -0.3084
 8127TIP3   OH245795   5.698   5.535   0.757  0.1838  0.3241 -0.0829
 8127TIP3    H145796   5.778   5.485   0.740  0.6987  0.4830  1.7797
 8127TIP3    H245797   5.722   5.626   0.739 -0.0176  0.1942 -1.0046
 8128TIP3   OH245798   5.935   1.079   1.152 -0.5640  0.0895  0.2769
 8128TIP3    H145799   5.906   1.032   1.074 -1.1958  1.1650 -0.1556
 8128TIP3    H245800   5.904   1.169   1.138 -0.2294  0.4058  1.5308
 8129TIP3   OH245801   3.451   1.673   1.125  0.0978 -0.6245  0.1808
 8129TIP3    H145802   3.522   1.736   1.128 -1.8281  1.6446 -0.4935
 8129TIP3    H245803   3.375   1.723   1.095 -1.9857 -2.7887  1.6486
 8130TIP3   OH245804   5.731   4.513   2.700 -0.2130  0.3328  0.1672
 8130TIP3    H145805   5.751   4.576   2.769  0.2471  0.2126  0.1476
 8130TIP3    H245806   5.809   4.512   2.644 -1.2112  1.6576 -1.3041
 8131TIP3   OH245807   4.698   4.668  14.271  0.0131 -0.5758 -0.9766
 8131TIP3    H145808   4.673   4.714  14.191 -0.5532 -0.6147 -0.8290
 8131TIP3    H245809   4.673   4.577  14.255  1.2944 -0.8645 -1.3343
 8132TIP3   OH245810   2.063   1.652   4.094 -0.5725  0.3613 -0.1519
 8132TIP3    H145811   2.148   1.628   4.057 -1.9378  0.5411 -3.6529
 8132TIP3    H245812   2.017   1.569   4.104 -1.6709  0.5920 -2.8292
 8133TIP3   OH245813   4.121   0.308  13.288  0.1986 -0.2112 -0.2548
 8133TIP3    H145814   4.188   0.241  13.281 -0.4197 -0.7238 -1.6189
 8133TIP3    H245815   4.125   0.355  13.204 -1.5274 -0.6424 -0.6144
 8134TIP3   OH245816   2.242   0.012   1.444  0.8370 -0.2315  0.4128
 8134TIP3    H145817   2.293  -0.029   1.513  0.5894  0.2634  0.9005
 8134TIP3    H245818   2.289   0.093   1.424  0.8570 -0.3277  0.0675
 8135TIP3   OH245819   5.815   4.587  17.194  0.3921 -0.0787  0.1595
 8135TIP3    H145820   5.740   4.529  17.184 -0.0985  0.2175  1.9182
 8135TIP3    H245821   5.782   4.674  17.172 -0.2121  0.2883  2.3597
 8136TIP3   OH245822   3.744   3.999   3.649 -0.1483 -0.5868  0.7207
 8136TIP3    H145823   3.653   4.005   3.677 -0.5636 -0.0583 -0.6941
 8136TIP3    H245824   3.748   3.919   3.597  0.6234 -1.5732  2.2591
 8137TIP3   OH245825   0.999   6.382   0.171  0.0267 -0.8510 -0.1968
 8137TIP3    H145826   0.948   6.463   0.179 -0.5778 -1.2944  0.4668
 8137TIP3    H245827   1.086   6.411   0.143 -0.4098 -0.0359 -0.7061
 8138TIP3   OH245828   2.482   2.704   4.206 -0.1840  0.2523 -0.0483
 8138TIP3    H145829   2.482   2.656   4.124 -1.7875 -0.8957  0.6085
 8138TIP3    H245830   2.438   2.786   4.186  1.7251  1.1022 -0.9374
 8139TIP3   OH245831   4.331   3.912  13.401 -0.4818  0.3507  0.1315
 8139TIP3    H145832   4.360   3.918  13.311 -0.1731 -1.2157  0.1086
 8139TIP3    H245833   4.319   4.003  13.429  2.5791  0.9742 -0.4472
 8140TIP3   OH245834   3.014   2.074   0.025  0.4562 -0.2786  0.0598
 8140TIP3    H145835   2.959   2.094   0.100  1.0702 -0.6209  0.5978
 8140TIP3    H245836   2.954   2.076  -0.050 -0.0065  0.8455  0.4544
 8141TIP3   OH245837   0.364   0.754   4.444  0.5578  0.0583 -0.0244
 8141TIP3    H145838   0.376   0.847   4.465 -0.4078  0.3248 -0.5808
 8141TIP3    H245839   0.280   0.731   4.484  0.2494 -0.2678 -0.8511
 8142TIP3   OH245840   2.337   5.669  15.711  0.0973 -0.6343  0.0072
 8142TIP3    H145841   2.277   5.642  15.641  0.6645  0.1869 -0.8038
 8142TIP3    H245842   2.307   5.756  15.737 -0.2489 -1.0290  0.9583
 8143TIP3   OH245843   3.135   0.903  11.210  0.5322 -0.0646  0.0396
 8143TIP3    H145844   3.089   0.824  11.182  1.2479 -0.2866 -0.5216
 8143TIP3    H245845   3.068   0.971  11.209 -0.6272 -1.0682  2.6164
 8144TIP3   OH245846   0.526   1.255  13.087 -0.0174  0.1872 -0.3056
 8144TIP3    H145847   0.550   1.174  13.042 -1.6498 -0.3002 -0.3371
 8144TIP3    H245848   0.433   1.266  13.069 -0.0795  1.4430  0.6816
 8145TIP3   OH245849   3.818   4.827   3.255 -0.5506 -0.4808 -0.2010
 8145TIP3    H145850   3.877   4.755   3.231  0.6498  0.1776  0.7258
 8145TIP3    H245851   3.815   4.882   3.177 -0.9864 -1.2060 -0.7037
 8146TIP3   OH245852   0.538   6.311   5.513 -0.2750 -0.0104 -0.5643
 8146TIP3    H145853   0.580   6.232   5.547 -0.7920 -0.6528 -1.4088
 8146TIP3    H245854   0.609   6.360   5.472  0.0892  0.0689  0.1533
 8147TIP3   OH245855   1.855   0.458  13.620  0.4592 -0.5879 -0.0009
 8147TIP3    H145856   1.791   0.500  13.678 -0.5263 -1.3916 -0.4917
 8147TIP3    H245857   1.925   0.430  13.679 -0.9445 -2.1848  0.9671
 8148TIP3   OH245858   5.844   0.745  15.705 -0.1437  0.5520 -0.2222
 8148TIP3    H145859   5.874   0.735  15.795 -1.7319 -0.1573  0.2336
 8148TIP3    H245860   5.855   0.839  15.687  2.1527  0.3478 -0.0192
 8149TIP3   OH245861   1.755   0.213  13.285 -0.5432 -0.4054  0.1985
 8149TIP3    H145862   1.822   0.218  13.353  0.8070  1.2033 -1.1838
 8149TIP3    H245863   1.722   0.303  13.278 -0.5448 -0.5161 -1.3534
 8150TIP3   OH245864   4.358   6.082  16.099 -0.0220  0.0918 -0.5231
 8150TIP3    H145865   4.277   6.131  16.080  0.4381  1.0905  0.0453
 8150TIP3    H245866   4.344   5.997  16.058 -1.8681 -0.1753  0.5756
 8151TIP3   OH245867   0.954   2.030   5.281 -0.0737  0.1569 -0.0779
 8151TIP3    H145868   0.945   2.089   5.356  0.0755  1.6133 -1.1602
 8151TIP3    H245869   0.916   1.948   5.309 -0.8679  0.9774  1.2790
 8152TIP3   OH245870   0.570   0.788  15.557 -0.6543  0.0315  0.3209
 8152TIP3    H145871   0.627   0.717  15.526 -0.5262  0.2697  0.0133
 8152TIP3    H245872   0.568   0.777  15.652 -0.3942 -0.2064  0.3005
 8153TIP3   OH245873   5.120   4.674  13.231 -0.0477 -0.1204  0.1963
 8153TIP3    H145874   5.195   4.615  13.217 -0.5437 -0.5023 -0.9119
 8153TIP3    H245875   5.051   4.617  13.265 -0.2595 -0.0228 -0.0656
 8154TIP3   OH245876   6.759   0.166  17.089  0.6015 -0.8328 -0.1324
 8154TIP3    H145877   6.734   0.135  17.002 -0.4525  1.0254 -0.5236
 8154TIP3    H245878   6.844   0.208  17.076  0.7043 -1.0457 -0.1528
 8155TIP3   OH245879   3.194   6.696   3.609  0.1063  0.8032  0.3942
 8155TIP3    H145880   3.277   6.666   3.573  0.0589  0.1652  0.8202
 8155TIP3    H245881   3.215   6.779   3.652  0.3510  1.0820 -0.2422
 8156TIP3   OH245882   3.538   2.709  12.893  0.2618  0.2860  0.1455
 8156TIP3    H145883   3.521   2.803  12.883  2.1751  0.4412 -1.9318
 8156TIP3    H245884   3.625   2.704  12.933 -0.8324 -0.6135  2.5330
 8157TIP3   OH245885   0.287   0.529  14.794 -0.1770 -0.2015 -0.1059
 8157TIP3    H145886   0.322   0.454  14.747 -0.0992  0.2800 -0.8200
 8157TIP3    H245887   0.340   0.534  14.874  1.0118  0.1636 -0.8970
 8158TIP3   OH245888   4.274   5.611   3.119  0.1505  0.1845 -0.2355
 8158TIP3    H145889   4.346   5.671   3.139  0.5041 -0.0874 -0.6926
 8158TIP3    H245890   4.316   5.525   3.113  0.0100  0.2234 -1.9255
 8159TIP3   OH245891   2.401   4.725   3.665 -0.6219 -0.1341  0.3667
 8159TIP3    H145892   2.454   4.710   3.587  0.0897  1.2974  0.5655
 8159TIP3    H245893   2.391   4.638   3.703  0.0919 -0.6705 -0.6393
 8160TIP3   OH245894   5.915   6.113   0.544  0.1323  0.0288  0.0851
 8160TIP3    H145895   5.871   6.059   0.478  1.6011 -0.9881 -0.0705
 8160TIP3    H245896   5.908   6.202   0.509 -3.1369  0.1374  0.7955
 8161TIP3   OH245897   1.880   5.669  11.558 -0.6734 -0.0966 -0.7436
 8161TIP3    H145898   1.794   5.637  11.531 -1.3758  0.7935  0.3669
 8161TIP3    H245899   1.905   5.731  11.490 -1.1484  0.0222 -0.8182
 8162TIP3   OH245900   2.436   5.685  15.310  0.0493  0.4518  0.1824
 8162TIP3    H145901   2.348   5.722  15.319  0.8864  2.8238 -0.9379
 8162TIP3    H245902   2.433   5.639  15.226 -0.4925 -0.5858  0.7633
 8163TIP3   OH245903   6.265   1.664   2.072 -0.3726  0.8622 -0.3526
 8163TIP3    H145904   6.248   1.608   2.148  0.6675  1.0203  0.0122
 8163TIP3    H245905   6.237   1.751   2.099  0.0981  0.9391 -0.1011
 8164TIP3   OH245906   6.781   3.384  12.933  0.0532 -0.1856 -0.2200
 8164TIP3    H145907   6.708   3.445  12.921 -0.1539 -0.1711  1.0165
 8164TIP3    H245908   6.835   3.424  13.002  0.2861 -1.0472  0.1084
 8165TIP3   OH245909   6.312   6.528  14.722  0.0814 -0.2900 -0.0515
 8165TIP3    H145910   6.294   6.492  14.809 -1.2301 -1.6471 -0.8457
 8165TIP3    H245911   6.407   6.525  14.713  0.3434  1.4266  1.9777
 8166TIP3   OH245912   2.799   2.090   4.870  0.4942  0.0290 -0.1194
 8166TIP3    H145913   2.805   2.179   4.907 -0.9798  0.0585  0.0889
 8166TIP3    H245914   2.706   2.069   4.874  0.1776  0.2226 -4.3401
 8167TIP3   OH245915   4.921   4.799  15.497 -0.1879 -0.1528  0.3627
 8167TIP3    H145916   4.921   4.715  15.542 -0.1172 -0.6033 -0.4685
 8167TIP3    H245917   4.838   4.840  15.522  0.2373 -0.0213  1.5802
 8168TIP3   OH245918   4.985   1.733   2.357  0.0854 -0.1089  0.1683
 8168TIP3    H145919   4.951   1.702   2.273 -1.6368  0.3532  0.6700
 8168TIP3    H245920   4.955   1.824   2.363 -0.0232 -0.2174  1.3826
 8169TIP3   OH245921   6.537   2.110   1.133 -0.1074 -0.3620 -0.4938
 8169TIP3    H145922   6.510   2.192   1.173  2.6418  0.4667 -0.2810
 8169TIP3    H245923   6.492   2.109   1.048 -0.6109  1.0643 -0.2504
 8170TIP3   OH245924   1.873   5.133   4.604  0.3829  0.9737 -0.3276
 8170TIP3    H145925   1.845   5.044   4.585 -0.5652  1.5736 -1.8213
 8170TIP3    H245926   1.919   5.127   4.688  1.8458 -1.2091 -1.2422
 8171TIP3   OH245927   2.435   4.491   1.149  0.0095 -0.1057  0.0160
 8171TIP3    H145928   2.459   4.494   1.056  0.2528  1.1073  0.1122
 8171TIP3    H245929   2.511   4.454   1.193  0.7067  1.2292 -0.0235
 8172TIP3   OH245930   4.895   6.044  11.784 -0.3064  0.6968  0.1305
 8172TIP3    H145931   4.986   6.076  11.784 -0.4110  1.0484 -1.4313
 8172TIP3    H245932   4.904   5.949  11.787  0.2589  0.5494 -3.6302
 8173TIP3   OH245933   3.177   6.768  11.893 -0.1469 -0.0916 -0.5031
 8173TIP3    H145934   3.190   6.674  11.904  0.9164 -0.1319 -1.9752
 8173TIP3    H245935   3.086   6.776  11.864 -0.6482 -0.5420  0.8637
 8174TIP3   OH245936   4.096   0.363  15.318  0.1703  0.2012  0.1601
 8174TIP3    H145937   4.085   0.394  15.229 -2.1854 -2.7339 -0.6720
 8174TIP3    H245938   4.175   0.309  15.316 -0.0573 -0.1171 -0.2491
 8175TIP3   OH245939   0.326   2.025  12.706 -0.1410  0.2797 -0.0506
 8175TIP3    H145940   0.382   2.103  12.712 -0.6847  0.6901 -0.2875
 8175TIP3    H245941   0.278   2.023  12.789  0.6883 -0.4384  0.4263
 8176TIP3   OH245942   1.392   4.710  11.356  0.2248 -0.3204  0.0379
 8176TIP3    H145943   1.439   4.738  11.277  2.5307 -1.1659  1.0551
 8176TIP3    H245944   1.370   4.618  11.339  2.3959 -1.0737  1.0832
 8177TIP3   OH245945   5.837   1.763  10.765 -0.2913  0.1223 -0.3493
 8177TIP3    H145946   5.806   1.675  10.785 -0.8275  0.1741 -0.9601
 8177TIP3    H245947   5.929   1.762  10.793 -0.6127 -0.2643  0.7158
 8178TIP3   OH245948   4.724   6.085   5.472  0.5391  0.3347 -0.0881
 8178TIP3    H145949   4.773   6.006   5.495  0.1652 -0.0328 -0.5479
 8178TIP3    H245950   4.789   6.144   5.434  0.6432 -0.1308 -0.6431
 8179TIP3   OH245951   0.262   2.719   5.608 -0.3876 -0.2023 -0.0226
 8179TIP3    H145952   0.176   2.758   5.595 -0.2352  0.0332 -0.3084
 8179TIP3    H245953   0.280   2.672   5.527 -0.3039 -0.3659  0.0891
 8180TIP3   OH245954   5.399   5.728   2.481 -0.8481  0.5264  0.6220
 8180TIP3    H145955   5.479   5.773   2.454  0.2165 -1.4397  0.3273
 8180TIP3    H245956   5.382   5.759   2.570  0.8199  0.2565  1.0570
 8181TIP3   OH245957   0.175   5.257   4.677 -0.0515  0.4543 -0.0667
 8181TIP3    H145958   0.194   5.270   4.584 -0.4940  0.5062 -0.1482
 8181TIP3    H245959   0.220   5.174   4.699  2.0205  1.6224  0.2532
 8182TIP3   OH245960   3.919   2.667  14.623 -1.0409  0.2527 -0.8311
 8182TIP3    H145961   3.930   2.733  14.554 -0.6779  1.0357 -0.0315
 8182TIP3    H245962   3.894   2.717  14.700 -0.3066 -0.5050 -0.0972
 8183TIP3   OH245963   4.580   2.991  12.486  0.1833 -0.2244  0.6293
 8183TIP3    H145964   4.658   2.985  12.431  0.5190  0.3976  1.0388
 8183TIP3    H245965   4.516   2.934  12.442  0.6486 -0.2187 -0.0691
 8184TIP3   OH245966   2.973   4.945   0.060 -0.4645 -0.2180  0.0329
 8184TIP3    H145967   2.885   4.981   0.068 -0.4073  0.0544 -0.5200
 8184TIP3    H245968   3.012   4.993  -0.013  0.3244  0.0393  0.6089
 8185TIP3   OH245969   5.906   0.358  12.121 -0.1599  0.1723 -0.0588
 8185TIP3    H145970   5.917   0.313  12.037 -0.5436  0.9700 -0.5428
 8185TIP3    H245971   5.993   0.395  12.139 -0.3161  0.8064 -0.5806
 8186TIP3   OH245972   0.944   1.661   2.691  0.6843 -0.2587  0.0735
 8186TIP3    H145973   0.852   1.646   2.711  0.3851  2.1916  0.7667
 8186TIP3    H245974   0.947   1.673   2.596  0.1721  0.3671  0.1355
 8187TIP3   OH245975   6.074   2.195   0.796 -0.4688  0.0480  0.1008
 8187TIP3    H145976   5.989   2.156   0.816 -1.0273  1.1237 -0.0921
 8187TIP3    H245977   6.106   2.147   0.719 -0.7185 -0.6230  0.4178
 8188TIP3   OH245978   6.456   4.304  12.279 -0.4014  0.2856 -0.0263
 8188TIP3    H145979   6.417   4.217  12.286 -0.3999  0.2887  0.0153
 8188TIP3    H245980   6.381   4.362  12.269 -0.3643  0.1746 -1.0610
 8189TIP3   OH245981   0.939   0.320   1.904 -0.3477 -0.1407  0.0250
 8189TIP3    H145982   0.990   0.401   1.909  1.4941 -1.1776 -1.4161
 8189TIP3    H245983   0.970   0.269   1.979  1.3605 -1.1089 -1.3233
 8190TIP3   OH245984   5.291   3.718   5.210  0.1298 -0.1563  0.5731
 8190TIP3    H145985   5.315   3.811   5.210  0.7598 -0.3125  1.2842
 8190TIP3    H245986   5.278   3.697   5.117  0.7321  0.4523  0.3441
 8191TIP3   OH245987   3.689   2.573   0.287 -0.0944  0.0302 -0.0504
 8191TIP3    H145988   3.731   2.572   0.373  1.3526 -2.5028 -0.7352
 8191TIP3    H245989   3.730   2.647   0.241  0.4693  0.2471  0.7882
 8192TIP3   OH245990   0.028   4.222  13.443 -0.3820  0.0154  0.1519
 8192TIP3    H145991  -0.035   4.239  13.373  0.8893  0.0431 -1.0160
 8192TIP3    H245992   0.083   4.300  13.445  0.4090 -0.5368  0.2771
 8193TIP3   OH245993   2.326   2.552   4.919 -0.2062 -0.1424  0.2236
 8193TIP3    H145994   2.239   2.586   4.942 -0.8195 -0.6926 -1.2235
 8193TIP3    H245995   2.339   2.579   4.828  0.5478 -1.2402 -0.0058
 8194TIP3   OH245996   2.804   5.734   2.252 -0.3194  0.2167 -0.4455
 8194TIP3    H145997   2.748   5.800   2.211  0.6216  1.5262  0.3261
 8194TIP3    H245998   2.746   5.689   2.314 -0.5734  1.4870  0.2639
 8195TIP3   OH245999   1.271   3.651   2.390 -0.2661 -0.0647  0.3955
 8195TIP3    H146000   1.251   3.594   2.465  0.3783 -0.6319  0.1403
 8195TIP3    H246001   1.353   3.693   2.413 -0.3764  0.2212  0.2670
 8196TIP3   OH246002   3.028   2.327  15.997 -0.7607  0.0123 -0.3827
 8196TIP3    H146003   3.047   2.243  15.956  0.1479 -0.8267  1.7267
 8196TIP3    H246004   2.964   2.307  16.065  1.3887  0.5629  1.8570
 8197TIP3   OH246005   5.553   3.485   3.125 -0.0217 -0.1980 -0.2993
 8197TIP3    H146006   5.489   3.518   3.063  0.6090  1.6901  0.0223
 8197TIP3    H246007   5.638   3.511   3.089  0.3160  1.8120  1.8210
 8198TIP3   OH246008   5.794   5.693  15.020 -0.0438  0.5702 -0.4872
 8198TIP3    H146009   5.730   5.736  15.076 -0.2720  0.7385 -0.8778
 8198TIP3    H246010   5.784   5.600  15.040  1.2311  0.7623  1.1875
 8199TIP3   OH246011   3.781   5.798  10.301  0.1923 -0.1501 -0.4499
 8199TIP3    H146012   3.768   5.893  10.297 -0.2501 -0.1598  0.5891
 8199TIP3    H246013   3.702   5.762  10.262 -0.4532 -0.1115  0.7892
 8200TIP3   OH246014   2.106   4.581   1.709 -0.1010  0.5993 -0.4977
 8200TIP3    H146015   2.121   4.642   1.781  0.2518  1.0482 -0.9485
 8200TIP3    H246016   2.159   4.615   1.637 -1.3088  0.7658 -1.3179
 8201TIP3   OH246017   3.884   3.056  16.187  0.3320 -0.4767  0.2608
 8201TIP3    H146018   3.858   3.142  16.155 -1.5384 -0.3704  1.9711
 8201TIP3    H246019   3.935   3.074  16.267 -0.5603 -0.9666  0.9464
 8202TIP3   OH246020   5.246   6.632  15.892  0.4104 -0.1307 -0.1963
 8202TIP3    H146021   5.191   6.699  15.853 -0.3337  0.5387  1.9140
 8202TIP3    H246022   5.332   6.673  15.899  0.2505  0.1807 -0.0251
 8203TIP3   OH246023   1.031   6.639  12.168 -1.2115  0.6569 -0.1555
 8203TIP3    H146024   0.936   6.631  12.155 -1.0276  1.1207 -1.8909
 8203TIP3    H246025   1.068   6.566  12.118 -0.5750  1.3291 -0.6654
 8204TIP3   OH246026   0.765   5.324  12.028  0.2950  0.6262  0.4509
 8204TIP3    H146027   0.671   5.321  12.045  0.4274 -0.8656  0.9975
 8204TIP3    H246028   0.791   5.232  12.018  1.6787  1.0233  0.2207
 8205TIP3   OH246029   4.493   6.046   5.604  0.4417  0.6938 -0.3476
 8205TIP3    H146030   4.578   6.043   5.561  0.9156  2.3443  0.3950
 8205TIP3    H246031   4.469   6.139   5.603 -0.9600  0.3578  0.2073
 8206TIP3   OH246032   1.402   2.681   3.812  0.1724 -0.1707  0.4323
 8206TIP3    H146033   1.401   2.632   3.730  0.7461 -0.3706  0.5428
 8206TIP3    H246034   1.481   2.735   3.807 -0.1821  0.3723  0.5320
 8207TIP3   OH246035   1.679   2.138   1.686 -0.2494  0.1551 -0.2141
 8207TIP3    H146036   1.718   2.140   1.774 -1.1926  1.6914  0.1942
 8207TIP3    H246037   1.585   2.134   1.702 -0.4668  1.2524 -1.1371
 8208TIP3   OH246038   3.094   3.254  11.654 -0.7583 -0.2146 -0.1647
 8208TIP3    H146039   3.131   3.331  11.697 -0.5990 -0.3637 -0.0353
 8208TIP3    H246040   3.054   3.203  11.725  0.7552 -1.1784  0.0220
 8209TIP3   OH246041   1.959   3.540   0.572  0.0724 -0.3749  0.0608
 8209TIP3    H146042   2.037   3.591   0.551  1.1250 -1.5394  1.0833
 8209TIP3    H246043   1.899   3.603   0.611  0.8696  0.3489  0.1258
 8210TIP3   OH246044   3.590   2.761   2.780  0.4282  0.4642  0.1064
 8210TIP3    H146045   3.662   2.797   2.831  0.0574 -0.2327  1.1536
 8210TIP3    H246046   3.622   2.676   2.751 -0.3843 -0.3910  1.6117
 8211TIP3   OH246047   1.238   5.455  17.080 -0.3904 -0.2551 -0.1688
 8211TIP3    H146048   1.295   5.480  17.153  1.4207 -1.6610 -1.0331
 8211TIP3    H246049   1.193   5.535  17.056  0.1939  0.5904  1.4667
 8212TIP3   OH246050   3.059   2.067  12.873  0.3249 -0.0104 -0.1485
 8212TIP3    H146051   3.004   2.140  12.902  0.3599  0.2960 -0.8272
 8212TIP3    H246052   3.099   2.099  12.792  0.1431 -0.8784 -0.5816
 8213TIP3   OH246053   1.106   4.827  12.715  0.1036 -0.3873 -0.3519
 8213TIP3    H146054   1.098   4.776  12.795  0.3765 -0.1573 -0.1742
 8213TIP3    H246055   1.185   4.793  12.672  0.0640 -0.3840 -0.4291
 8214TIP3   OH246056   5.982   6.192   4.720 -0.3159 -0.6148 -0.1821
 8214TIP3    H146057   5.976   6.151   4.806 -1.5762 -0.2708 -0.0975
 8214TIP3    H246058   6.044   6.137   4.672  0.2455 -0.9260  0.8728
 8215TIP3   OH246059   1.199   1.797   2.761 -0.1544 -0.0541 -0.5535
 8215TIP3    H146060   1.113   1.764   2.735  0.7749 -3.2175  0.1710
 8215TIP3    H246061   1.245   1.720   2.793  2.4728  1.8528  0.3971
 8216TIP3   OH246062   2.615   3.251  13.263 -0.0443  0.0559 -0.7105
 8216TIP3    H146063   2.563   3.171  13.271  0.2705  0.0269  1.4450
 8216TIP3    H246064   2.684   3.241  13.329  0.6145  1.6522 -1.1268
 8217TIP3   OH246065   0.965   3.423  11.265 -0.0516 -0.0018 -0.0025
 8217TIP3    H146066   1.010   3.434  11.348  1.3625  1.4772 -0.9206
 8217TIP3    H246067   0.949   3.513  11.235 -0.5684 -0.5144 -1.2903
 8218TIP3   OH246068   6.174   1.699   5.593  0.0907  0.0251 -0.8579
 8218TIP3    H146069   6.202   1.720   5.682 -0.6556 -1.3800 -0.2750
 8218TIP3    H246070   6.090   1.744   5.584  0.9128  1.4663 -1.4179
 8219TIP3   OH246071   6.026   3.070  17.133  0.7203  0.3889 -0.0046
 8219TIP3    H146072   5.965   3.121  17.186 -0.3362 -0.5354 -0.3131
 8219TIP3    H246073   6.103   3.059  17.188 -0.1204 -0.0289  1.1001
 8220TIP3   OH246074   4.144   5.905  15.635  0.1904  0.6556  0.1870
 8220TIP3    H146075   4.198   5.855  15.696 -1.7384 -0.0961  1.3083
 8220TIP3    H246076   4.112   5.841  15.572  0.3938  1.0637 -0.3420
 8221TIP3   OH246077   1.070   4.228  12.607  0.0260  0.0001 -0.4271
 8221TIP3    H146078   1.084   4.145  12.560 -1.8635  0.0030 -1.0445
 8221TIP3    H246079   0.986   4.217  12.650  0.1596  1.2971  0.1803
 8222TIP3   OH246080   4.720   3.381   4.042 -0.1842  0.2356  0.3161
 8222TIP3    H146081   4.770   3.384   3.961  2.0978 -1.5935  1.6109
 8222TIP3    H246082   4.632   3.356   4.015 -0.2199  2.5688 -1.8887
 8223TIP3   OH246083   2.682   0.188   5.029 -0.1076 -0.0509  0.5749
 8223TIP3    H146084   2.707   0.269   5.073  0.1989  0.0470  0.2283
 8223TIP3    H246085   2.615   0.149   5.084  0.8216 -0.3102  1.5343
 8224TIP3   OH246086   1.098   4.128  13.468 -0.6228  0.5356  0.5161
 8224TIP3    H146087   1.116   4.068  13.396 -1.4061 -0.8399  1.4454
 8224TIP3    H246088   1.111   4.215  13.431  1.2792 -0.2133 -0.6527
 8225TIP3   OH246089   2.692   6.016  16.393 -0.6747 -0.1042 -1.0733
 8225TIP3    H146090   2.621   6.058  16.344  0.7824 -0.0988 -3.2723
 8225TIP3    H246091   2.737   5.962  16.328  0.5969 -1.0513  0.5629
 8226TIP3   OH246092   3.731   4.591   2.202 -0.4224 -0.7357 -0.1168
 8226TIP3    H146093   3.809   4.608   2.255 -1.9672  1.1128  1.6440
 8226TIP3    H246094   3.698   4.507   2.235 -0.5642 -0.2995  0.8634
 8227TIP3   OH246095   2.094   2.279   1.283  0.1818  0.1250 -0.6965
 8227TIP3    H146096   2.105   2.240   1.370 -0.5024 -0.9418 -1.0819
 8227TIP3    H246097   2.097   2.373   1.299  0.3522 -0.0650  0.4506
 8228TIP3   OH246098   2.789   3.367  11.822  0.4722 -0.1766  0.1808
 8228TIP3    H146099   2.801   3.333  11.911 -1.1415 -0.6947  0.2124
 8228TIP3    H246100   2.711   3.422  11.827  0.2401 -0.3805 -0.9496
 8229TIP3   OH246101   6.445   5.731  16.452  0.1150 -0.5709  0.1566
 8229TIP3    H146102   6.496   5.788  16.509 -0.0320 -1.1061  0.8273
 8229TIP3    H246103   6.365   5.779  16.435  0.6531  0.0888 -0.5412
 8230TIP3   OH246104   4.886   3.699  16.721 -0.4548  0.0069 -0.1916
 8230TIP3    H146105   4.873   3.614  16.764  1.8663 -0.3317 -0.0421
 8230TIP3    H246106   4.937   3.750  16.784 -0.9035  1.1127 -0.7208
 8231TIP3   OH246107   4.813   6.214  14.506  0.3899  0.4410  0.3558
 8231TIP3    H146108   4.806   6.272  14.582  0.0284  0.1609  0.5355
 8231TIP3    H246109   4.886   6.155  14.528  1.1680  1.2140 -0.0919
 8232TIP3   OH246110   3.162   3.180  14.795 -0.2055  0.1752  0.4159
 8232TIP3    H146111   3.150   3.258  14.848  1.0763  0.4595  0.2989
 8232TIP3    H246112   3.239   3.137  14.832  0.8874  0.5388 -1.3891
 8233TIP3   OH246113   1.028   1.626  13.642  0.7416 -0.7600 -0.0746
 8233TIP3    H146114   1.059   1.550  13.692  0.4125 -2.5825 -2.5558
 8233TIP3    H246115   1.066   1.614  13.555 -0.6125  1.1039 -0.9411
 8234TIP3   OH246116   0.336   3.987   4.722  0.0404 -0.1470 -0.0106
 8234TIP3    H146117   0.373   4.044   4.654 -0.9764  0.5299 -0.0034
 8234TIP3    H246118   0.241   3.994   4.710 -0.1350 -0.4164  1.1552
 8235TIP3   OH246119   0.221   6.645  13.536  0.2060 -0.5878  0.0036
 8235TIP3    H146120   0.299   6.619  13.585  1.0811  0.0362 -1.0299
 8235TIP3    H246121   0.200   6.733  13.569 -0.0246 -0.7228  0.2249
 8236TIP3   OH246122   3.038   4.789  13.100 -0.2036 -0.5121 -0.3435
 8236TIP3    H146123   3.074   4.762  13.184 -1.1930  1.5674  0.7903
 8236TIP3    H246124   3.112   4.788  13.040  0.9741  0.0642  1.0713
 8237TIP3   OH246125   4.831   6.090   4.354  0.2616  0.2901 -0.3753
 8237TIP3    H146126   4.903   6.106   4.293  0.4470 -2.0379 -0.8229
 8237TIP3    H246127   4.762   6.051   4.300 -0.1485 -0.3661  0.6144
 8238TIP3   OH246128   5.374   2.979  13.540  0.2156  0.7459 -0.1837
 8238TIP3    H146129   5.284   2.961  13.567  1.1215 -0.3074  2.2599
 8238TIP3    H246130   5.401   3.052  13.596  1.1382  0.5060 -0.3179
 8239TIP3   OH246131   4.063   4.600   6.075  0.2476 -0.3253 -0.5863
 8239TIP3    H146132   4.023   4.546   6.144  1.3057  0.3731  0.5888
 8239TIP3    H246133   4.009   4.679   6.072  0.7308  0.0286  0.0562
 8240TIP3   OH246134   2.563   0.551   0.304  0.2275  0.4025 -0.4761
 8240TIP3    H146135   2.527   0.466   0.328 -0.4569  1.2562  1.6907
 8240TIP3    H246136   2.646   0.531   0.260  1.0759 -1.3473  1.8145
 8241TIP3   OH246137   4.912   3.892   3.190  0.0382  0.2964  0.4001
 8241TIP3    H146138   4.989   3.942   3.217  0.6608  0.5430 -1.7459
 8241TIP3    H246139   4.841   3.957   3.188 -0.2570  0.0643  2.3987
 8242TIP3   OH246140   0.620   4.551   0.347 -0.0127  0.1437 -0.4532
 8242TIP3    H146141   0.693   4.527   0.404 -0.1466 -0.0670 -0.3669
 8242TIP3    H246142   0.545   4.556   0.407  0.1090  1.2594 -0.3898
 8243TIP3   OH246143   6.007   2.413  15.857 -0.5041 -0.2602 -0.0104
 8243TIP3    H146144   5.976   2.427  15.767  1.6833 -0.1283 -0.7911
 8243TIP3    H246145   5.945   2.351  15.894 -2.1920  0.6749 -1.1866
 8244TIP3   OH246146   4.942   3.800  13.426 -0.2809 -0.2682 -0.3526
 8244TIP3    H146147   4.906   3.843  13.504 -2.7360  0.0228 -1.5898
 8244TIP3    H246148   4.903   3.712  13.427  1.5229 -1.0853 -0.0157
 8245TIP3   OH246149   4.952   4.701   0.551 -0.1126 -0.3526 -0.1572
 8245TIP3    H146150   4.919   4.615   0.576 -1.2702 -0.0910 -0.7509
 8245TIP3    H246151   4.903   4.723   0.471  1.3994  0.1102 -0.9732
 8246TIP3   OH246152   3.853   0.789  14.570 -0.0445  0.2493  0.1135
 8246TIP3    H146153   3.847   0.732  14.493  2.9913  0.0763 -0.0471
 8246TIP3    H246154   3.926   0.847  14.551 -1.7022  2.7752  1.2580
 8247TIP3   OH246155   5.591   1.532  16.386 -0.0737  0.5193  0.6275
 8247TIP3    H146156   5.563   1.613  16.343 -0.7252 -0.7339 -1.3841
 8247TIP3    H246157   5.671   1.507  16.340 -1.4508 -1.4981 -0.7420
 8248TIP3   OH246158   5.158   6.146  11.813  0.2453  0.4349 -0.4041
 8248TIP3    H146159   5.189   6.184  11.895 -2.8778 -0.9154  1.4744
 8248TIP3    H246160   5.197   6.059  11.811  0.6236  0.6064 -0.5462
 8249TIP3   OH246161   1.106   6.497  12.669 -0.0091  0.4623 -0.2408
 8249TIP3    H146162   1.060   6.581  12.672 -1.7789 -0.4851  0.4044
 8249TIP3    H246163   1.108   6.474  12.577 -1.0223  0.4412 -0.2680
 8250TIP3   OH246164   1.482   6.625  14.967 -0.2247  0.2357 -0.1771
 8250TIP3    H146165   1.507   6.629  14.875  0.6376  1.6041  0.0898
 8250TIP3    H246166   1.428   6.703  14.981 -1.0740 -0.4261  0.2767
 8251TIP3   OH246167   5.781   5.356   2.102 -0.5071 -0.4955  0.1161
 8251TIP3    H146168   5.788   5.280   2.045  1.3629 -0.0868 -0.2569
 8251TIP3    H246169   5.734   5.325   2.179 -0.2191 -1.8885 -0.2642
 8252TIP3   OH246170   0.489   1.782   0.897 -0.5776 -0.7416  0.3255
 8252TIP3    H146171   0.544   1.750   0.826  0.2780 -1.2313  1.1968
 8252TIP3    H246172   0.480   1.708   0.956  2.3863  0.8510  2.9378
 8253TIP3   OH246173   2.897   0.271  15.530  0.3957  0.1821 -0.4561
 8253TIP3    H146174   2.892   0.181  15.499  0.2550  0.8241 -2.3853
 8253TIP3    H246175   2.829   0.317  15.481  0.2875  1.2800  0.7005
 8254TIP3   OH246176   3.933   6.038   1.067 -0.0498 -0.0102  0.2900
 8254TIP3    H146177   3.914   5.950   1.099 -0.2514 -0.0611  0.0314
 8254TIP3    H246178   3.936   6.029   0.972 -1.5736  0.5489  0.1671
 8255TIP3   OH246179   6.036   1.213   3.878 -0.3426  0.2142 -0.8194
 8255TIP3    H146180   6.090   1.160   3.938 -1.8620 -0.6367 -0.1657
 8255TIP3    H246181   6.080   1.205   3.793  1.6126  1.1058  0.0765
 8256TIP3   OH246182   6.095   3.791  11.946 -0.7921  0.3091  0.1421
 8256TIP3    H146183   6.086   3.881  11.979 -0.9193  0.1818  0.4501
 8256TIP3    H246184   6.047   3.737  12.009  1.5112 -0.3024  1.4258
 8257TIP3   OH246185   6.450   4.763   3.047 -0.2281  0.1821 -0.4365
 8257TIP3    H146186   6.463   4.767   3.141  0.9176  1.5577 -0.6442
 8257TIP3    H246187   6.504   4.834   3.012 -2.0248  0.8047 -1.9900
 8258TIP3   OH246188   0.430   1.811   0.489  0.3308 -0.0067 -0.5251
 8258TIP3    H146189   0.346   1.820   0.445  0.6913  1.1884 -0.9856
 8258TIP3    H246190   0.482   1.885   0.458  1.3951 -0.4688  0.1120
 8259TIP3   OH246191   4.334   0.925   4.093  0.3640  0.3546 -0.2768
 8259TIP3    H146192   4.339   0.853   4.155 -0.0960 -0.6681 -1.4035
 8259TIP3    H246193   4.425   0.946   4.072  0.5290  0.9039  0.9447
 8260TIP3   OH246194   2.394   5.316  16.359 -0.1914 -0.2018  0.1015
 8260TIP3    H146195   2.439   5.274  16.432  2.8476  2.9995  0.1889
 8260TIP3    H246196   2.341   5.385  16.400  0.8343  1.0225 -0.5826
 8261TIP3   OH246197   3.673   5.220   2.100 -0.1434  0.2696  0.0827
 8261TIP3    H146198   3.731   5.164   2.152  2.1287  0.1444 -2.5090
 8261TIP3    H246199   3.598   5.164   2.080  0.9411 -1.0332 -0.3654
 8262TIP3   OH246200   0.621   3.284  15.106 -0.1490  0.4690 -0.0079
 8262TIP3    H146201   0.571   3.303  15.026 -2.6069  1.1674  1.6255
 8262TIP3    H246202   0.630   3.369  15.149  1.3217  0.1234  0.3639
 8263TIP3   OH246203   5.524   6.409  15.867  0.1173 -0.1006 -0.5312
 8263TIP3    H146204   5.580   6.484  15.846  1.2476 -0.8345 -0.2022
 8263TIP3    H246205   5.444   6.423  15.816 -0.9375  2.8815  1.7501
 8264TIP3   OH246206   1.163   2.450  15.933 -0.2704 -0.8628 -0.2690
 8264TIP3    H146207   1.179   2.503  15.855 -0.7484  1.4586  1.1546
 8264TIP3    H246208   1.251   2.433  15.968 -0.1461 -0.6057 -0.4553
 8265TIP3   OH246209   5.185   5.241  10.897 -0.4664 -0.0062 -0.3576
 8265TIP3    H146210   5.239   5.260  10.974 -0.3013  0.1305 -0.5049
 8265TIP3    H246211   5.105   5.202  10.932  0.2682 -1.4370 -0.2226
 8266TIP3   OH246212   0.143   0.532  14.225 -0.3349  1.1453 -0.0532
 8266TIP3    H146213   0.227   0.552  14.184 -0.3089  0.0377 -0.5476
 8266TIP3    H246214   0.104   0.618  14.241  0.3644  1.6348 -0.9106
 8267TIP3   OH246215   2.118   3.442   5.976  0.1140  0.2617 -0.2015
 8267TIP3    H146216   2.086   3.364   5.932 -0.4188  0.9447 -1.0458
 8267TIP3    H246217   2.164   3.409   6.053  3.1305 -1.1108 -2.4721
 8268TIP3   OH246218   2.570   4.234   0.758  0.2099  0.0712  0.0615
 8268TIP3    H146219   2.605   4.157   0.802  0.2790 -0.0317 -0.1723
 8268TIP3    H246220   2.592   4.220   0.666  1.2108  0.9097  0.1683
 8269TIP3   OH246221   0.045   1.144   3.980  0.6888  0.0418  0.2115
 8269TIP3    H146222   0.097   1.064   3.973 -1.6173 -1.4739 -0.0605
 8269TIP3    H246223   0.023   1.166   3.889  0.0575  0.1551  0.3949
 8270TIP3   OH246224   5.345   2.395   3.933 -0.4092  0.0237 -0.5473
 8270TIP3    H146225   5.430   2.422   3.968 -0.1751 -0.7534 -0.4965
 8270TIP3    H246226   5.292   2.377   4.010 -0.8529  1.2164 -0.5762
 8271TIP3   OH246227   2.646   4.081   1.415 -0.8811  0.1905 -0.2996
 8271TIP3    H146228   2.687   4.056   1.332  0.5938  0.4833  0.3152
 8271TIP3    H246229   2.666   4.008   1.474  0.8547  1.3999  0.6682
 8272TIP3   OH246230   2.878   0.591   5.568  0.5841  0.0205 -0.4383
 8272TIP3    H146231   2.804   0.635   5.528  1.3584  1.0282 -0.7716
 8272TIP3    H246232   2.932   0.561   5.495  0.8824 -0.0717 -0.1847
 8273TIP3   OH246233   0.716   3.433   1.485 -0.1054  0.1440 -0.4999
 8273TIP3    H146234   0.784   3.410   1.422 -0.3485 -0.2147 -0.6303
 8273TIP3    H246235   0.635   3.435   1.434 -0.1932  0.5732 -0.3456
 8274TIP3   OH246236   0.327   2.717  11.647 -0.0897 -0.6954 -0.1424
 8274TIP3    H146237   0.399   2.763  11.689 -0.2096 -0.7053  0.0756
 8274TIP3    H246238   0.369   2.655  11.588  0.0934 -1.0647  0.3723
 8275TIP3   OH246239   4.931   0.959  11.507  0.0979  0.0149 -0.5346
 8275TIP3    H146240   4.996   0.892  11.525  0.6003  0.6161 -0.0987
 8275TIP3    H246241   4.919   0.955  11.412  1.2119  0.3067 -0.6970
 8276TIP3   OH246242   2.320   5.447   3.924 -0.1612  0.3173 -0.4954
 8276TIP3    H146243   2.310   5.409   4.011 -0.6936  0.7426 -0.3671
 8276TIP3    H246244   2.350   5.536   3.940 -0.0716  0.3321 -0.7543
 8277TIP3   OH246245   5.298   6.729  12.187  0.4310 -0.4494 -0.3809
 8277TIP3    H146246   5.361   6.661  12.165  0.1055 -1.0131  0.4161
 8277TIP3    H246247   5.296   6.730  12.283  1.0775  1.2775 -0.3749
 8278TIP3   OH246248   5.317   4.391  14.900 -0.0991  0.3889  0.1570
 8278TIP3    H146249   5.229   4.369  14.870  0.4772 -0.5279 -0.9050
 8278TIP3    H246250   5.344   4.316  14.953 -0.6193  1.4475  1.9811
 8279TIP3   OH246251   3.935   6.683  14.089 -0.0294  0.3065  0.5645
 8279TIP3    H146252   3.929   6.702  14.183  0.1254 -0.7155  0.7919
 8279TIP3    H246253   3.848   6.651  14.065  0.0419  0.1983  0.4465
 8280TIP3   OH246254   2.443   5.097  17.058  0.0570  0.2672 -0.2569
 8280TIP3    H146255   2.361   5.102  17.108  0.0348  1.1022 -0.3745
 8280TIP3    H246256   2.508   5.137  17.116  0.7840 -2.1016  0.6364
 8281TIP3   OH246257   1.817   4.178   3.899  0.0306  0.8631  0.1489
 8281TIP3    H146258   1.905   4.213   3.915  0.1306  0.2564  0.9570
 8281TIP3    H246259   1.829   4.113   3.830  0.5115 -0.3975  1.3723
 8282TIP3   OH246260   1.690   1.468   5.201 -0.0347  0.0111  0.8650
 8282TIP3    H146261   1.669   1.396   5.260 -0.0292 -0.0131  0.8375
 8282TIP3    H246262   1.784   1.460   5.186 -0.2420 -0.7116 -0.1021
 8283TIP3   OH246263   5.240   3.064   5.659  0.2177 -0.7473  0.0938
 8283TIP3    H146264   5.182   3.017   5.719  0.7439 -1.9588 -0.3350
 8283TIP3    H246265   5.181   3.117   5.605 -0.4597 -1.5439  0.0345
 8284TIP3   OH246266   3.680   0.567  11.842  0.5801  0.0179  0.1365
 8284TIP3    H146267   3.692   0.649  11.793  1.1016 -0.3639 -0.3905
 8284TIP3    H246268   3.760   0.517  11.824  0.8865 -0.0358  1.5755
 8285TIP3   OH246269   6.190   1.002   1.105 -0.1785  0.0702  0.0142
 8285TIP3    H146270   6.121   1.056   1.064 -0.5162  0.6573  1.3246
 8285TIP3    H246271   6.211   1.048   1.186  0.6762 -0.9358  0.3715
 8286TIP3   OH246272   6.548   2.141   3.971 -0.6928  0.2667 -0.2709
 8286TIP3    H146273   6.510   2.122   3.885  0.6359 -3.9030 -0.0295
 8286TIP3    H246274   6.612   2.071   3.986  2.9393  3.7961  1.8835
 8287TIP3   OH246275   2.488   1.518  11.924 -0.2932  0.4735 -0.0463
 8287TIP3    H146276   2.555   1.586  11.923 -0.5278  0.7143  0.6546
 8287TIP3    H246277   2.411   1.560  11.961 -0.8958  0.2440 -1.0127
 8288TIP3   OH246278   2.506   5.676   4.530 -0.0153 -0.6157 -0.1770
 8288TIP3    H146279   2.532   5.707   4.617  0.5612 -0.5254 -0.3809
 8288TIP3    H246280   2.498   5.756   4.478  0.7203 -0.7449 -0.4976
 8289TIP3   OH246281   0.358   0.004   4.802  0.1348 -0.2034  0.3210
 8289TIP3    H146282   0.347   0.021   4.896 -1.6243  0.1214  0.0859
 8289TIP3    H246283   0.406   0.080   4.769  1.6428 -0.7955  1.1247
 8290TIP3   OH246284   0.075   3.174  15.076  0.0571 -0.1263  0.0830
 8290TIP3    H146285   0.013   3.155  15.146  0.1141 -1.7520 -0.2975
 8290TIP3    H246286   0.023   3.215  15.008 -0.5915 -1.3972 -0.1959
 8291TIP3   OH246287   4.084   0.080   0.611 -0.7674  0.0481  0.4337
 8291TIP3    H146288   4.071  -0.013   0.623 -0.1192 -0.1455 -0.2926
 8291TIP3    H246289   3.997   0.116   0.597 -0.8521 -0.7097 -1.0472
 8292TIP3   OH246290   5.913   6.539  16.251 -0.3246 -0.0138 -0.7439
 8292TIP3    H146291   5.898   6.616  16.304  1.5846 -0.6846  0.8084
 8292TIP3    H246292   5.994   6.557  16.203 -0.6845 -0.4217 -1.5135
 8293TIP3   OH246293   5.456   6.309  16.622 -0.0344  0.1026 -0.3430
 8293TIP3    H146294   5.504   6.390  16.641  0.1346  0.6270 -2.8061
 8293TIP3    H246295   5.489   6.246  16.686  0.6628  1.6638  0.8839
 8294TIP3   OH246296   0.856   2.243  15.018 -0.2850 -0.4154  0.0709
 8294TIP3    H146297   0.809   2.322  14.994  1.2846  0.2812 -0.7726
 8294TIP3    H246298   0.820   2.218  15.103  0.2116  2.0034  1.0179
 8295TIP3   OH246299   1.942   1.412   3.870 -0.1089  0.8803  0.8972
 8295TIP3    H146300   1.957   1.408   3.964  0.5826 -0.0218  0.7443
 8295TIP3    H246301   2.009   1.356   3.831 -0.5478  1.0376 -0.1208
 8296TIP3   OH246302   2.832   4.762   5.268 -0.2469 -0.0480  0.1772
 8296TIP3    H146303   2.836   4.811   5.186 -1.3438 -0.3713 -0.0770
 8296TIP3    H246304   2.786   4.821   5.329  2.1181  0.9102  1.0930
 8297TIP3   OH246305   6.285   5.237  12.682  0.4527  0.5241  0.7136
 8297TIP3    H146306   6.200   5.195  12.681  0.9281 -0.4413  0.2606
 8297TIP3    H246307   6.274   5.313  12.738 -0.3672 -0.2974  1.6672
 8298TIP3   OH246308   3.003   4.597   6.445  0.3341 -0.3168 -0.0162
 8298TIP3    H146309   2.949   4.537   6.496 -1.8437  1.2832 -0.3941
 8298TIP3    H246310   3.026   4.666   6.506  0.6352 -0.1807 -0.2822
 8299TIP3   OH246311   3.359   6.289  15.328 -0.1558 -0.1865  0.2647
 8299TIP3    H146312   3.400   6.364  15.369 -0.2003 -0.2213  0.3735
 8299TIP3    H246313   3.265   6.301  15.344 -0.1806 -0.1583  0.1029
 8300TIP3   OH246314   6.745   5.921   4.810  0.1914 -0.7164  0.3303
 8300TIP3    H146315   6.684   5.946   4.741 -0.6760 -2.5931  0.3791
 8300TIP3    H246316   6.827   5.904   4.765  1.0037  2.7407  0.3718
 8301TIP3   OH246317   6.749   5.282  16.975  0.5540  0.0726  0.0233
 8301TIP3    H146318   6.747   5.261  17.068 -1.2599  1.2668  0.2827
 8301TIP3    H246319   6.695   5.360  16.967 -0.7598 -1.0195 -2.2756
 8302TIP3   OH246320   5.974   4.604   2.585  0.2707 -0.2276  0.5858
 8302TIP3    H146321   5.970   4.565   2.498 -2.1489 -0.1517  0.6462
 8302TIP3    H246322   5.965   4.698   2.570  0.5075 -0.1555  0.8858
 8303TIP3   OH246323   4.630   0.742   3.499  0.3045 -0.2756  0.4858
 8303TIP3    H146324   4.686   0.665   3.507 -0.9632 -1.1177  1.2731
 8303TIP3    H246325   4.630   0.781   3.586 -0.5075 -0.3939  0.5412
 8304TIP3   OH246326   2.887   0.136  16.895  0.2805 -0.7634 -0.1433
 8304TIP3    H146327   2.976   0.131  16.931  0.9105  0.3241 -1.4988
 8304TIP3    H246328   2.832   0.097  16.963  1.4860  0.8038  1.8052
 8305TIP3   OH246329   1.718   2.060   6.411 -0.7181 -0.1435 -0.1544
 8305TIP3    H146330   1.674   2.033   6.492  1.3493  0.9075  1.3901
 8305TIP3    H246331   1.737   1.978   6.365 -0.9790 -0.8415  0.9522
 8306TIP3   OH246332   2.043   0.348  15.390  0.5287 -0.3899  0.2440
 8306TIP3    H146333   2.069   0.388  15.306 -0.4678  0.7198  0.4545
 8306TIP3    H246334   2.121   0.300  15.418  0.8144 -0.9595 -1.4244
 8307TIP3   OH246335   1.845   0.104   5.657 -0.0958  0.1098 -0.0590
 8307TIP3    H146336   1.914   0.164   5.626  0.4458 -0.2830  0.3776
 8307TIP3    H246337   1.784   0.099   5.584  1.0021 -0.5446 -0.9465
 8308TIP3   OH246338   4.162   4.598  14.816  0.4612 -0.1989 -0.0502
 8308TIP3    H146339   4.192   4.582  14.726 -0.1216  0.0264 -0.2843
 8308TIP3    H246340   4.087   4.657  14.806  0.4511 -0.1069  0.5913
 8309TIP3   OH246341   2.559   3.579  13.937  0.5186  0.2783 -0.4214
 8309TIP3    H146342   2.616   3.597  14.012  0.2937  1.0961 -0.4461
 8309TIP3    H246343   2.506   3.658  13.927  1.5126  0.7231 -2.3122
 8310TIP3   OH246344   4.165   2.405  13.582  0.0565 -0.5661 -0.5947
 8310TIP3    H146345   4.152   2.394  13.488 -0.5922 -0.4728 -0.5167
 8310TIP3    H246346   4.225   2.334  13.606  2.4128  1.0213 -1.5570
 8311TIP3   OH246347   0.640   4.282  14.157 -0.4714  0.2853 -0.3480
 8311TIP3    H146348   0.566   4.325  14.114 -0.7167 -0.1359 -0.3515
 8311TIP3    H246349   0.654   4.203  14.106 -0.6715 -0.1471  0.2561
 8312TIP3   OH246350   0.460   6.553  15.840 -0.5150 -0.0153 -0.5240
 8312TIP3    H146351   0.416   6.563  15.755  1.2712  1.8403 -1.2816
 8312TIP3    H246352   0.543   6.599  15.828 -0.6164  1.0283  2.5440
 8313TIP3   OH246353   3.077   5.071  12.981  0.2236  0.0191  0.2595
 8313TIP3    H146354   3.026   5.019  13.043  1.0350 -2.1777 -0.8677
 8313TIP3    H246355   3.022   5.075  12.903  1.9713 -2.8943 -1.1807
 8314TIP3   OH246356   6.723   5.813   4.472 -0.3301  0.2035  0.6099
 8314TIP3    H146357   6.677   5.771   4.400 -0.0101 -0.6910  0.9141
 8314TIP3    H246358   6.729   5.905   4.446  0.3369 -0.2138 -0.8048
 8315TIP3   OH246359   0.494   5.214  15.325 -0.3284 -0.0894  1.0328
 8315TIP3    H146360   0.586   5.188  15.338 -0.3880 -0.4708  0.6920
 8315TIP3    H246361   0.472   5.183  15.238 -1.2754 -1.4578  1.7427
 8316TIP3   OH246362   5.576   1.453  15.670  0.1827 -0.0827  0.0834
 8316TIP3    H146363   5.543   1.506  15.598 -0.5191 -1.5105 -0.6711
 8316TIP3    H246364   5.512   1.466  15.741  0.8230  1.2432  0.4230
 8317TIP3   OH246365   1.307   5.965  11.041  0.5280  0.0156  0.1163
 8317TIP3    H146366   1.378   5.915  11.002  0.2663 -0.9507  0.8609
 8317TIP3    H246367   1.231   5.946  10.986  0.8049  0.9149 -0.5806
 8318TIP3   OH246368   4.787   2.437  15.521  1.0257  0.3331 -0.2045
 8318TIP3    H146369   4.840   2.367  15.557  0.0449  0.1686  0.9438
 8318TIP3    H246370   4.713   2.392  15.479  1.1055  0.6103 -0.6414
 8319TIP3   OH246371   5.254   2.868  15.260 -1.4351 -0.1689 -0.0099
 8319TIP3    H146372   5.284   2.813  15.188 -1.9179 -0.9622  0.3864
 8319TIP3    H246373   5.328   2.925  15.279 -0.3688 -1.7289  0.6114
 8320TIP3   OH246374   3.541   6.315  15.572 -0.1535 -0.3151 -1.1074
 8320TIP3    H146375   3.519   6.227  15.600  0.2863 -0.0957 -0.0441
 8320TIP3    H246376   3.511   6.372  15.643  1.4587  0.1983 -0.8024
 8321TIP3   OH246377   2.060   4.205  16.335  0.2073 -0.1433  0.0082
 8321TIP3    H146378   1.975   4.173  16.364 -0.2115  2.5168  1.9425
 8321TIP3    H246379   2.122   4.169  16.398  0.4800 -1.6689 -1.1076
 8322TIP3   OH246380   6.056   4.845   1.140  0.2723  0.3689 -0.4238
 8322TIP3    H146381   6.063   4.834   1.045  2.7034 -0.8241 -0.1507
 8322TIP3    H246382   6.003   4.770   1.169  0.7134 -0.0407 -0.6772
 8323TIP3   OH246383   4.984   3.631  12.592  0.4141 -0.3897  0.4487
 8323TIP3    H146384   5.057   3.575  12.564  0.7226  0.7070 -0.9982
 8323TIP3    H246385   5.014   3.669  12.674  0.9715 -0.8948  0.4849
 8324TIP3   OH246386   4.291   5.622  14.030  0.0499  0.2562 -0.3506
 8324TIP3    H146387   4.301   5.527  14.039  0.0468  0.1032 -1.8878
 8324TIP3    H246388   4.329   5.658  14.110 -0.2240 -1.0557  0.3822
 8325TIP3   OH246389   1.769   6.459  16.187  0.1749  0.3869 -0.1324
 8325TIP3    H146390   1.784   6.471  16.094 -2.1140  1.1422 -0.4526
 8325TIP3    H246391   1.828   6.520  16.230  0.6757  0.5974 -1.1190
 8326TIP3   OH246392   1.371   4.450  10.877  0.0551  0.7099 -0.0444
 8326TIP3    H146393   1.345   4.513  10.809 -0.9736  0.8472  0.4762
 8326TIP3    H246394   1.297   4.446  10.937  0.5580 -0.1710  0.5403
 8327TIP3   OH246395   2.746   5.203   2.920 -0.3289 -0.3697  0.4327
 8327TIP3    H146396   2.823   5.179   2.971  1.1547 -1.8064 -2.3966
 8327TIP3    H246397   2.683   5.133   2.937 -0.1316 -0.4348  0.9067
 8328TIP3   OH246398   0.317   6.278   1.026  0.2383  0.5168  0.1995
 8328TIP3    H146399   0.258   6.251   1.097 -0.7623  1.2532 -0.3450
 8328TIP3    H246400   0.308   6.374   1.023 -0.4652  0.4136 -1.5538
 8329TIP3   OH246401   2.503   2.606   1.064  0.7466 -0.2575  0.0440
 8329TIP3    H146402   2.544   2.532   1.109  1.0377  0.0517  0.2919
 8329TIP3    H246403   2.421   2.571   1.030  1.4993 -1.0345 -0.9711
 8330TIP3   OH246404   2.297   0.261  15.519  0.0260  0.1605  0.0555
 8330TIP3    H146405   2.363   0.230  15.582  0.3585 -0.4066 -0.5663
 8330TIP3    H246406   2.345   0.321  15.462 -0.4467  1.2443  0.7935
 8331TIP3   OH246407   6.028   4.664  13.719  0.0855  0.0717 -0.0770
 8331TIP3    H146408   5.981   4.639  13.798 -1.0014 -0.4110 -0.8753
 8331TIP3    H246409   6.048   4.757  13.732  1.4758 -0.4171  1.5355
 8332TIP3   OH246410   3.615   5.850  15.597  0.6228  0.1251  0.4124
 8332TIP3    H146411   3.684   5.914  15.582  1.3087 -0.5411  0.7062
 8332TIP3    H246412   3.565   5.886  15.671  1.5131 -0.0843  1.1337
 8333TIP3   OH246413   4.804   0.754   6.105  0.4526  0.0182 -0.3911
 8333TIP3    H146414   4.884   0.764   6.156  0.9525 -1.7366 -0.8087
 8333TIP3    H246415   4.831   0.706   6.027 -1.0267 -0.6231 -0.5258
 8334TIP3   OH246416   2.455   0.502  11.285 -0.0690  0.4360  0.4699
 8334TIP3    H146417   2.376   0.449  11.271 -1.6168  2.3409  1.7080
 8334TIP3    H246418   2.422   0.585  11.319  2.3295  2.1484 -1.2696
 8335TIP3   OH246419   1.990   4.453   0.697  0.1107  0.4176 -0.3564
 8335TIP3    H146420   1.985   4.487   0.607  0.1149  0.2751 -0.4111
 8335TIP3    H246421   2.083   4.439   0.713  0.1236  0.6074 -0.2680
 8336TIP3   OH246422   0.213   3.673  13.478 -0.0306  0.5660 -0.6833
 8336TIP3    H146423   0.217   3.599  13.418 -1.0287 -1.0122  1.1313
 8336TIP3    H246424   0.296   3.670  13.526  0.4585  1.3907 -1.4629
 8337TIP3   OH246425   3.306   1.474  17.186  0.4366  0.3362  0.3034
 8337TIP3    H146426   3.253   1.394  17.186 -1.5477  1.6014 -0.7783
 8337TIP3    H246427   3.368   1.463  17.115 -0.6664  0.2752 -0.6562
 8338TIP3   OH246428   4.416   0.286  12.304 -0.7341 -0.5441 -0.5012
 8338TIP3    H146429   4.475   0.275  12.379 -0.5543  0.0636 -0.5537
 8338TIP3    H246430   4.450   0.226  12.238  0.0234  0.0323 -0.6464
 8339TIP3   OH246431   3.317   2.074   5.652  0.1773  0.7598 -0.2390
 8339TIP3    H146432   3.308   2.096   5.745 -0.9092 -1.0350  0.1142
 8339TIP3    H246433   3.288   2.152   5.605 -0.8033  1.1239  0.9443
 8340TIP3   OH246434   3.005   5.936   4.476  0.1123 -0.1400  0.9418
 8340TIP3    H146435   3.072   5.867   4.478  0.0291 -0.3687 -1.6395
 8340TIP3    H246436   3.049   6.014   4.507  1.7703 -0.1675 -1.2719
 8341TIP3   OH246437   4.940   4.184  16.298 -0.0444  0.2474  0.2629
 8341TIP3    H146438   4.858   4.206  16.254 -0.0075  1.4960  0.8054
 8341TIP3    H246439   4.924   4.203  16.391  0.6021 -0.2315  0.4773
 8342TIP3   OH246440   3.562   2.762  13.947  0.0659 -0.2779 -0.4490
 8342TIP3    H146441   3.544   2.795  14.035  0.8954  2.2539 -1.1959
 8342TIP3    H246442   3.656   2.746  13.946 -0.0318 -0.8642 -0.7114
 8343TIP3   OH246443   3.395   3.622  12.776  0.2271  0.1190 -0.1678
 8343TIP3    H146444   3.326   3.688  12.772  0.4538  0.2663 -1.7466
 8343TIP3    H246445   3.391   3.577  12.692  0.7913 -1.1578  0.4733
 8344TIP3   OH246446   3.039   0.939  14.670  0.0845 -0.2564 -0.3764
 8344TIP3    H146447   3.052   0.974  14.582  1.8052  1.7898  0.6695
 8344TIP3    H246448   3.101   0.866  14.676 -0.4585 -0.7871 -1.0303
 8345TIP3   OH246449   3.244   5.266   0.324 -0.3992 -0.2870  0.1722
 8345TIP3    H146450   3.237   5.294   0.416  0.2532 -0.5626  0.3075
 8345TIP3    H246451   3.279   5.343   0.279  2.7806 -1.2977  0.7936
 8346TIP3   OH246452   3.602   1.572   4.887  0.1757  0.6019  0.5847
 8346TIP3    H146453   3.608   1.593   4.794 -0.6294 -1.2969  0.0739
 8346TIP3    H246454   3.520   1.523   4.895  0.9319 -0.4674  2.0457
 8347TIP3   OH246455   5.788   0.105  11.262  0.3640  0.5124 -0.2694
 8347TIP3    H146456   5.732   0.081  11.336 -0.0733 -0.1916 -0.8222
 8347TIP3    H246457   5.810   0.197  11.278 -0.1545  0.5185  0.4614
 8348TIP3   OH246458   5.598   1.069  12.606 -0.2555  0.1174  0.6428
 8348TIP3    H146459   5.593   1.072  12.510 -1.3301  1.6795  0.7352
 8348TIP3    H246460   5.654   1.143  12.629  0.6444 -0.7265  1.1880
 8349TIP3   OH246461   5.463   6.032   5.945 -0.0089 -0.0213 -0.0966
 8349TIP3    H146462   5.372   6.008   5.931  0.0505 -1.3253  1.5796
 8349TIP3    H246463   5.462   6.091   6.020  0.4656  0.4319 -0.4402
 8350TIP3   OH246464   3.887   3.763  15.060 -0.0948 -0.5882 -0.1610
 8350TIP3    H146465   3.823   3.826  15.093 -0.2729 -0.0644 -1.4789
 8350TIP3    H246466   3.967   3.783  15.108 -0.1139  0.7451 -0.6654
 8351TIP3   OH246467   0.232   1.995   1.244 -0.1462  0.7418  0.1457
 8351TIP3    H146468   0.255   2.069   1.188 -1.0301  0.8728 -0.0543
 8351TIP3    H246469   0.158   1.953   1.200  1.3895 -1.2683 -0.6079
 8352TIP3   OH246470   2.988   6.555  13.350  0.4107  0.2425  0.0593
 8352TIP3    H146471   3.075   6.561  13.310 -0.4827 -1.5585 -2.2920
 8352TIP3    H246472   2.983   6.465  13.383 -0.1444  0.6935  1.2408
 8353TIP3   OH246473   5.473   5.131   3.717 -0.2232 -0.4295 -0.5516
 8353TIP3    H146474   5.475   5.214   3.669  0.6900 -0.2416 -0.2009
 8353TIP3    H246475   5.550   5.084   3.686 -0.3625 -0.8654 -0.2367
 8354TIP3   OH246476   1.585   1.414  11.378  0.1164  0.1088 -0.5240
 8354TIP3    H146477   1.631   1.498  11.379  1.5053 -0.6483  1.8527
 8354TIP3    H246478   1.619   1.368  11.301 -0.2707  1.4999 -1.5395
 8355TIP3   OH246479   4.315   6.697  15.226 -0.0881 -0.2408  0.0917
 8355TIP3    H146480   4.320   6.601  15.230 -0.5786 -0.2346  0.7911
 8355TIP3    H246481   4.222   6.716  15.214 -0.0987  0.1768  0.8059
 8356TIP3   OH246482   1.016   2.226  11.812  0.3197  0.1502 -0.7299
 8356TIP3    H146483   1.096   2.275  11.795  0.5004  0.5201  1.0506
 8356TIP3    H246484   0.954   2.292  11.843  0.3991 -0.6511  1.1741
 8357TIP3   OH246485   4.775   2.104  11.757  0.1044 -0.2310  0.0500
 8357TIP3    H146486   4.750   2.013  11.742  3.4708 -0.8616 -2.2296
 8357TIP3    H246487   4.743   2.151  11.680  1.1110 -0.0561 -0.2651
 8358TIP3   OH246488   2.272   2.682  12.664 -0.5826  0.9061  0.0904
 8358TIP3    H146489   2.358   2.699  12.625  0.6672 -1.8587  1.4753
 8358TIP3    H246490   2.267   2.742  12.738  0.2020  1.0273  0.0447
 8359TIP3   OH246491   0.691   1.604   3.943  0.8005 -0.0660 -0.3414
 8359TIP3    H146492   0.633   1.615   3.868  0.0822  0.3084  0.2685
 8359TIP3    H246493   0.731   1.517   3.929  0.5134 -0.0927 -1.0370
 8360TIP3   OH246494   0.450   3.508   5.508 -0.4055 -0.1493  0.9580
 8360TIP3    H146495   0.516   3.571   5.481 -2.4512  1.4559 -0.4581
 8360TIP3    H246496   0.497   3.446   5.564  2.0047  1.6444  0.9881
 8361TIP3   OH246497   2.605   4.497  15.336 -0.6196  0.2326  0.1362
 8361TIP3    H146498   2.681   4.474  15.389  1.8193  0.7145 -2.9569
 8361TIP3    H246499   2.581   4.585  15.366 -0.0348  0.0225  1.2389
 8362TIP3   OH246500   5.822   6.508  13.779  0.5298 -0.2191 -0.3090
 8362TIP3    H146501   5.885   6.520  13.708  0.6948  1.9951  0.1680
 8362TIP3    H246502   5.864   6.547  13.855  0.4877 -2.8844  1.1026
 8363TIP3   OH246503   5.269   6.629   5.719 -0.7148  0.5656 -0.1220
 8363TIP3    H146504   5.263   6.535   5.735 -2.3660  1.0946  2.6391
 8363TIP3    H246505   5.277   6.636   5.623  1.7076 -2.4210 -0.2149
 8364TIP3   OH246506   3.222   2.854   2.077  0.3518 -0.7040  0.4225
 8364TIP3    H146507   3.213   2.817   1.989  1.0667  0.0840  0.0110
 8364TIP3    H246508   3.148   2.818   2.126 -1.0616  0.2195 -0.9871
 8365TIP3   OH246509   4.165   6.106  14.426 -0.1583  0.5139  0.5861
 8365TIP3    H146510   4.256   6.133  14.413  0.8257 -2.1053  1.8066
 8365TIP3    H246511   4.168   6.044  14.499 -2.9847  0.6996  0.9039
 8366TIP3   OH246512   4.533   0.122   3.516 -0.2695 -0.3474 -0.2149
 8366TIP3    H146513   4.570   0.093   3.433  0.2132  1.9192 -0.8242
 8366TIP3    H246514   4.453   0.071   3.526 -0.4687 -0.4414 -2.2208
 8367TIP3   OH246515   1.739   4.012   0.694  0.3177  0.1843 -0.0401
 8367TIP3    H146516   1.675   3.990   0.761  1.7199 -1.6703  0.7136
 8367TIP3    H246517   1.800   4.072   0.737  0.7668 -0.3897  0.1394
 8368TIP3   OH246518   4.934   6.714   2.029  0.6412  0.2705 -0.2286
 8368TIP3    H146519   4.969   6.775   2.094  0.1966  1.4638 -1.1068
 8368TIP3    H246520   4.848   6.690   2.062  0.4736  0.7658 -0.3090
 8369TIP3   OH246521   1.033   5.101   1.685  0.2545  0.8397  0.3698
 8369TIP3    H146522   0.997   5.092   1.597 -0.4452  1.1036  0.6231
 8369TIP3    H246523   1.040   5.195   1.699 -0.0620  0.8099  0.7606
 8370TIP3   OH246524   0.943   4.004  15.042  0.0469  0.3000  0.0052
 8370TIP3    H146525   1.012   4.033  14.982  1.1577 -1.3775  0.4372
 8370TIP3    H246526   0.917   3.918  15.010  0.2203 -0.3449  1.5319
 8371TIP3   OH246527   6.197   3.872   1.995 -0.2299  0.3234  0.6965
 8371TIP3    H146528   6.233   3.822   1.922 -2.1460  0.3856 -0.3126
 8371TIP3    H246529   6.192   3.962   1.963  1.0929  0.7728  1.7239
 8372TIP3   OH246530   4.898   1.755  12.208 -0.1068  0.0636  0.2785
 8372TIP3    H146531   4.867   1.731  12.295  0.3524 -0.4230  0.3084
 8372TIP3    H246532   4.986   1.790  12.222 -0.0814  0.1051  0.0250
 8373TIP3   OH246533   2.572   1.309   3.895 -0.0114 -0.1601 -0.2022
 8373TIP3    H146534   2.620   1.329   3.815 -0.7812  1.0203 -0.3770
 8373TIP3    H246535   2.587   1.215   3.910  2.3540  0.1810 -0.2495
 8374TIP3   OH246536   4.909   6.263   3.876  0.1494  0.4005 -0.0559
 8374TIP3    H146537   4.902   6.171   3.900  1.9818  0.0832 -0.6523
 8374TIP3    H246538   5.002   6.282   3.879  0.0170  1.6009 -2.2622
 8375TIP3   OH246539   0.036   5.931  13.977 -0.2989 -0.0778 -0.6942
 8375TIP3    H146540  -0.031   5.899  14.037  0.3558 -0.9532 -0.4263
 8375TIP3    H246541  -0.012   5.958  13.898 -0.9789 -0.4661 -0.4083
 8376TIP3   OH246542   6.416   3.825  14.943  0.4940 -0.2572 -0.4508
 8376TIP3    H146543   6.397   3.899  15.001  3.5796  0.8078 -0.6690
 8376TIP3    H246544   6.437   3.866  14.859  1.4602 -1.4162 -0.7901
 8377TIP3   OH246545   1.368   5.796   1.297 -0.1970 -0.1813 -0.2109
 8377TIP3    H146546   1.298   5.748   1.253  0.7244 -1.1908 -0.5809
 8377TIP3    H246547   1.366   5.883   1.257 -0.5647 -0.5183 -0.9324
 8378TIP3   OH246548   6.238   5.149   4.358 -0.6252  0.0626  0.0978
 8378TIP3    H146549   6.233   5.243   4.377  0.6357 -0.0928  1.3153
 8378TIP3    H246550   6.174   5.135   4.289  0.3291  2.1291 -1.2661
 8379TIP3   OH246551   2.294   4.857   2.313  0.0917  0.4829  0.5417
 8379TIP3    H146552   2.263   4.943   2.283  1.5195  1.5330  2.0102
 8379TIP3    H246553   2.364   4.834   2.251 -0.9680 -0.1015 -0.4543
 8380TIP3   OH246554   6.494   4.119  11.369  0.5649 -0.3043  0.5409
 8380TIP3    H146555   6.459   4.079  11.290 -0.7859 -0.6697  1.3182
 8380TIP3    H246556   6.417   4.147  11.418  1.4437  2.5428  0.3990
 8381TIP3   OH246557   2.642   5.366   1.406 -0.0506 -0.1711 -0.2390
 8381TIP3    H146558   2.693   5.420   1.466  1.2205  0.9464 -2.2453
 8381TIP3    H246559   2.593   5.306   1.462  0.1816  1.6171  1.9478
 8382TIP3   OH246560   1.848   4.834   0.569 -0.5750  0.2204 -0.3488
 8382TIP3    H146561   1.815   4.910   0.617 -0.8153 -0.4333  0.5228
 8382TIP3    H246562   1.897   4.784   0.634 -0.0204 -0.1381 -1.0364
 8383TIP3   OH246563   0.012   3.690  13.796  0.0187  0.0507  0.8451
 8383TIP3    H146564  -0.069   3.683  13.845 -1.0915  1.3914 -0.7512
 8383TIP3    H246565   0.032   3.784  13.796 -0.4768  0.1931 -1.9883
 8384TIP3   OH246566   6.713   2.841   2.169  0.3553 -0.6357 -0.1431
 8384TIP3    H146567   6.719   2.747   2.186  0.3564 -0.3955  1.2600
 8384TIP3    H246568   6.725   2.849   2.074  0.0219 -2.0726 -0.3192
 8385TIP3   OH246569   2.828   5.872   4.674  0.1120  0.0698 -0.2836
 8385TIP3    H146570   2.871   5.912   4.598  0.7160 -0.0935 -0.0266
 8385TIP3    H246571   2.860   5.782   4.676  0.5661  0.2406  0.5134
 8386TIP3   OH246572   3.877   0.466   5.288 -0.1300 -0.3349 -0.6153
 8386TIP3    H146573   3.797   0.501   5.250 -0.1442 -1.9236 -2.1021
 8386TIP3    H246574   3.872   0.492   5.380 -2.4222 -0.5076 -0.6437
 8387TIP3   OH246575   0.082   2.720   0.534  0.3290 -0.3156  0.1868
 8387TIP3    H146576   0.131   2.693   0.612  0.0371  1.0288  0.8352
 8387TIP3    H246577  -0.008   2.693   0.552  0.0580  0.9780  0.7868
 8388TIP3   OH246578   6.582   3.180  13.669  0.3991  0.3578 -0.5877
 8388TIP3    H146579   6.643   3.245  13.635 -0.8946  1.7036 -0.3970
 8388TIP3    H246580   6.557   3.127  13.593  3.0518 -1.3096 -0.3777
 8389TIP3   OH246581   3.783   1.288   5.529 -0.0892  0.4189 -0.5128
 8389TIP3    H146582   3.825   1.337   5.459 -2.7313 -0.2407 -2.6713
 8389TIP3    H246583   3.699   1.260   5.491 -0.9512 -1.1987  2.4376
 8390TIP3   OH246584   3.389   6.768   0.376  0.2625 -0.3546 -0.3284
 8390TIP3    H146585   3.433   6.693   0.414 -0.9252 -0.5018  0.8037
 8390TIP3    H246586   3.393   6.754   0.282 -0.0992 -1.9241 -0.1173
 8391TIP3   OH246587   4.176   6.112   3.896  0.7440 -0.5653  0.0500
 8391TIP3    H146588   4.252   6.054   3.907 -0.0908 -2.0340 -1.6295
 8391TIP3    H246589   4.109   6.073   3.952  1.0630  0.4414  1.1394
 8392TIP3   OH246590   0.993   6.004   6.005  0.3835 -0.2679 -0.3462
 8392TIP3    H146591   1.049   6.039   6.074  0.7473 -0.4148 -0.5664
 8392TIP3    H246592   0.918   5.966   6.052  1.4863 -1.9476  0.0962
 8393TIP3   OH246593   5.994   0.200  13.940 -0.1434  0.0230 -0.8317
 8393TIP3    H146594   6.060   0.267  13.955 -2.2694  1.9083  0.3037
 8393TIP3    H246595   5.962   0.217  13.851 -0.3224  0.1799 -0.7361
 8394TIP3   OH246596   2.546   5.212  14.954  0.6313  0.3760  0.2068
 8394TIP3    H146597   2.502   5.297  14.950  0.5659  0.2874 -0.9986
 8394TIP3    H246598   2.532   5.173  14.868 -1.0604 -1.7486  1.3915
 8395TIP3   OH246599   3.819   5.624  15.542  0.2104  0.3760 -0.6040
 8395TIP3    H146600   3.878   5.672  15.483  1.6615  0.5549  0.9591
 8395TIP3    H246601   3.771   5.692  15.589  0.4769  0.2634 -0.1657
 8396TIP3   OH246602   2.244   4.075  15.700 -0.1800 -0.0099 -0.6242
 8396TIP3    H146603   2.154   4.044  15.716  0.0243 -0.1004  0.3826
 8396TIP3    H246604   2.269   4.119  15.781  0.4521  0.5874 -1.1436
 8397TIP3   OH246605   0.273   0.339   2.534 -0.2520  0.0696 -0.0717
 8397TIP3    H146606   0.262   0.394   2.457 -0.9961  0.2624  0.1692
 8397TIP3    H246607   0.212   0.374   2.599 -0.3267 -0.6826  0.2794
 8398TIP3   OH246608   2.649   3.240  14.693  0.2334 -0.0606 -0.1574
 8398TIP3    H146609   2.704   3.312  14.663  0.7889 -0.3497  0.1614
 8398TIP3    H246610   2.711   3.174  14.724 -0.0354 -2.6925 -4.7977
 8399TIP3   OH246611   0.747   5.478   2.799  0.1235  0.0700 -0.0230
 8399TIP3    H146612   0.707   5.407   2.850 -0.3616  0.8116  0.6332
 8399TIP3    H246613   0.819   5.509   2.853 -0.3899  0.8545  0.2258
 8400TIP3   OH246614   5.414   2.393   4.483  0.0567 -0.4955  0.2106
 8400TIP3    H146615   5.323   2.396   4.452 -0.0442 -1.4458  0.3754
 8400TIP3    H246616   5.444   2.483   4.479 -0.1488 -0.4983 -2.0996
 8401TIP3   OH246617   0.762   6.025  14.692  0.0271  0.3263 -0.2500
 8401TIP3    H146618   0.740   5.962  14.761  1.4145  0.1553  0.0457
 8401TIP3    H246619   0.701   6.004  14.621 -2.8385  1.8770  1.6643
 8402TIP3   OH246620   6.593   5.540  11.999  0.2418  0.1660 -0.1544
 8402TIP3    H146621   6.562   5.462  12.044  0.8783 -0.8982 -1.4912
 8402TIP3    H246622   6.646   5.505  11.927 -0.5395  1.8061 -1.5507
 8403TIP3   OH246623   0.501   5.922  11.547  0.1634  0.2510  0.5212
 8403TIP3    H146624   0.425   5.928  11.490 -1.0381  0.6411  2.1185
 8403TIP3    H246625   0.531   5.832  11.538 -3.0465 -1.1951  2.9846
 8404TIP3   OH246626   3.125   1.203  15.256 -0.4254  0.1383  0.0836
 8404TIP3    H146627   3.204   1.217  15.203 -0.6108  0.1744 -0.1849
 8404TIP3    H246628   3.081   1.288  15.256  0.9063  0.8624  2.4978
 8405TIP3   OH246629   4.471   4.618   1.523  0.0868  0.6617  0.0100
 8405TIP3    H146630   4.563   4.591   1.522  0.1025  0.6947  0.3032
 8405TIP3    H246631   4.432   4.577   1.446  0.6528  1.7336 -0.8537
 8406TIP3   OH246632   2.301   5.981   5.903  0.1204  0.6448 -0.0560
 8406TIP3    H146633   2.333   6.069   5.882  1.1628  0.2822 -0.0071
 8406TIP3    H246634   2.322   5.970   5.996 -0.1440  0.4052 -0.0263
 8407TIP3   OH246635   0.723   1.673   3.307 -0.2555  0.1633 -0.1076
 8407TIP3    H146636   0.727   1.598   3.247  0.0242  0.6933 -0.7633
 8407TIP3    H246637   0.815   1.700   3.316 -0.4642  1.0888 -0.7261
 8408TIP3   OH246638   4.049   2.741   2.664  0.4847 -0.1785 -0.2266
 8408TIP3    H146639   4.113   2.805   2.636 -0.3764  1.4634  1.4226
 8408TIP3    H246640   3.965   2.772   2.629 -0.3559  1.0764  2.7027
 8409TIP3   OH246641   3.950   6.136   6.448 -0.0612  0.2542  0.1134
 8409TIP3    H146642   4.020   6.135   6.513 -0.0068  2.0546  0.1038
 8409TIP3    H246643   3.887   6.070   6.479  2.2596 -2.3724 -0.6085
 8410TIP3   OH246644   4.752   2.501  16.730 -0.3936  0.3546 -0.4623
 8410TIP3    H146645   4.743   2.587  16.770 -0.0582  1.0388 -1.8105
 8410TIP3    H246646   4.846   2.485  16.727 -0.5290 -1.3173  2.3170
 8411TIP3   OH246647   4.649   1.995  16.625  0.4329 -0.3198 -0.2343
 8411TIP3    H146648   4.668   1.978  16.717  1.1586  1.2654 -0.0802
 8411TIP3    H246649   4.643   1.908  16.585  0.0562 -1.0164  1.3122
 8412TIP3   OH246650   4.064   1.550  17.058 -0.2618 -0.5627  0.2592
 8412TIP3    H146651   4.093   1.521  17.145 -0.3318 -0.2203  0.3983
 8412TIP3    H246652   4.142   1.590  17.019  0.0471 -1.6260 -0.2335
 8413TIP3   OH246653   5.284   3.861  15.298  0.7936  0.6217  0.4626
 8413TIP3    H146654   5.261   3.807  15.374  1.0510  0.9843  0.8003
 8413TIP3    H246655   5.274   3.951  15.329  1.4576  0.7717  0.2399
 8414TIP3   OH246656   0.367   2.356  15.096  0.1211  0.3287 -0.2001
 8414TIP3    H146657   0.320   2.439  15.103 -0.6707  0.0526 -1.8935
 8414TIP3    H246658   0.354   2.313  15.181 -0.5916  1.3431  0.2048
 8415TIP3   OH246659   2.460   6.399   4.520  0.3672 -0.3589  0.2946
 8415TIP3    H146660   2.512   6.412   4.441 -2.3628  2.2701 -1.1653
 8415TIP3    H246661   2.398   6.330   4.498  0.2318 -0.2890  0.4476
 8416TIP3   OH246662   2.311   3.238  13.383 -0.5331  0.3818 -0.3662
 8416TIP3    H146663   2.372   3.171  13.414  0.6657  1.4295 -0.4628
 8416TIP3    H246664   2.269   3.270  13.464 -0.1989  0.4078 -0.2037
 8417TIP3   OH246665   4.771   6.703  13.598 -0.4596  0.7768  0.1154
 8417TIP3    H146666   4.790   6.782  13.648 -1.2790  0.2624  1.2464
 8417TIP3    H246667   4.731   6.643  13.661  0.7083 -0.7771 -0.5897
 8418TIP3   OH246668   4.320   0.785   3.258 -0.5965 -0.5972  0.3150
 8418TIP3    H146669   4.235   0.784   3.303  0.6346  0.7541  2.7617
 8418TIP3    H246670   4.357   0.699   3.276 -1.7955 -1.5114 -1.4912
 8419TIP3   OH246671   5.004   1.975   0.916 -0.1216 -0.2627 -0.5843
 8419TIP3    H146672   4.948   1.898   0.902 -0.7800  0.3856 -1.6831
 8419TIP3    H246673   5.079   1.943   0.964 -0.7204 -1.4676 -0.4483
 8420TIP3   OH246674   2.633   2.249  17.067 -0.3376 -0.2015 -0.7798
 8420TIP3    H146675   2.691   2.213  16.999 -0.2260 -2.7566  0.6008
 8420TIP3    H246676   2.551   2.202  17.054 -0.1567 -1.0847  1.1375
 8421TIP3   OH246677   4.235   1.871  13.766  0.5138 -0.3004 -0.1015
 8421TIP3    H146678   4.305   1.811  13.738  3.6767  1.9236  2.5931
 8421TIP3    H246679   4.253   1.887  13.859 -1.8668  2.6307 -0.0757
 8422TIP3   OH246680   4.218   1.665  12.545 -0.0217  0.2233  0.1665
 8422TIP3    H146681   4.261   1.677  12.460  0.2732 -1.3509  0.0807
 8422TIP3    H246682   4.226   1.571  12.563 -3.8414 -0.2073 -0.0609
 8423TIP3   OH246683   2.579   1.612  14.158 -0.1240 -0.1485  0.3092
 8423TIP3    H146684   2.493   1.586  14.125 -0.9652  1.5894  1.0022
 8423TIP3    H246685   2.616   1.666  14.088 -0.2606  0.3348  0.6000
 8424TIP3   OH246686   1.166   2.975  11.176  0.6195  0.3814  0.3051
 8424TIP3    H146687   1.108   3.050  11.163  2.5043  2.0983  1.4594
 8424TIP3    H246688   1.216   2.968  11.094  0.3653  0.3224  0.1567
 8425TIP3   OH246689   0.324   5.917  15.965  0.0183  0.0170  0.5090
 8425TIP3    H146690   0.304   5.826  15.987  2.0891 -0.6878 -0.3662
 8425TIP3    H246691   0.363   5.954  16.044  1.8741 -0.7499 -0.0073
 8426TIP3   OH246692   3.579   4.566  11.698 -0.0190 -0.3744 -0.2503
 8426TIP3    H146693   3.521   4.519  11.639  0.8620  0.1785 -1.5912
 8426TIP3    H246694   3.565   4.658  11.678 -0.8145 -0.1011  1.4776
 8427TIP3   OH246695   6.710   4.027   6.350 -0.2564 -0.3044  0.3386
 8427TIP3    H146696   6.806   4.033   6.350 -0.3360  1.1071 -0.6321
 8427TIP3    H246697   6.687   4.027   6.257 -1.4679  3.9828  0.5566
 8428TIP3   OH246698   6.032   3.579  12.359  0.2531  0.4932 -0.2564
 8428TIP3    H146699   6.022   3.621  12.444 -0.7438  0.6508 -0.4467
 8428TIP3    H246700   6.019   3.486  12.376  3.4080  0.1093  0.3262
 8429TIP3   OH246701   0.194   5.943  14.634  0.0879  0.9157  0.7655
 8429TIP3    H146702   0.260   5.927  14.701 -0.7798  0.8989  1.6319
 8429TIP3    H246703   0.112   5.952  14.683 -0.3048  2.5875 -0.1565
 8430TIP3   OH246704   4.499   5.921  13.164  0.4489  0.1768 -0.2371
 8430TIP3    H146705   4.572   5.983  13.156  0.9804 -0.1756  1.6596
 8430TIP3    H246706   4.423   5.969  13.130  1.2898  1.0823 -0.8495
 8431TIP3   OH246707   4.924   2.177   4.311 -0.1899  0.4453  0.1959
 8431TIP3    H146708   4.877   2.116   4.254  1.1343 -2.3767  2.0237
 8431TIP3    H246709   4.931   2.257   4.260 -2.4804 -0.7403 -2.0660
 8432TIP3   OH246710   3.864   0.369   5.829 -0.1122 -0.3720 -0.0028
 8432TIP3    H146711   3.850   0.388   5.736 -0.9720  0.6564  0.3314
 8432TIP3    H246712   3.863   0.274   5.834  0.7372 -0.4569 -1.1719
 8433TIP3   OH246713   1.693   6.469   3.427  0.5381  0.1638 -0.0720
 8433TIP3    H146714   1.690   6.476   3.522 -0.8208  0.8881 -0.1623
 8433TIP3    H246715   1.609   6.431   3.402  0.4541  0.9516 -1.0566
 8434TIP3   OH246716   2.114   0.687  10.413  0.5534 -0.3182  0.1364
 8434TIP3    H146717   2.103   0.770  10.460  1.1397 -0.7498  1.0455
 8434TIP3    H246718   2.142   0.713  10.325 -1.4267  0.5368 -0.2749
 8435TIP3   OH246719   6.524   1.668   4.693  0.8259 -0.1976  0.3865
 8435TIP3    H146720   6.466   1.597   4.722 -0.4049  0.8683  0.5743
 8435TIP3    H246721   6.562   1.701   4.775  0.4001  0.2093  0.4208
 8436TIP3   OH246722   2.698   1.437   1.688  0.0059 -0.0247 -0.0652
 8436TIP3    H146723   2.634   1.366   1.682 -2.1320  1.8256 -0.4477
 8436TIP3    H246724   2.676   1.482   1.770 -0.7479  1.9896 -1.3058
 8437TIP3   OH246725   1.048   3.532   5.225 -0.4018  0.2415 -0.4580
 8437TIP3    H146726   1.054   3.580   5.308  2.3193 -0.5711 -0.1559
 8437TIP3    H246727   1.052   3.600   5.158 -3.0546  0.9470  0.0276
 8438TIP3   OH246728   5.573   1.174  15.624  0.3222 -0.3896 -0.0984
 8438TIP3    H146729   5.513   1.167  15.697  0.5535  1.2237  0.2710
 8438TIP3    H246730   5.627   1.251  15.645  1.0892 -0.5515 -1.4324
 8439TIP3   OH246731   0.158   5.391   6.157  0.0762 -0.1129 -0.0076
 8439TIP3    H146732   0.135   5.340   6.080  2.3645 -0.7460 -0.2905
 8439TIP3    H246733   0.153   5.482   6.128  1.9266 -0.3772 -1.2037
 8440TIP3   OH246734   4.270   6.234   2.040 -0.1635 -0.0823  0.0218
 8440TIP3    H146735   4.179   6.215   2.065 -0.4056  0.7426 -0.2306
 8440TIP3    H246736   4.296   6.158   1.988 -1.0454  0.1468 -0.7724
 8441TIP3   OH246737   3.285   0.977   1.482 -0.2921 -0.4301 -0.4494
 8441TIP3    H146738   3.253   1.051   1.534 -0.1859 -1.0015  0.4334
 8441TIP3    H246739   3.209   0.950   1.431 -0.7536 -0.6672  0.3467
 8442TIP3   OH246740   6.672   0.782  11.705  0.2750 -0.5808  0.2663
 8442TIP3    H146741   6.726   0.810  11.779 -0.3234  1.5244 -0.0529
 8442TIP3    H246742   6.730   0.728  11.652  1.2753 -0.5319  1.2849
 8443TIP3   OH246743   1.867   1.303  13.992 -0.6597 -0.1718  0.4638
 8443TIP3    H146744   1.846   1.209  13.999 -0.1140 -0.3178  0.1706
 8443TIP3    H246745   1.807   1.336  13.925 -0.3746 -0.4612  0.0622
 8444TIP3   OH246746   0.177   4.140  12.411  1.0258  0.0734  0.2950
 8444TIP3    H146747   0.154   4.226  12.376  1.1025 -0.6330 -1.5716
 8444TIP3    H246748   0.097   4.088  12.402  1.4853 -0.5475 -0.2252
 8445TIP3   OH246749   6.601   2.331   2.326 -0.1842 -0.2112  0.1227
 8445TIP3    H146750   6.652   2.277   2.266  1.7242  3.2266 -1.4942
 8445TIP3    H246751   6.658   2.341   2.403  0.1231  0.6689 -0.2057
 8446TIP3   OH246752   1.303   2.605  12.912 -0.7961 -0.4441 -0.3684
 8446TIP3    H146753   1.334   2.538  12.973  0.4279 -0.5972 -1.1482
 8446TIP3    H246754   1.325   2.688  12.955 -1.4051 -0.5312  0.1304
 8447TIP3   OH246755   5.047   2.767  11.731  0.0788 -0.5835  0.3074
 8447TIP3    H146756   5.104   2.780  11.807 -0.4917 -1.4026  0.8788
 8447TIP3    H246757   5.092   2.812  11.659  0.1997  0.9263  1.3124
 8448TIP3   OH246758   0.900   4.809   0.617  0.2830 -0.5537 -0.0540
 8448TIP3    H146759   0.809   4.785   0.632  0.1702  1.0536  2.0216
 8448TIP3    H246760   0.950   4.748   0.670  0.2299  0.5858  1.3447
 8449TIP3   OH246761   1.071   6.407  15.273  0.2974  0.1076  0.1696
 8449TIP3    H146762   1.165   6.420  15.256  0.4725 -1.3551 -0.0038
 8449TIP3    H246763   1.031   6.490  15.246  1.4879  0.6000 -0.1368
 8450TIP3   OH246764   2.017   1.049  12.360 -0.5045 -0.1615  0.1966
 8450TIP3    H146765   2.002   1.138  12.329 -1.8017 -0.4431 -0.0371
 8450TIP3    H246766   2.058   1.060  12.445 -0.2437  0.6522 -0.0247
 8451TIP3   OH246767   1.931   6.135   2.077  0.2417  0.1029  0.3065
 8451TIP3    H146768   1.988   6.208   2.102 -1.7433  1.1109  2.1629
 8451TIP3    H246769   1.851   6.178   2.045 -0.2155 -1.2680 -0.4262
 8452TIP3   OH246770   2.272   4.500  12.374 -0.3717  0.1720  0.3995
 8452TIP3    H146771   2.314   4.490  12.460  0.1819 -1.4010 -0.0279
 8452TIP3    H246772   2.195   4.442  12.378 -0.4399  0.2235 -0.1026
 8453TIP3   OH246773   3.035   2.430   1.523  0.3691  0.3172 -0.0196
 8453TIP3    H146774   3.016   2.520   1.549  2.0561  0.3816  1.1036
 8453TIP3    H246775   2.956   2.382   1.543 -0.2693  1.4058  0.1218
 8454TIP3   OH246776   5.800   6.711  11.717  0.0301 -0.5584 -0.5309
 8454TIP3    H146777   5.757   6.735  11.799  0.3473 -0.7266 -0.3123
 8454TIP3    H246778   5.857   6.638  11.740 -0.5019 -1.1481 -1.0780
 8455TIP3   OH246779   0.867   1.269  16.861 -0.3437  0.9126  0.0549
 8455TIP3    H146780   0.941   1.307  16.813 -0.9086  1.4874 -0.3768
 8455TIP3    H246781   0.894   1.271  16.953 -0.2562  2.1236  0.0147
 8456TIP3   OH246782   4.338   4.533  15.859 -0.2564  0.8149  0.3386
 8456TIP3    H146783   4.282   4.527  15.936  1.1268 -1.4122  1.2343
 8456TIP3    H246784   4.424   4.555  15.894  0.6324 -1.3119 -0.4070
 8457TIP3   OH246785   3.293   3.141   3.956  0.3396  0.2971  0.0144
 8457TIP3    H146786   3.342   3.215   3.921  0.4684 -0.8853 -2.4710
 8457TIP3    H246787   3.205   3.175   3.969  0.5451  1.0526 -0.5265
 8458TIP3   OH246788   3.919   6.480   0.282 -0.0490  0.6779 -0.1396
 8458TIP3    H146789   3.886   6.421   0.214 -2.3550  1.6003  0.1258
 8458TIP3    H246790   3.927   6.565   0.239  1.0726  0.6921  0.0708
 8459TIP3   OH246791   4.755   1.516  16.409  0.3139  0.1922 -0.6635
 8459TIP3    H146792   4.812   1.484  16.339  0.4678 -1.3690  0.1564
 8459TIP3    H246793   4.754   1.445  16.473 -0.5733  1.2297  0.4828
 8460TIP3   OH246794   3.751   5.576   1.607  0.6021  0.3036 -0.3088
 8460TIP3    H146795   3.685   5.508   1.616  1.3586 -0.2755  1.0201
 8460TIP3    H246796   3.828   5.542   1.653  0.5917  2.5778  1.5311
 8461TIP3   OH246797   5.239   2.396   0.122  0.0832  0.2682  0.1595
 8461TIP3    H146798   5.182   2.319   0.132 -0.3551  0.6747  0.8476
 8461TIP3    H246799   5.286   2.380   0.041 -0.0930 -0.6788  0.2320
 8462TIP3   OH246800   2.020   1.735  12.618  0.6418 -0.1124  0.0131
 8462TIP3    H146801   1.931   1.751  12.649 -0.0800  1.8085 -2.8309
 8462TIP3    H246802   2.025   1.783  12.535  4.4713  0.2079  0.3494
 8463TIP3   OH246803   0.444   4.619  10.390  0.0684 -0.5221  0.4470
 8463TIP3    H146804   0.356   4.640  10.358  1.3121  2.0738 -1.5511
 8463TIP3    H246805   0.443   4.645  10.482 -0.7297  1.2745 -0.0468
 8464TIP3   OH246806   5.785   4.418  14.745  0.3493  0.2317 -0.5573
 8464TIP3    H146807   5.802   4.414  14.839  2.3766 -1.3874 -0.9562
 8464TIP3    H246808   5.801   4.329  14.713 -1.1119  0.5561 -2.3276
 8465TIP3   OH246809   1.324   1.494  15.093 -0.5971  0.0252  0.2315
 8465TIP3    H146810   1.315   1.444  15.174  0.4571  0.8571  0.8800
 8465TIP3    H246811   1.376   1.570  15.118  0.4991 -0.1672 -1.4340
 8466TIP3   OH246812   4.324   2.983   4.842  0.2313  0.6595 -0.2220
 8466TIP3    H146813   4.316   3.077   4.828  1.2070  1.3858  3.5534
 8466TIP3    H246814   4.393   2.974   4.907 -3.6437 -2.1910  3.8494
 8467TIP3   OH246815   3.817   1.820   4.652  0.0866  0.0027  0.4485
 8467TIP3    H146816   3.836   1.810   4.745 -0.4910  1.1636  0.6998
 8467TIP3    H246817   3.737   1.770   4.638  1.2314 -1.8116  0.1480
 8468TIP3   OH246818   0.755   6.550  16.762 -0.2847  0.5845  0.0965
 8468TIP3    H146819   0.757   6.642  16.787 -0.7608  0.7716 -0.5338
 8468TIP3    H246820   0.755   6.552  16.666 -0.1649 -0.0761  0.0807
 8469TIP3   OH246821   4.469   2.541   5.741  0.4472  0.4262 -0.2296
 8469TIP3    H146822   4.434   2.622   5.779  0.0347  0.9161 -1.6235
 8469TIP3    H246823   4.494   2.566   5.652  1.2957 -0.7304 -0.3238
 8470TIP3   OH246824   5.632   2.253   5.943  0.3153 -0.1544 -0.6822
 8470TIP3    H146825   5.567   2.204   5.993  0.2949  1.1839  0.6343
 8470TIP3    H246826   5.667   2.317   6.005  1.3765  0.5315 -1.9648
 8471TIP3   OH246827   6.785   2.819  12.665 -0.2520  0.8606  0.5773
 8471TIP3    H146828   6.813   2.854  12.580  3.2684 -1.1783  0.8249
 8471TIP3    H246829   6.747   2.734  12.644  2.5427 -0.5841  1.1991
 8472TIP3   OH246830   1.820   2.228  14.680 -0.1792  0.0373 -0.2473
 8472TIP3    H146831   1.726   2.213  14.690 -0.0033 -1.6703 -0.9447
 8472TIP3    H246832   1.828   2.323  14.672 -1.8618  0.1976 -0.2808
 8473TIP3   OH246833   5.091   3.456   1.050 -0.3611 -0.0113 -0.0065
 8473TIP3    H146834   5.029   3.499   1.109  0.5385 -1.6880  2.2381
 8473TIP3    H246835   5.177   3.486   1.079  0.0309  0.7555 -1.8416
 8474TIP3   OH246836   3.132   4.089  14.533 -0.2466  0.7428 -0.4315
 8474TIP3    H146837   3.200   4.120  14.473  0.4301 -1.4149 -0.8164
 8474TIP3    H246838   3.052   4.093  14.481 -0.1341  1.5259 -0.5651
 8475TIP3   OH246839   1.918   5.837   0.653 -0.0753 -0.4721  0.1547
 8475TIP3    H146840   1.974   5.761   0.638 -2.5831 -1.8782 -2.5209
 8475TIP3    H246841   1.946   5.901   0.588  1.0265  0.3675  1.4243
 8476TIP3   OH246842   3.493   4.542   1.569 -0.0945 -0.0653  1.0912
 8476TIP3    H146843   3.544   4.465   1.596  2.0674  0.8757 -0.2137
 8476TIP3    H246844   3.446   4.569   1.648  0.8330 -1.4012  2.1175
 8477TIP3   OH246845   2.001   5.627  17.088  0.0027  0.2017 -0.2258
 8477TIP3    H146846   2.068   5.577  17.135  0.6666 -1.8345 -3.1839
 8477TIP3    H246847   1.927   5.566  17.079 -0.0948  0.5252 -1.8096
 8478TIP3   OH246848   2.877   0.494  13.424  0.1316  0.1111  0.1768
 8478TIP3    H146849   2.869   0.405  13.458  0.5658 -0.7556 -1.8891
 8478TIP3    H246850   2.811   0.499  13.355 -0.4062  1.6603  0.7760
 8479TIP3   OH246851   0.152   0.354  12.553  0.6751 -0.3302  0.6999
 8479TIP3    H146852   0.156   0.290  12.482  0.6788  0.5912 -0.1428
 8479TIP3    H246853   0.092   0.422  12.521 -0.2613 -0.4984  2.0754
 8480TIP3   OH246854   6.192   4.926  16.670 -0.3261 -0.1305 -0.0921
 8480TIP3    H146855   6.118   4.933  16.609 -1.5863  1.7089  1.5679
 8480TIP3    H246856   6.159   4.870  16.740 -0.2846  1.0184  0.8472
 8481TIP3   OH246857   4.623   3.829  14.379  0.3034 -0.7435 -0.3381
 8481TIP3    H146858   4.689   3.811  14.313  1.1182 -0.6585  0.4505
 8481TIP3    H246859   4.671   3.867  14.453 -0.9260  1.7116 -0.7245
 8482TIP3   OH246860   3.779   1.597   5.970  0.6924 -0.1463 -0.1685
 8482TIP3    H146861   3.784   1.549   6.052  1.0226 -0.5169 -0.4043
 8482TIP3    H246862   3.787   1.529   5.902  0.0562  0.1093 -0.5069
 8483TIP3   OH246863   0.885   2.935  13.726  0.2103 -0.4572  0.4042
 8483TIP3    H146864   0.977   2.961  13.718  0.1229 -0.1831  0.2847
 8483TIP3    H246865   0.885   2.841  13.709 -0.0105  0.1179 -3.2371
 8484TIP3   OH246866   6.231   1.917   0.045  0.2975 -0.0120 -0.1797
 8484TIP3    H146867   6.208   1.857  -0.026  1.2572  0.9967 -1.3796
 8484TIP3    H246868   6.193   2.001   0.019  0.6907  0.3756  0.4761
 8485TIP3   OH246869   0.199   4.804   2.381 -0.0627  0.1107 -0.0333
 8485TIP3    H146870   0.133   4.741   2.411 -0.3334  0.4460  0.0784
 8485TIP3    H246871   0.209   4.865   2.454  1.2924 -0.6568  0.4496
 8486TIP3   OH246872   0.093   4.367   6.160  0.3816 -0.0425  0.0717
 8486TIP3    H146873   0.185   4.397   6.157  0.4199 -0.1358  0.2759
 8486TIP3    H246874   0.072   4.344   6.070  0.0692  1.4592 -0.2555
 8487TIP3   OH246875   2.942   4.799  15.652  0.2120  0.5901  0.0611
 8487TIP3    H146876   2.929   4.892  15.668  1.3101  0.7272  0.2203
 8487TIP3    H246877   3.036   4.790  15.636  0.5008 -0.7961  2.2649
 8488TIP3   OH246878   5.820   1.617   0.634  0.5974 -0.0675 -0.6735
 8488TIP3    H146879   5.846   1.642   0.722  3.5213 -0.0194 -1.4859
 8488TIP3    H246880   5.753   1.551   0.646  0.0896  0.8213  1.5637
 8489TIP3   OH246881   2.623   2.301  13.086  0.9639  0.1923  0.1612
 8489TIP3    H146882   2.627   2.353  13.005  0.0794  0.4157  0.2479
 8489TIP3    H246883   2.688   2.232  13.074  0.7962  0.1860 -0.7712
 8490TIP3   OH246884   3.814   4.281   2.036  0.6250  0.1283 -0.3211
 8490TIP3    H146885   3.907   4.259   2.049 -0.0805 -2.3143  0.8469
 8490TIP3    H246886   3.784   4.310   2.122  0.0460 -0.1142 -0.4437
 8491TIP3   OH246887   3.556   3.371   4.532 -0.1508 -0.6236 -0.0459
 8491TIP3    H146888   3.581   3.459   4.559  0.5683 -1.0973  0.8301
 8491TIP3    H246889   3.542   3.378   4.437  0.4598  0.2903 -0.0688
 8492TIP3   OH246890   3.228   1.398  16.168 -0.5148 -0.6142  0.0298
 8492TIP3    H146891   3.172   1.334  16.213 -1.5594  1.4386  1.7667
 8492TIP3    H246892   3.189   1.483  16.190  2.1524  0.7489 -0.3495
 8493TIP3   OH246893   0.557   1.274   4.687  0.3581 -0.1706 -0.2078
 8493TIP3    H146894   0.606   1.316   4.757  2.3881 -0.3055 -1.4907
 8493TIP3    H246895   0.555   1.181   4.712  0.1407 -0.0587  0.1940
 8494TIP3   OH246896   1.054   2.709  12.147 -0.3158 -0.4424  0.2375
 8494TIP3    H146897   1.102   2.763  12.210 -1.3187  0.3962  0.2964
 8494TIP3    H246898   1.088   2.736  12.062 -1.5352  1.0314  0.2003
 8495TIP3   OH246899   2.683   0.296   5.733  0.0035 -0.3202  0.6157
 8495TIP3    H146900   2.663   0.380   5.694 -0.0036 -1.2992 -1.5333
 8495TIP3    H246901   2.602   0.269   5.775 -1.3890 -1.3266 -2.5892
 8496TIP3   OH246902   2.397   0.753  16.768  0.5481 -0.1805  0.4026
 8496TIP3    H146903   2.330   0.685  16.775  1.4069 -1.4343 -2.4541
 8496TIP3    H246904   2.355   0.823  16.719  0.7455 -0.1999  0.2032
 8497TIP3   OH246905   5.791   4.116  15.279  0.4634 -0.1721 -0.4987
 8497TIP3    H146906   5.708   4.071  15.261 -0.0989  0.0253  1.4941
 8497TIP3    H246907   5.766   4.195  15.328  1.8234 -0.1838  0.2451
 8498TIP3   OH246908   3.167   0.455  15.195 -0.0478 -0.0251 -0.1253
 8498TIP3    H146909   3.237   0.510  15.160  1.4822  0.1230  2.9944
 8498TIP3    H246910   3.148   0.392  15.125  2.2306  0.8219 -1.5379
 8499TIP3   OH246911   3.767   1.977   2.220  0.7055  0.1471  0.3315
 8499TIP3    H146912   3.699   1.909   2.225  0.8139  0.0820  0.8887
 8499TIP3    H246913   3.721   2.058   2.239  0.4160  0.3312 -1.1237
 8500TIP3   OH246914   0.511   2.875  11.798 -0.1281 -0.0875 -0.6872
 8500TIP3    H146915   0.441   2.895  11.860 -0.8350 -1.3193 -1.0658
 8500TIP3    H246916   0.587   2.923  11.831 -1.0704  1.0368 -0.1112
 8501TIP3   OH246917   1.919   5.719   5.915  0.4724 -0.1338 -0.1029
 8501TIP3    H146918   1.870   5.682   5.988 -0.9178  0.0778 -0.8904
 8501TIP3    H246919   1.967   5.646   5.878 -1.7184 -1.0496 -1.2318
 8502TIP3   OH246920   4.865   6.068  13.546  0.1264  0.2608 -0.2601
 8502TIP3    H146921   4.829   5.982  13.572  0.9001 -0.1762 -0.6238
 8502TIP3    H246922   4.801   6.131  13.579 -0.1245 -0.4221  0.6001
 8503TIP3   OH246923   4.877   5.245  17.016 -0.0849  0.6914 -0.6742
 8503TIP3    H146924   4.800   5.296  17.042  0.1291  0.0315  1.3172
 8503TIP3    H246925   4.950   5.306  17.026  0.4386 -0.4517  3.6436
 8504TIP3   OH246926   2.632   3.752  13.348  0.3083  0.0042 -0.5048
 8504TIP3    H146927   2.638   3.773  13.441 -0.4127  1.9630 -0.8909
 8504TIP3    H246928   2.575   3.675  13.344  0.6852 -0.3518  0.6837
 8505TIP3   OH246929   0.852   3.772  15.579 -0.4141  0.5455  0.7122
 8505TIP3    H146930   0.768   3.799  15.614  0.2075  1.6550  1.3762
 8505TIP3    H246931   0.836   3.685  15.541 -2.1649  1.3307 -0.3851
 8506TIP3   OH246932   0.328   2.914   4.078 -0.0273 -0.7805 -0.1224
 8506TIP3    H146933   0.416   2.883   4.060 -0.6190 -1.7489 -1.3924
 8506TIP3    H246934   0.270   2.843   4.049 -1.3465  1.0506 -2.1603
 8507TIP3   OH246935   5.477   2.572  10.917  0.3965 -0.4394 -0.2248
 8507TIP3    H146936   5.419   2.496  10.920  0.3485 -0.4178 -0.6131
 8507TIP3    H246937   5.564   2.535  10.903  0.2037 -0.3485 -1.7603
 8508TIP3   OH246938   3.855   5.898  10.855  0.1127 -0.8340 -0.2617
 8508TIP3    H146939   3.764   5.880  10.878 -0.0567  0.4790  0.1420
 8508TIP3    H246940   3.878   5.830  10.791 -0.8438 -1.7444  0.3506
 8509TIP3   OH246941   4.110   5.720   2.277  0.2442  0.5223  0.2590
 8509TIP3    H146942   4.026   5.691   2.310 -0.2636  1.0598 -0.5423
 8509TIP3    H246943   4.158   5.639   2.256 -1.3383  0.2230 -2.4370
 8510TIP3   OH246944   6.278   6.492  11.260  0.5467  0.3916  0.4258
 8510TIP3    H146945   6.229   6.514  11.339 -0.9077  0.2220 -0.4223
 8510TIP3    H246946   6.271   6.570  11.205  1.9225  0.6774  0.6141
 8511TIP3   OH246947   3.051   4.900   0.678 -0.2569  0.9328  0.3945
 8511TIP3    H146948   3.119   4.881   0.615 -2.0465  1.4772 -1.7753
 8511TIP3    H246949   3.096   4.941   0.752  1.5202  3.0209 -1.7969
 8512TIP3   OH246950   2.333   1.645  13.216  0.3780 -0.0911  0.3787
 8512TIP3    H146951   2.301   1.608  13.298  1.0038  0.0644  0.6941
 8512TIP3    H246952   2.426   1.662  13.231  0.6596 -0.6966 -0.5830
 8513TIP3   OH246953   0.517   1.050  15.566 -0.5333  0.2817 -0.7024
 8513TIP3    H146954   0.491   0.958  15.571 -1.0440  0.3770 -1.6603
 8513TIP3    H246955   0.572   1.063  15.643 -0.3228 -0.8695 -0.6546
 8514TIP3   OH246956   2.167   6.413  12.999 -0.6857 -0.4645 -0.1804
 8514TIP3    H146957   2.129   6.409  12.912 -0.6114  0.8651 -0.2955
 8514TIP3    H246958   2.261   6.399  12.986 -0.5412  0.6794 -0.4442
 8515TIP3   OH246959   5.221   2.579   1.399 -0.0106 -0.1897 -0.2168
 8515TIP3    H146960   5.226   2.670   1.369 -2.0696  0.2969  0.8210
 8515TIP3    H246961   5.128   2.557   1.394 -0.0819 -0.9424  3.2681
 8516TIP3   OH246962   2.483   3.057  11.194 -0.1673  0.1445 -0.1897
 8516TIP3    H146963   2.531   2.987  11.150  1.3829  1.9201 -1.3704
 8516TIP3    H246964   2.403   3.068  11.142 -0.9487 -1.4674  0.6352
 8517TIP3   OH246965   2.542   5.613  11.480 -0.1385  0.2442  0.4945
 8517TIP3    H146966   2.457   5.654  11.492 -0.8098 -1.1610  0.6602
 8517TIP3    H246967   2.547   5.548  11.550  1.0305  0.2500  0.4282
 8518TIP3   OH246968   0.582   1.382   5.228 -0.5502 -0.5264  0.1101
 8518TIP3    H146969   0.597   1.445   5.299  1.0193 -1.4802  0.6462
 8518TIP3    H246970   0.578   1.436   5.149 -1.0363  0.4223  0.7761
 8519TIP3   OH246971   4.436   1.954   0.133  0.2167 -0.4215 -0.0199
 8519TIP3    H146972   4.413   1.901   0.057  0.9879 -1.5239  0.4978
 8519TIP3    H246973   4.354   1.967   0.179 -0.4945  1.3981 -1.7366
 8520TIP3   OH246974   5.563   3.869   4.481 -0.2730 -0.0438 -0.0916
 8520TIP3    H146975   5.591   3.848   4.392  0.5462  1.8417 -0.2957
 8520TIP3    H246976   5.624   3.937   4.510 -1.3463  0.2950  1.4161
 8521TIP3   OH246977   6.760   4.141  12.885  0.0943  0.2814 -0.3309
 8521TIP3    H146978   6.796   4.133  12.797 -0.2487  1.8047 -0.6310
 8521TIP3    H246979   6.762   4.236  12.902 -2.5988  0.2671  0.1495
 8522TIP3   OH246980   5.771   4.849  16.886  0.7183 -0.8382 -0.2748
 8522TIP3    H146981   5.752   4.859  16.980  1.1194 -3.9503  0.1956
 8522TIP3    H246982   5.859   4.885  16.876  0.9309 -1.0664  0.6762
 8523TIP3   OH246983   6.493   1.574  14.302 -0.5852  0.5614  0.4995
 8523TIP3    H146984   6.413   1.524  14.284 -0.5719  0.7946 -0.2589
 8523TIP3    H246985   6.505   1.568  14.396 -2.7330  2.3807  0.9218
 8524TIP3   OH246986   4.767   0.631   4.168  0.4937 -0.2654 -0.2525
 8524TIP3    H146987   4.852   0.674   4.177  0.5967 -0.6307  0.6061
 8524TIP3    H246988   4.704   0.697   4.198  0.5571 -0.3233  0.0099
 8525TIP3   OH246989   0.675   5.087   4.496 -0.7268 -0.0019 -0.1170
 8525TIP3    H146990   0.768   5.070   4.483 -0.8484 -0.4296 -0.4640
 8525TIP3    H246991   0.650   5.030   4.569 -0.5061  0.8290  0.6105
 8526TIP3   OH246992   3.800   1.636   5.535  0.3445 -0.2020  0.4582
 8526TIP3    H146993   3.878   1.690   5.526 -0.6202  1.1551  0.0775
 8526TIP3    H246994   3.793   1.620   5.629  0.9900 -0.1861  0.5082
 8527TIP3   OH246995   6.548   5.721  16.176 -1.0139 -0.7051  0.0063
 8527TIP3    H146996   6.610   5.656  16.210  0.3228  1.1079  1.0898
 8527TIP3    H246997   6.498   5.749  16.252 -0.9990  0.1753 -0.3019
 8528TIP3   OH246998   2.232   4.639  11.914  0.2258  0.4521 -0.0052
 8528TIP3    H146999   2.137   4.654  11.909 -0.0560 -1.0074  0.7300
 8528TIP3    H247000   2.254   4.660  12.005  0.2951 -0.9163  0.3001
 8529TIP3   OH247001   4.432   3.326  16.352 -0.2739 -0.5576  0.5511
 8529TIP3    H147002   4.366   3.384  16.389 -0.4915 -1.9680  2.4509
 8529TIP3    H247003   4.511   3.345  16.402 -0.1546 -1.3628  0.6742
 8530TIP3   OH247004   6.512   5.315   3.698 -0.3708 -0.6019  0.7535
 8530TIP3    H147005   6.496   5.398   3.653 -1.9968 -0.7118  1.1105
 8530TIP3    H247006   6.591   5.330   3.750  2.0915 -0.7376 -2.7753
 8531TIP3   OH247007   4.879   2.875  13.300  0.0654 -0.6400 -0.0970
 8531TIP3    H147008   4.789   2.899  13.323  0.6298 -1.2388  2.8595
 8531TIP3    H247009   4.871   2.786  13.265 -0.3412 -1.2245  1.4452
 8532TIP3   OH247010   4.120   3.950   1.790 -0.2326  0.5981  0.1996
 8532TIP3    H147011   4.046   3.956   1.730  0.9561 -0.1266 -1.3630
 8532TIP3    H247012   4.176   4.023   1.767 -0.1086  0.7379  0.9217
 8533TIP3   OH247013   4.420   4.451   2.943  0.4254 -0.0738  0.2596
 8533TIP3    H147014   4.385   4.396   2.873  1.3057  0.6664 -0.7724
 8533TIP3    H247015   4.511   4.467   2.918  0.9240 -0.2908  1.8736
 8534TIP3   OH247016   0.432   6.154  16.414  0.3383  0.3414  0.0868
 8534TIP3    H147017   0.394   6.167  16.327  3.2523  2.7869 -0.8955
 8534TIP3    H247018   0.379   6.209  16.472 -0.5479  0.0578 -0.4578
 8535TIP3   OH247019   5.285   4.785   2.105  0.1389  0.5753 -1.0244
 8535TIP3    H147020   5.377   4.803   2.125  0.1420  0.2440 -0.7393
 8535TIP3    H247021   5.237   4.856   2.146  0.1988  0.2719 -0.4291
 8536TIP3   OH247022   3.021   0.625  15.891  0.4875 -0.2761 -0.6338
 8536TIP3    H147023   3.049   0.687  15.824 -1.1530  0.8349 -0.3422
 8536TIP3    H247024   3.087   0.633  15.960  0.6350  0.6971 -0.8762
 8537TIP3   OH247025   3.895   2.111  10.841  0.1584  0.0989  0.1790
 8537TIP3    H147026   3.953   2.186  10.826  1.3322 -0.3545  2.2804
 8537TIP3    H247027   3.935   2.063  10.913 -2.2592 -0.8459  0.9569
 8538TIP3   OH247028   5.948   6.550   6.123  0.1029 -0.5551  0.0802
 8538TIP3    H147029   5.870   6.605   6.122 -0.2387 -1.0304  1.0500
 8538TIP3    H247030   6.017   6.608   6.155  0.1552 -0.1314 -0.7896
 8539TIP3   OH247031   6.316   3.362   3.096  0.1321 -0.1093  0.5649
 8539TIP3    H147032   6.250   3.418   3.136 -1.3135 -0.1681 -1.6694
 8539TIP3    H247033   6.319   3.284   3.151 -2.4178 -0.5572  0.1223
 8540TIP3   OH247034   4.532   2.991   0.082  0.5420 -0.2543  0.4075
 8540TIP3    H147035   4.628   2.999   0.089  0.4616  1.7583 -0.4031
 8540TIP3    H247036   4.511   3.030  -0.003 -1.1241  0.4577  1.1250
 8541TIP3   OH247037   0.880   4.021   5.296 -0.3986 -0.1614 -0.0021
 8541TIP3    H147038   0.968   4.011   5.333  0.5165 -0.6839 -2.2232
 8541TIP3    H247039   0.871   4.116   5.281  0.2960 -0.2284 -0.9114
 8542TIP3   OH247040   2.607   0.794  11.387 -0.3632  0.2627 -0.6283
 8542TIP3    H147041   2.673   0.859  11.409  0.0928  0.1098 -1.5556
 8542TIP3    H247042   2.523   0.841  11.394 -0.2194  0.2991  1.1451
 8543TIP3   OH247043   1.319   3.714   0.067  0.0199  0.0409 -0.2794
 8543TIP3    H147044   1.236   3.673   0.093  2.0373 -1.7766  3.5520
 8543TIP3    H247045   1.343   3.770   0.141  2.9337 -0.5759 -0.7098
 8544TIP3   OH247046   0.233   5.456   1.352  0.4224  0.2199 -0.1112
 8544TIP3    H147047   0.318   5.440   1.311 -0.1537 -0.9702 -0.8608
 8544TIP3    H247048   0.247   5.439   1.445  0.4589 -2.2887 -0.5413
 8545TIP3   OH247049   1.650   0.039  12.740 -0.0320 -0.2077 -0.9151
 8545TIP3    H147050   1.708   0.040  12.816 -0.0761 -0.4685 -0.8772
 8545TIP3    H247051   1.581   0.101  12.762 -0.6574 -1.1175 -0.2600
 8546TIP3   OH247052   6.143   4.840  12.805 -0.6187 -0.0528 -0.2412
 8546TIP3    H147053   6.076   4.856  12.739  0.5365  0.4550 -1.3140
 8546TIP3    H247054   6.109   4.768  12.857 -3.1871  1.8751  0.8864
 8547TIP3   OH247055   6.585   2.946  11.121 -0.4759 -0.5009 -0.6842
 8547TIP3    H147056   6.495   2.968  11.099 -1.5324 -1.6287  2.2492
 8547TIP3    H247057   6.597   2.857  11.088 -0.3830 -0.2903 -1.2187
 8548TIP3   OH247058   0.180   5.703   2.414 -0.4523 -0.2073  0.4107
 8548TIP3    H147059   0.140   5.703   2.501  1.0312  0.0972  1.1004
 8548TIP3    H247060   0.135   5.774   2.368 -0.5653  0.2744  1.2479
 8549TIP3   OH247061   3.111   2.168   2.796  0.4148 -0.0238  0.1713
 8549TIP3    H147062   3.031   2.164   2.744  1.4543 -1.2248 -1.4097
 8549TIP3    H247063   3.083   2.196   2.883 -1.6082  0.2493 -0.5537
 8550TIP3   OH247064   2.582   4.548  15.671 -0.0239 -1.1340 -0.1573
 8550TIP3    H147065   2.552   4.482  15.733  0.2313 -1.4827 -0.4014
 8550TIP3    H247066   2.567   4.632  15.715 -0.3067 -1.3574  0.1700
 8551TIP3   OH247067   4.479   6.754  16.629 -0.0988 -0.5464 -0.1778
 8551TIP3    H147068   4.457   6.671  16.585 -3.5249 -0.0946  0.4953
 8551TIP3    H247069   4.470   6.734  16.722 -2.4890  0.8933 -0.0490
 8552TIP3   OH247070   3.610   2.887  11.780 -0.6373  0.3907  0.1004
 8552TIP3    H147071   3.600   2.977  11.812  0.0970  0.3624  0.4133
 8552TIP3    H247072   3.668   2.894  11.705  0.6617  0.0012  1.0413
 8553TIP3   OH247073   4.536   1.177   5.848  0.0598 -0.4802  0.0056
 8553TIP3    H147074   4.570   1.179   5.937  0.6286 -2.0263 -0.1749
 8553TIP3    H247075   4.614   1.175   5.792 -0.2122  3.3853 -0.6602
 8554TIP3   OH247076   3.170   2.487   5.660 -0.3398  0.3013  0.9902
 8554TIP3    H147077   3.246   2.545   5.658  0.6771 -0.9990  0.9630
 8554TIP3    H247078   3.095   2.545   5.649  0.8243  1.2513 -3.0370
 8555TIP3   OH247079   3.320   0.426   2.002 -0.0230  0.7668 -0.1891
 8555TIP3    H147080   3.400   0.444   1.952  1.0217  1.7020  1.7819
 8555TIP3    H247081   3.327   0.334   2.028  0.7713  1.0588  0.6256
 8556TIP3   OH247082   4.263   1.240   5.315 -0.1832 -0.6356  0.4975
 8556TIP3    H147083   4.233   1.301   5.248 -1.8286  0.0417  1.8078
 8556TIP3    H247084   4.238   1.154   5.281  1.9264 -0.5893 -1.2407
 8557TIP3   OH247085   0.800   5.024   4.821 -0.0771  0.8639 -0.0141
 8557TIP3    H147086   0.726   4.977   4.781  1.0872  0.5768 -1.9443
 8557TIP3    H247087   0.866   5.025   4.752  2.0044  0.4547  1.9402
 8558TIP3   OH247088   4.742   4.449   1.748 -0.1773  0.8531  0.5263
 8558TIP3    H147089   4.674   4.433   1.813 -0.3371 -0.0468  0.1472
 8558TIP3    H247090   4.817   4.399   1.781 -0.5482 -0.3721 -0.4572
 8559TIP3   OH247091   2.405   6.654   6.709 -0.4558  0.0485  0.1252
 8559TIP3    H147092   2.351   6.729   6.684 -1.1792  0.1363  1.9309
 8559TIP3    H247093   2.485   6.693   6.745 -0.8709 -0.0355  1.1503
 8560TIP3   OH247094   3.505   4.413   1.314 -0.2024  0.5334  0.3436
 8560TIP3    H147095   3.513   4.448   1.402 -1.6274  0.5737  0.4639
 8560TIP3    H247096   3.461   4.329   1.325  0.5961  0.0240 -0.2355
 8561TIP3   OH247097   3.623   4.135   2.739 -0.4429  0.2164  0.0534
 8561TIP3    H147098   3.545   4.081   2.753 -1.3800  1.8439  1.3246
 8561TIP3    H247099   3.593   4.224   2.754  1.6465  0.8889  0.3980
 8562TIP3   OH247100   4.126   6.448  15.978 -0.1681 -0.2902  0.2920
 8562TIP3    H147101   4.151   6.379  16.040  0.4629  1.0304  1.5472
 8562TIP3    H247102   4.108   6.402  15.896  2.6744 -1.7007  0.3985
 8563TIP3   OH247103   3.619   1.827   0.385 -0.1650 -0.1506 -0.0680
 8563TIP3    H147104   3.569   1.768   0.441 -0.1451  0.0282  0.1385
 8563TIP3    H247105   3.616   1.911   0.430 -0.2917  0.0352 -0.4190
 8564TIP3   OH247106   1.032   4.480  16.205  0.2019 -0.2705 -0.2303
 8564TIP3    H147107   1.086   4.545  16.251 -0.1161  0.8509 -1.4213
 8564TIP3    H247108   1.092   4.438  16.144 -0.2226  0.8720 -1.4463
 8565TIP3   OH247109   4.391   0.812   0.019 -0.5358 -1.2781 -0.0950
 8565TIP3    H147110   4.475   0.816   0.064 -0.3853  0.7598 -0.4931
 8565TIP3    H247111   4.327   0.837   0.085 -0.9020 -3.3293  0.3449
 8566TIP3   OH247112   3.561   3.439  12.859  0.2436  0.1143  0.4831
 8566TIP3    H147113   3.504   3.500  12.812  0.0285 -0.0718  0.4970
 8566TIP3    H247114   3.545   3.354  12.817 -0.6921 -0.2421  1.5348
 8567TIP3   OH247115   5.292   5.731  16.863  0.7534 -0.4829 -0.2430
 8567TIP3    H147116   5.268   5.639  16.866 -0.5355 -0.1856 -1.2606
 8567TIP3    H247117   5.255   5.763  16.781  0.7208  1.0736  0.3676
 8568TIP3   OH247118   0.872   0.385  11.563  0.6055 -0.0387 -0.0856
 8568TIP3    H147119   0.914   0.355  11.483  0.4383  0.5770 -0.4110
 8568TIP3    H247120   0.906   0.474  11.577 -1.9811  1.2111 -1.3991
 8569TIP3   OH247121   4.557   0.377  14.087 -0.2835 -0.1774  0.9454
 8569TIP3    H147122   4.632   0.434  14.103 -0.6403  0.2244  1.1883
 8569TIP3    H247123   4.556   0.365  13.992 -0.4344  0.5300  0.8539
 8570TIP3   OH247124   6.429   6.280  15.038 -0.0421 -0.0517  0.5125
 8570TIP3    H147125   6.495   6.338  14.999 -1.2339  2.7366  2.4037
 8570TIP3    H247126   6.391   6.233  14.964  1.1491  1.4338 -1.0867
 8571TIP3   OH247127   5.258   1.054  13.186  0.1608  0.3621  0.1275
 8571TIP3    H147128   5.250   1.047  13.281  1.7881 -1.0424  0.2028
 8571TIP3    H247129   5.174   1.088  13.157 -0.1836  1.3001  2.1135
 8572TIP3   OH247130   0.791   5.670   0.014 -0.5951 -0.2135 -0.2739
 8572TIP3    H147131   0.871   5.707   0.050 -1.1958  0.2937  0.5869
 8572TIP3    H247132   0.728   5.676   0.086 -1.2713 -1.0409 -0.7856
 8573TIP3   OH247133   6.013   2.708  12.992 -0.1854 -0.1347 -0.2891
 8573TIP3    H147134   6.080   2.676  13.053 -3.4091  0.3717  3.7785
 8573TIP3    H247135   5.948   2.638  12.990 -0.6837  0.3772 -2.2676
 8574TIP3   OH247136   5.573   0.668  15.660  0.4608  0.0815 -0.0099
 8574TIP3    H147137   5.525   0.747  15.635  0.5913  0.0742 -0.2874
 8574TIP3    H247138   5.661   0.698  15.681  0.3254  0.0995  0.5359
 8575TIP3   OH247139   1.292   2.151  12.413 -0.4590 -0.4335  0.3879
 8575TIP3    H147140   1.363   2.174  12.474  0.1753 -0.5791 -0.2920
 8575TIP3    H247141   1.309   2.204  12.335 -1.1271 -0.4352  0.2368
 8576TIP3   OH247142   0.997   2.474  12.266  0.3889 -0.6025  0.6381
 8576TIP3    H147143   1.031   2.551  12.221  2.2791 -0.8649  1.5779
 8576TIP3    H247144   0.906   2.467  12.235  1.8002 -1.2471 -3.7520
 8577TIP3   OH247145   1.408   3.718  11.608 -0.4926  0.2441 -1.1330
 8577TIP3    H147146   1.398   3.769  11.688  2.4066 -0.3278 -0.3463
 8577TIP3    H247147   1.376   3.631  11.632 -0.6536  0.3538 -0.9425
 8578TIP3   OH247148   6.478   5.637  14.985 -0.0884  0.1964  0.3017
 8578TIP3    H147149   6.414   5.596  14.927 -0.4173  0.2667  0.6155
 8578TIP3    H247150   6.563   5.605  14.953 -0.4340 -2.0455  1.5577
 8579TIP3   OH247151   6.126   4.086  14.234 -0.1935 -0.0515 -0.1804
 8579TIP3    H147152   6.041   4.078  14.277  0.5263 -1.8310  0.9544
 8579TIP3    H247153   6.118   4.030  14.156 -0.2667  0.2884 -0.4202
 8580TIP3   OH247154   1.910   4.008  14.948  0.4026  0.1410 -0.7089
 8580TIP3    H147155   1.867   3.953  14.883  0.0310 -1.0571  0.5348
 8580TIP3    H247156   1.898   4.098  14.915  0.5154 -0.4702 -2.4447
 8581TIP3   OH247157   2.407   2.463  14.200  0.4100  0.4130  0.3588
 8581TIP3    H147158   2.465   2.463  14.277 -0.3355 -2.5274  1.0181
 8581TIP3    H247159   2.331   2.412  14.229 -0.0644 -0.3744 -2.2029
 8582TIP3   OH247160   2.741   0.316  15.064 -0.2345  0.2812  0.2243
 8582TIP3    H147161   2.760   0.316  14.970 -0.1910 -0.2821  0.2306
 8582TIP3    H247162   2.791   0.242  15.098 -0.9782 -0.0719  0.5436
 8583TIP3   OH247163   5.260   4.833  15.470  0.6433 -0.5443 -0.4291
 8583TIP3    H147164   5.284   4.747  15.504  1.7364  1.1417  3.2637
 8583TIP3    H247165   5.190   4.864  15.527  0.4130  1.1500 -1.5759
 8584TIP3   OH247166   6.321   5.492  16.298 -0.1525  0.0273  0.5907
 8584TIP3    H147167   6.287   5.581  16.298 -1.6828 -0.5242  0.2153
 8584TIP3    H247168   6.415   5.501  16.281 -0.5582  1.4831 -1.0461
 8585TIP3   OH247169   4.193   0.102   5.188  0.3454  0.3067 -0.0645
 8585TIP3    H147170   4.133   0.087   5.261 -0.0546 -1.1224 -0.6757
 8585TIP3    H247171   4.150   0.062   5.112  0.6026  2.0706 -1.1600
 8586TIP3   OH247172   1.550   5.367  15.246  0.0790 -0.2563 -0.0186
 8586TIP3    H147173   1.631   5.409  15.275  0.0912  0.0071 -0.4461
 8586TIP3    H247174   1.497   5.360  15.326  0.1794  0.3343  0.1030
 8587TIP3   OH247175   3.780   2.504  11.362  0.1736 -0.0091 -0.6355
 8587TIP3    H147176   3.819   2.456  11.435 -0.1570  0.0834 -0.3987
 8587TIP3    H247177   3.723   2.441  11.318 -0.3007  0.1813 -0.2936
 8588TIP3   OH247178   2.920   0.078  10.720 -0.1752  0.7495 -0.1469
 8588TIP3    H147179   2.967   0.005  10.680 -0.1848  0.0457  1.0902
 8588TIP3    H247180   2.828   0.056  10.712 -0.1913  0.7978 -0.0985
 8589TIP3   OH247181   2.724   4.682   2.041 -0.0903 -0.0442  0.2882
 8589TIP3    H147182   2.732   4.727   1.957 -1.0298  0.3572  0.4110
 8589TIP3    H247183   2.739   4.590   2.020  0.7454  0.1804 -0.1381
 8590TIP3   OH247184   2.634   1.919  13.570 -0.0297  0.0818  0.1984
 8590TIP3    H147185   2.622   1.990  13.508  1.3008  0.4990  0.4210
 8590TIP3    H247186   2.698   1.861  13.529 -0.7775 -0.7849  0.2111
 8591TIP3   OH247187   2.015   5.965   1.853 -0.3969 -0.0059  0.3086
 8591TIP3    H147188   2.011   6.025   1.928 -1.0384 -0.7100  0.8389
 8591TIP3    H247189   1.924   5.937   1.839 -0.3443  0.4212 -0.9838
 8592TIP3   OH247190   3.228   3.800  10.760  0.6819  0.5483 -0.4155
 8592TIP3    H147191   3.290   3.869  10.785  0.2295  1.1784 -0.9772
 8592TIP3    H247192   3.251   3.779  10.669  1.1651 -0.4284 -0.0667
 8593TIP3   OH247193   4.005   5.329   2.349  0.0134 -0.1286 -0.1356
 8593TIP3    H147194   3.960   5.414   2.348 -0.8658 -0.5903 -0.6347
 8593TIP3    H247195   4.097   5.350   2.333 -0.3210  0.6592 -1.0353
 8594TIP3   OH247196   3.884   3.725   4.262  0.2207  0.0374  0.4684
 8594TIP3    H147197   3.865   3.818   4.264 -0.0737 -0.0432  1.5851
 8594TIP3    H247198   3.975   3.719   4.291  0.4106  0.0116 -0.1149
 8595TIP3   OH247199   2.362   0.320   1.859  0.2125 -0.0848 -0.2854
 8595TIP3    H147200   2.401   0.404   1.832  1.4195 -1.3352 -2.4991
 8595TIP3    H247201   2.377   0.317   1.954  0.5857  1.9767 -0.2498
 8596TIP3   OH247202   1.437   3.310  16.488 -0.0049 -0.6069 -0.7064
 8596TIP3    H147203   1.415   3.218  16.478 -0.8630 -0.3251 -1.4993
 8596TIP3    H247204   1.397   3.336  16.571  1.6129 -1.3345  0.3410
 8597TIP3   OH247205   4.539   0.831  12.220  0.3683 -0.6403 -0.4992
 8597TIP3    H147206   4.475   0.884  12.267  1.3023  0.7362 -0.7822
 8597TIP3    H247207   4.576   0.773  12.286  0.6660  0.3155  0.1665
 8598TIP3   OH247208   5.626   3.754   4.948 -0.2454 -0.6494  0.0158
 8598TIP3    H147209   5.623   3.833   5.000  0.6843 -0.8480  0.3815
 8598TIP3    H247210   5.637   3.683   5.012  1.6036 -0.8332 -0.4626
 8599TIP3   OH247211   5.296   3.344   3.691  0.1273  0.0461  0.8119
 8599TIP3    H147212   5.361   3.276   3.674 -2.0891 -2.0634  0.4986
 8599TIP3    H247213   5.218   3.296   3.719 -1.6715  2.4376  0.0636
 8600TIP3   OH247214   0.425   5.576  14.197 -0.4498 -0.3236 -0.0143
 8600TIP3    H147215   0.351   5.570  14.258 -0.1714  2.5372  0.7082
 8600TIP3    H247216   0.391   5.624  14.122  0.5179  0.5420  0.0841
 8601TIP3   OH247217   1.543   6.569  11.962  0.1489 -0.0756 -0.1427
 8601TIP3    H147218   1.561   6.553  12.054 -0.2305  0.5397  0.0414
 8601TIP3    H247219   1.627   6.553  11.918  0.2307 -0.7417  0.2580
 8602TIP3   OH247220   1.569   4.303   3.882  0.3237 -0.2448 -1.0795
 8602TIP3    H147221   1.662   4.285   3.892  0.4312  0.8181 -0.0217
 8602TIP3    H247222   1.541   4.247   3.810  1.4565 -1.7331 -0.3951
 8603TIP3   OH247223   3.619   4.566  15.929 -0.4674 -0.1576 -0.3984
 8603TIP3    H147224   3.641   4.501  15.861  0.3811  0.5175 -0.7832
 8603TIP3    H247225   3.534   4.538  15.962 -0.4667 -1.0294 -1.0993
 8604TIP3   OH247226   4.283   1.706  15.512 -0.5148  0.4784 -0.5086
 8604TIP3    H147227   4.204   1.729  15.560 -0.7671 -0.9612 -0.2271
 8604TIP3    H247228   4.269   1.742  15.424 -1.3960  0.4104 -0.4009
 8605TIP3   OH247229   1.335   5.773   3.137 -0.1912 -0.3434  0.5653
 8605TIP3    H147230   1.292   5.688   3.123  0.7354 -0.6536 -0.4509
 8605TIP3    H247231   1.271   5.837   3.108 -1.6171 -0.5788  3.0327
 8606TIP3   OH247232   3.041   6.526   0.259  0.7322 -0.3065 -0.2079
 8606TIP3    H147233   3.095   6.479   0.196  1.5431  1.3388 -0.7612
 8606TIP3    H247234   3.070   6.495   0.344  2.2259  0.2105 -0.5180
 8607TIP3   OH247235   2.085   3.510  13.461 -0.0143  0.1448  0.4083
 8607TIP3    H147236   1.999   3.523  13.502 -0.7706 -1.4263 -0.6082
 8607TIP3    H247237   2.144   3.565  13.511 -1.6678  1.4577  0.9688
 8608TIP3   OH247238   1.436   6.474   1.764 -0.3935  0.5283 -0.1307
 8608TIP3    H147239   1.428   6.382   1.789  2.0097  0.7748  1.8958
 8608TIP3    H247240   1.424   6.522   1.846  0.9956  1.8236 -0.6447
 8609TIP3   OH247241   6.015   1.075  16.490  0.1497 -0.4652  0.2324
 8609TIP3    H147242   5.969   1.114  16.564 -1.1855  0.2639 -0.9487
 8609TIP3    H247243   5.954   1.010  16.455 -1.0313  2.0668 -2.7260
 8610TIP3   OH247244   5.096   6.374  13.723  0.1124  0.2622 -0.3072
 8610TIP3    H147245   5.121   6.302  13.666  0.5066 -0.5220  0.8367
 8610TIP3    H247246   5.011   6.403  13.690 -0.2856 -1.0619 -0.4440
 8611TIP3   OH247247   1.142   3.753  12.698  0.3640 -0.0989 -0.2748
 8611TIP3    H147248   1.116   3.734  12.788  1.0410  0.9189  0.1439
 8611TIP3    H247249   1.188   3.674  12.669  1.2782  0.0804  0.7020
 8612TIP3   OH247250   4.656   1.575   0.560 -0.5451 -0.6998 -0.1467
 8612TIP3    H147251   4.707   1.495   0.568  2.3054  0.7778 -2.6700
 8612TIP3    H247252   4.703   1.640   0.612 -1.0001  0.1566 -0.7745
 8613TIP3   OH247253   0.882   4.003   4.887 -0.5935 -0.8566  0.5000
 8613TIP3    H147254   0.790   3.999   4.860 -0.2196 -0.4212 -0.8235
 8613TIP3    H247255   0.919   3.920   4.858 -0.4005 -0.7553  0.4593
 8614TIP3   OH247256   0.872   0.590   0.200  0.1790  0.0003  0.2859
 8614TIP3    H147257   0.874   0.621   0.109 -1.0557 -0.9573 -0.0710
 8614TIP3    H247258   0.860   0.670   0.252  1.3544  0.6123 -0.3365
 8615TIP3   OH247259   1.534   5.346   2.276  0.1249  0.1311  0.0558
 8615TIP3    H147260   1.603   5.339   2.210  0.5744  0.3939  0.4906
 8615TIP3    H247261   1.557   5.425   2.326 -0.6096  0.3418  0.0675
 8616TIP3   OH247262   1.207   6.616  16.309 -0.0789  0.1686  0.2521
 8616TIP3    H147263   1.218   6.526  16.341  1.0221 -0.0486 -0.7081
 8616TIP3    H247264   1.232   6.671  16.383 -0.1594 -0.3108  0.6374
 8617TIP3   OH247265   1.577   0.471   1.296  0.7527 -0.1695 -0.2115
 8617TIP3    H147266   1.498   0.417   1.287  0.0421  0.8682 -0.1995
 8617TIP3    H247267   1.583   0.490   1.389 -0.1630  1.5089 -0.4830
 8618TIP3   OH247268   5.354   2.467   0.626  0.0868  0.7283 -0.4232
 8618TIP3    H147269   5.381   2.418   0.549 -0.9087  0.3025 -0.5074
 8618TIP3    H247270   5.287   2.527   0.595  0.4069  1.2772 -0.0783
 8619TIP3   OH247271   6.254   1.044  14.865  0.1819 -0.5521 -0.1854
 8619TIP3    H147272   6.349   1.055  14.859 -0.1757  2.3360 -1.5211
 8619TIP3    H247273   6.241   0.987  14.941  3.0577 -2.9247 -1.3512
 8620TIP3   OH247274   5.243   6.442  14.682  0.1080  0.6134  0.0668
 8620TIP3    H147275   5.294   6.372  14.642 -0.9490 -0.8630  1.1926
 8620TIP3    H247276   5.199   6.399  14.756 -1.0582  2.3270  0.3973
 8621TIP3   OH247277   1.411   2.104   1.673  0.8057  0.1815 -0.1148
 8621TIP3    H147278   1.388   2.076   1.584  3.4655 -0.0766 -0.7528
 8621TIP3    H247279   1.330   2.093   1.723 -0.0332 -2.2256 -1.9020
 8622TIP3   OH247280   2.564   4.730   2.534 -0.0864  0.6220 -0.6711
 8622TIP3    H147281   2.627   4.787   2.578 -0.0429  0.5301 -0.6148
 8622TIP3    H247282   2.493   4.789   2.506  0.6727  0.9529 -1.9561
 8623TIP3   OH247283   5.330   3.947  11.344 -0.1176 -0.2328 -0.3683
 8623TIP3    H147284   5.327   3.853  11.324 -0.2114  0.2254 -2.6076
 8623TIP3    H247285   5.278   3.988  11.275 -0.9114  1.3922  1.1640
 8624TIP3   OH247286   4.384   2.648  16.663 -0.0081 -0.2061 -0.1931
 8624TIP3    H147287   4.298   2.624  16.696  0.1857 -0.0746  0.4023
 8624TIP3    H247288   4.431   2.564  16.654  0.0203 -0.2177  0.0784
 8625TIP3   OH247289   3.276   0.850   3.288  0.1551 -0.0914 -0.5509
 8625TIP3    H147290   3.302   0.941   3.305 -1.0855  0.1357  0.1171
 8625TIP3    H247291   3.326   0.826   3.209  0.6239  1.1052 -0.6297
 8626TIP3   OH247292   6.266   0.024   5.578 -0.2268  0.3355  0.1194
 8626TIP3    H147293   6.199  -0.010   5.636 -0.4006 -0.1850 -0.3867
 8626TIP3    H247294   6.244   0.117   5.569  0.2382  0.5808  1.4726
 8627TIP3   OH247295   4.854   2.225   5.400  0.1994  0.2959  0.1527
 8627TIP3    H147296   4.785   2.289   5.381  0.5537 -0.1609 -3.1144
 8627TIP3    H247297   4.934   2.277   5.406  0.2332  0.3616 -0.7573
 8628TIP3   OH247298   3.166   6.545   5.436 -0.3258  0.0901  0.3809
 8628TIP3    H147299   3.216   6.598   5.496 -0.7926 -0.3892  1.2060
 8628TIP3    H247300   3.139   6.469   5.487 -0.0035 -0.7469 -0.6673
 8629TIP3   OH247301   4.515   6.305  15.420 -0.3562 -0.1574  0.4383
 8629TIP3    H147302   4.587   6.313  15.358 -2.4573  1.7439 -1.8693
 8629TIP3    H247303   4.553   6.328  15.505  2.1587 -1.1101 -0.3911
 8630TIP3   OH247304   2.710   2.117   0.080 -0.7221 -0.0871 -0.0530
 8630TIP3    H147305   2.708   2.024   0.057 -0.2411 -0.2192  0.4183
 8630TIP3    H247306   2.669   2.161   0.005  1.0480 -0.4766 -1.2843
 8631TIP3   OH247307   1.579   1.023   3.464  0.2433 -0.5263 -0.2459
 8631TIP3    H147308   1.594   1.005   3.557 -0.2064  0.3730  0.0041
 8631TIP3    H247309   1.500   1.077   3.463  0.0888 -0.7709 -1.1742
 8632TIP3   OH247310   6.144   6.035   2.761 -0.2009  0.3176 -0.2115
 8632TIP3    H147311   6.224   6.027   2.813 -1.0716  1.5805  1.3629
 8632TIP3    H247312   6.155   5.971   2.691  2.1754  0.4609 -0.0082
 8633TIP3   OH247313   6.570   2.917  12.479 -0.0659 -0.1121  0.8539
 8633TIP3    H147314   6.581   2.981  12.549 -0.3449  1.1113 -0.1933
 8633TIP3    H247315   6.481   2.931  12.446 -0.3372 -1.4355  0.9934
 8634TIP3   OH247316   6.642   0.549  17.233 -0.2423 -0.0277 -0.2182
 8634TIP3    H147317   6.583   0.553  17.158  0.0690 -0.8257 -0.5124
 8634TIP3    H247318   6.730   0.543  17.194  0.1235  2.3083  0.2134
 8635TIP3   OH247319   1.003   5.442  14.788  0.1394 -0.0676  0.0113
 8635TIP3    H147320   0.955   5.387  14.725  0.2075  0.1946 -0.2690
 8635TIP3    H247321   1.094   5.436  14.761  0.1728  0.0280  0.1007
 8636TIP3   OH247322   5.093   6.636   0.895  0.1896 -0.1860 -0.0600
 8636TIP3    H147323   5.024   6.664   0.834  0.3484 -2.6808 -1.4089
 8636TIP3    H247324   5.175   6.657   0.851  0.3468  1.9934  1.1850
 8637TIP3   OH247325   1.762   2.639  15.391  0.0849 -0.1914  0.0393
 8637TIP3    H147326   1.830   2.703  15.372  2.4073 -2.3176  0.9473
 8637TIP3    H247327   1.748   2.593  15.308  2.7067 -2.4486  0.7876
 8638TIP3   OH247328   6.633   0.242   1.923  0.3028 -0.3899 -0.2065
 8638TIP3    H147329   6.631   0.175   1.854  1.3440  2.5681 -3.2531
 8638TIP3    H247330   6.595   0.320   1.882  1.8952  1.7597  2.2338
 8639TIP3   OH247331   5.295   5.792   3.702  0.4663 -0.3167  0.1228
 8639TIP3    H147332   5.372   5.735   3.703 -0.4385 -1.5751 -0.2706
 8639TIP3    H247333   5.330   5.880   3.713  1.8950 -0.9447  0.7829
 8640TIP3   OH247334   2.650   3.188  17.020 -0.2152  0.2234  0.2664
 8640TIP3    H147335   2.660   3.213  17.112  0.6217 -2.2712  0.8706
 8640TIP3    H247336   2.735   3.208  16.980  0.4973 -1.6857  0.7798
 8641TIP3   OH247337   6.114   2.152  17.179 -0.1895  0.0646 -0.0203
 8641TIP3    H147338   6.049   2.170  17.246  0.4917  2.0476  0.1300
 8641TIP3    H247339   6.161   2.234  17.168  0.9237 -0.7555 -1.6127
 8642TIP3   OH247340   3.306   0.378  14.110  1.0855  0.4340 -0.4888
 8642TIP3    H147341   3.397   0.394  14.084  1.7242 -1.5699  0.4434
 8642TIP3    H247342   3.313   0.322  14.187 -0.9371  0.7724 -0.0484
 8643TIP3   OH247343   4.769   5.895  16.579  0.6004  0.5740 -0.6622
 8643TIP3    H147344   4.836   5.946  16.625 -0.1702 -0.4928  1.7028
 8643TIP3    H247345   4.774   5.926  16.488  3.1233  1.7093 -0.1803
 8644TIP3   OH247346   3.021   3.020   0.717  0.1810 -0.0624 -0.4485
 8644TIP3    H147347   3.046   3.096   0.665  1.6979 -0.0564  0.2753
 8644TIP3    H247348   2.977   3.057   0.794 -0.0531  0.0216 -0.6203
 8645TIP3   OH247349   5.420   5.462  12.697 -0.6090  0.1192 -0.0227
 8645TIP3    H147350   5.436   5.541  12.749  0.9338  0.1460 -0.5040
 8645TIP3    H247351   5.364   5.408  12.753 -0.6008  0.9924  0.8536
 8646TIP3   OH247352   0.506   0.317   2.255  0.5961 -0.0931  0.1717
 8646TIP3    H147353   0.601   0.306   2.258  0.2782 -2.5615  2.6573
 8646TIP3    H247354   0.474   0.239   2.211 -0.3278  0.6974 -0.5906
 8647TIP3   OH247355   0.727   5.505   4.473 -0.4359  0.9120 -0.0744
 8647TIP3    H147356   0.675   5.579   4.443  0.9126  1.9260  0.0481
 8647TIP3    H247357   0.765   5.534   4.556  0.4688  0.2508 -0.2463
 8648TIP3   OH247358   3.599   1.552  15.802 -0.0598 -1.0788 -0.2561
 8648TIP3    H147359   3.693   1.563  15.790 -0.3894  1.1974 -1.0495
 8648TIP3    H247360   3.564   1.545  15.713 -0.6628 -1.6478  0.0204
 8649TIP3   OH247361   5.642   4.697   1.042  0.3785 -0.1498  0.1991
 8649TIP3    H147362   5.652   4.701   1.137  2.5216  0.1958 -0.0251
 8649TIP3    H247363   5.611   4.784   1.017  2.5815  0.6801  0.2920
 8650TIP3   OH247364   2.809   0.698   2.474  0.1881  0.3759  0.2020
 8650TIP3    H147365   2.829   0.606   2.455 -0.0509  0.6569 -1.4413
 8650TIP3    H247366   2.713   0.702   2.475  0.1945  0.7930 -0.6705
 8651TIP3   OH247367   3.086   0.067   3.059 -0.0860  0.2442 -0.2101
 8651TIP3    H147368   3.133   0.037   2.982 -0.6699 -0.4650 -0.3013
 8651TIP3    H247369   3.082   0.162   3.050  1.0845  0.2892 -0.3313
 8652TIP3   OH247370   4.372   1.496   0.478 -0.2464 -0.4923  0.0856
 8652TIP3    H147371   4.455   1.449   0.479 -0.1531 -0.4097 -1.7436
 8652TIP3    H247372   4.361   1.528   0.567  1.3927 -1.0094  0.4864
 8653TIP3   OH247373   0.251   1.301  16.977  0.0519  0.1096 -0.5456
 8653TIP3    H147374   0.309   1.290  16.901 -0.8207  0.2235 -1.2450
 8653TIP3    H247375   0.167   1.267  16.947 -0.5746  1.1556  0.0202
 8654TIP3   OH247376   0.084   4.470   3.367  0.0463 -0.5607 -0.3026
 8654TIP3    H147377   0.124   4.411   3.431  0.9890  0.2158 -0.1734
 8654TIP3    H247378   0.074   4.553   3.414  0.6515 -0.0149 -1.1368
 8655TIP3   OH247379   5.692   2.767  10.428 -0.0661  0.4196  0.0980
 8655TIP3    H147380   5.714   2.802  10.514  1.2482 -0.4078  0.0965
 8655TIP3    H247381   5.628   2.698  10.445  0.8637 -0.3510  0.4952
 8656TIP3   OH247382   6.555   3.777   1.183 -0.6074 -0.3470  0.0391
 8656TIP3    H147383   6.500   3.787   1.260 -0.0271  0.6263  0.3449
 8656TIP3    H247384   6.643   3.804   1.212 -0.3795  0.0020 -0.9409
 8657TIP3   OH247385   3.936   4.475  15.644 -0.1985  0.1210  0.4495
 8657TIP3    H147386   3.867   4.539  15.661 -0.9007 -1.0166  2.0131
 8657TIP3    H247387   4.017   4.526  15.648 -0.9014  1.3798 -0.9564
 8658TIP3   OH247388   0.552   5.474   5.646  0.0697  0.1660  0.0329
 8658TIP3    H147389   0.468   5.519   5.636  0.6733  1.5459  1.1205
 8658TIP3    H247390   0.586   5.467   5.557 -0.4402  1.0599 -0.2328
 8659TIP3   OH247391   2.255   4.020  14.736  0.1881 -0.7329  0.8971
 8659TIP3    H147392   2.344   3.988  14.723 -0.6439 -2.8093  0.0864
 8659TIP3    H247393   2.243   4.086  14.668  0.7634 -1.2104  0.3238
 8660TIP3   OH247394   5.404   3.553   4.803 -0.3311 -0.4156  0.9434
 8660TIP3    H147395   5.397   3.468   4.760 -0.1085 -1.4923  2.9570
 8660TIP3    H247396   5.494   3.554   4.838  0.1559  1.2648 -0.3168
 8661TIP3   OH247397   3.525   2.419  15.615  0.1928 -0.0353 -0.7534
 8661TIP3    H147398   3.432   2.417  15.594 -0.0203  0.3590  0.1467
 8661TIP3    H247399   3.553   2.507  15.593 -0.1120  0.4976  0.9126
 8662TIP3   OH247400   3.464   2.033   5.421 -0.0910 -0.0199 -0.0003
 8662TIP3    H147401   3.389   2.021   5.479 -0.0969 -0.2342 -0.0536
 8662TIP3    H247402   3.502   1.946   5.412  0.9472  0.3009  1.0932
 8663TIP3   OH247403   5.832   4.263  11.375 -0.2815  0.4374  0.3456
 8663TIP3    H147404   5.778   4.194  11.336  0.3457  0.3775 -0.4274
 8663TIP3    H247405   5.775   4.339  11.379 -0.5013  0.3040 -0.2454
 8664TIP3   OH247406   3.304   0.577  16.085 -0.1444  0.1224  0.0134
 8664TIP3    H147407   3.301   0.497  16.138  1.2045  0.1711  0.1864
 8664TIP3    H247408   3.269   0.645  16.143  2.3224  0.3789  1.2577
 8665TIP3   OH247409   2.063   0.525   2.390  0.2094 -0.0320 -0.4769
 8665TIP3    H147410   2.029   0.471   2.462  3.7313  0.2944  1.5492
 8665TIP3    H247411   2.087   0.608   2.432 -1.7194  1.8465 -2.8895
 8666TIP3   OH247412   2.174   2.084   4.432  0.1637  0.0906 -0.1713
 8666TIP3    H147413   2.082   2.069   4.413 -0.2169 -0.5892  1.9965
 8666TIP3    H247414   2.219   2.006   4.399  0.2046  1.1461 -2.6864
 8667TIP3   OH247415   0.504   2.135  11.573  0.0297 -0.0911  0.1293
 8667TIP3    H147416   0.550   2.166  11.651 -0.1189  0.7654 -0.1142
 8667TIP3    H247417   0.567   2.147  11.502  0.5681 -1.9003  0.2671
 8668TIP3   OH247418   4.874   6.754   1.317 -0.3619 -0.4268 -0.3120
 8668TIP3    H147419   4.821   6.830   1.343 -0.9049 -1.0463  0.3994
 8668TIP3    H247420   4.838   6.681   1.367  1.3863 -0.7933  0.4467
 8669TIP3   OH247421   1.897   5.041   1.932  0.2864 -0.1120 -0.2027
 8669TIP3    H147422   1.841   5.081   1.998 -1.0627 -0.6464 -1.0221
 8669TIP3    H247423   1.944   4.972   1.979  2.1720  1.9594  1.0760
 8670TIP3   OH247424   2.251   5.001   3.133  0.6584  0.0706 -0.7160
 8670TIP3    H147425   2.309   5.077   3.125  0.4029  0.2125 -1.3092
 8670TIP3    H247426   2.310   4.927   3.143  0.9394  0.2340 -1.1408
 8671TIP3   OH247427   3.811   6.377  16.631  0.1502 -0.0933 -0.0210
 8671TIP3    H147428   3.867   6.318  16.682 -0.6654 -0.7566  0.1278
 8671TIP3    H247429   3.722   6.347  16.650 -0.3358  1.7073  0.7081
 8672TIP3   OH247430   4.380   2.467   6.053  0.3524 -0.3831  0.4325
 8672TIP3    H147431   4.309   2.431   6.000 -0.0529 -0.5273  1.0690
 8672TIP3    H247432   4.405   2.547   6.007  1.1578 -1.3792 -0.9070
 8673TIP3   OH247433   2.300   3.989   4.220 -0.5621 -0.2447 -0.2926
 8673TIP3    H147434   2.314   4.057   4.285  1.6731 -1.0698  0.1594
 8673TIP3    H247435   2.254   4.032   4.149 -1.2836  1.1465  0.9956
 8674TIP3   OH247436   5.028   0.483  13.696 -0.0130 -0.0037 -0.0316
 8674TIP3    H147437   5.041   0.388  13.694  0.3490  0.0412  0.2328
 8674TIP3    H247438   4.965   0.500  13.626  0.9275 -0.2801 -0.9461
 8675TIP3   OH247439   5.674   3.728   0.316 -0.2132 -0.5884 -0.0505
 8675TIP3    H147440   5.662   3.693   0.405 -0.3011  0.0861  0.2071
 8675TIP3    H247441   5.744   3.792   0.324 -1.3431  0.6992 -0.1175
 8676TIP3   OH247442   4.448   6.167   4.094 -0.3398 -0.1758 -0.2337
 8676TIP3    H147443   4.447   6.164   3.998 -1.0199 -0.8213 -0.2125
 8676TIP3    H247444   4.463   6.259   4.116  0.8049 -0.1745 -0.9663
 8677TIP3   OH247445   6.075   6.138  12.436 -0.7242 -0.5937  0.5447
 8677TIP3    H147446   6.018   6.194  12.490 -1.0069  0.8159 -1.1642
 8677TIP3    H247447   6.016   6.102  12.370  0.2040  0.2527 -0.7593
 8678TIP3   OH247448   6.574   3.599  11.052 -0.2276  0.5949  0.4996
 8678TIP3    H147449   6.482   3.584  11.075  0.0174 -0.5589  0.7569
 8678TIP3    H247450   6.580   3.693  11.036 -1.1331  0.8995  1.9016
 8679TIP3   OH247451   4.111   4.966  17.208 -0.1873  0.1047  0.0467
 8679TIP3    H147452   4.079   5.042  17.160 -1.4958 -0.2384  0.3538
 8679TIP3    H247453   4.178   5.000  17.267 -0.4666  0.9450 -0.1236
 8680TIP3   OH247454   0.581   0.709  15.829 -1.0824  0.3752 -0.0579
 8680TIP3    H147455   0.602   0.784  15.884 -1.0943  0.4473 -0.1528
 8680TIP3    H247456   0.662   0.658  15.827 -0.9679  0.5696 -0.2898
 8681TIP3   OH247457   2.520   4.576  13.955  0.1984  0.0382  0.4506
 8681TIP3    H147458   2.562   4.628  13.887 -1.0572 -1.3654 -1.4456
 8681TIP3    H247459   2.592   4.541  14.007  1.3172 -0.7629 -1.5829
 8682TIP3   OH247460   6.754   0.689  15.839  0.6785 -0.3362 -0.0730
 8682TIP3    H147461   6.723   0.601  15.818 -0.2985  0.2458 -1.0668
 8682TIP3    H247462   6.729   0.702  15.931 -0.3209 -0.5904 -0.3114
 8683TIP3   OH247463   5.493   0.338   0.683 -0.2655  0.5314  0.0907
 8683TIP3    H147464   5.427   0.405   0.667  0.1278  1.1356  1.0169
 8683TIP3    H247465   5.467   0.265   0.626 -0.5811  1.5286 -1.0483
 8684TIP3   OH247466   1.563   6.480  16.491 -0.6301 -0.1920  0.6992
 8684TIP3    H147467   1.542   6.543  16.560 -0.0762  0.0510  0.6423
 8684TIP3    H247468   1.658   6.471  16.494 -0.8467 -2.5154  2.0447
 8685TIP3   OH247469   4.653   1.831   1.524  0.3219  0.8143  0.0013
 8685TIP3    H147470   4.647   1.737   1.504  0.3374 -0.3706  4.8433
 8685TIP3    H247471   4.744   1.853   1.507  1.0532 -0.8373  1.5267
 8686TIP3   OH247472   4.116   1.809   2.556 -0.2380  0.1642 -0.1422
 8686TIP3    H147473   4.169   1.739   2.594 -0.3215 -0.3873 -1.0403
 8686TIP3    H247474   4.172   1.887   2.561 -0.1431  0.0410  0.8435
 8687TIP3   OH247475   5.545   2.132   5.696  0.0804 -0.0388 -0.2269
 8687TIP3    H147476   5.540   2.175   5.781  1.4011  0.3957 -0.3597
 8687TIP3    H247477   5.472   2.169   5.646 -0.2772  0.2187  0.4808
 8688TIP3   OH247478   1.271   2.624  15.765  0.2963 -0.4029 -0.1204
 8688TIP3    H147479   1.366   2.615  15.768  0.3293 -0.1510 -0.3476
 8688TIP3    H247480   1.247   2.598  15.676  0.3787  1.5176 -0.7334
 8689TIP3   OH247481   2.435   3.941  13.277  0.1746  0.0541 -0.5320
 8689TIP3    H147482   2.518   3.897  13.290 -0.2601 -0.2337  1.5541
 8689TIP3    H247483   2.393   3.895  13.204  0.2452 -2.2403  0.8290
 8690TIP3   OH247484   0.993   0.877  12.291  0.1705  0.5472  0.2355
 8690TIP3    H147485   0.993   0.781  12.290  0.5948  0.4717  2.8313
 8690TIP3    H247486   0.901   0.901  12.277 -0.5829 -0.3842  3.1547
 8691TIP3   OH247487   1.646   1.763   3.660  0.1655 -0.3064  0.3611
 8691TIP3    H147488   1.700   1.824   3.610 -1.2452 -1.2162 -2.3638
 8691TIP3    H247489   1.708   1.720   3.720  2.0031  0.4306 -0.9672
 8692TIP3   OH247490   6.205   1.172  12.650 -0.4352  0.0130  0.3091
 8692TIP3    H147491   6.222   1.203  12.739  1.1861  2.7516 -0.8995
 8692TIP3    H247492   6.109   1.175  12.641 -0.5823  0.0560  1.8129
 8693TIP3   OH247493   3.306   4.142   1.748 -0.1165  0.0864  0.0115
 8693TIP3    H147494   3.371   4.213   1.750  0.3884 -0.3564 -0.2483
 8693TIP3    H247495   3.263   4.146   1.833 -0.0653  0.6764  0.0160
 8694TIP3   OH247496   4.661   2.230  14.506  0.0082 -0.1708  0.1644
 8694TIP3    H147497   4.734   2.278  14.546 -0.0221  0.7852 -0.9149
 8694TIP3    H247498   4.601   2.298  14.477 -0.3318 -0.8890 -0.8252
 8695TIP3   OH247499   3.141   4.119   2.008 -0.1904 -0.0814  0.4272
 8695TIP3    H147500   3.105   4.088   1.925  0.7561 -1.2076  0.4253
 8695TIP3    H247501   3.064   4.139   2.062 -0.8285  2.1169 -1.2180
 8696TIP3   OH247502   4.428   6.353  14.686  0.0829 -0.1293 -0.8953
 8696TIP3    H147503   4.466   6.268  14.665 -0.4713 -0.6284  0.1063
 8696TIP3    H247504   4.422   6.354  14.781 -1.1862  0.4892 -0.9746
 8697TIP3   OH247505   0.758   4.706  17.156 -0.0953  0.4674  0.0002
 8697TIP3    H147506   0.820   4.780  17.154 -0.2626  0.6661  1.5068
 8697TIP3    H247507   0.810   4.631  17.126  0.8510  0.6524  1.1468
 8698TIP3   OH247508   1.152   5.654   1.187  0.2742  0.2939  0.1037
 8698TIP3    H147509   1.076   5.681   1.239 -1.2758 -2.3690 -0.6811
 8698TIP3    H247510   1.162   5.561   1.206  3.2142  0.5292 -0.0394
 8699TIP3   OH247511   4.428   3.585   2.132  0.4330 -0.0040  0.0178
 8699TIP3    H147512   4.502   3.637   2.101 -0.2581  1.1532  0.2977
 8699TIP3    H247513   4.376   3.569   2.053 -0.4106  1.4642  0.2536
 8700TIP3   OH247514   5.463   0.432  16.726 -0.2444 -0.6271  0.0149
 8700TIP3    H147515   5.395   0.440  16.659  0.5165  0.4768 -0.6446
 8700TIP3    H247516   5.545   0.432  16.676  0.4552  2.4632  1.0548
 8701TIP3   OH247517   0.968   1.020   4.971  0.1364  0.1033 -0.1390
 8701TIP3    H147518   0.949   1.071   5.049 -0.0102 -0.0404 -0.0800
 8701TIP3    H247519   1.030   0.953   5.000  2.5314  1.9448 -0.8049
 8702TIP3   OH247520   2.145   1.162  13.229 -0.3095  0.0971  0.4041
 8702TIP3    H147521   2.103   1.163  13.315 -0.9097 -1.9479  0.1513
 8702TIP3    H247522   2.077   1.134  13.169  0.9610 -1.6262 -0.2516
 8703TIP3   OH247523   1.739   5.373   5.432 -0.3427  0.0849 -0.0638
 8703TIP3    H147524   1.715   5.312   5.362  0.9145  0.3237 -0.7163
 8703TIP3    H247525   1.771   5.316   5.502 -0.5110 -0.0983 -0.1371
 8704TIP3   OH247526   5.247   6.115  14.444 -0.6584 -0.1166  0.3241
 8704TIP3    H147527   5.188   6.115  14.368  0.9095  0.6264 -0.9308
 8704TIP3    H247528   5.279   6.025  14.450  0.2869  0.1266 -0.7885
 8705TIP3   OH247529   3.132   5.065  17.102 -0.0050 -0.7882 -0.8810
 8705TIP3    H147530   3.120   4.994  17.039  0.3883 -0.0781 -1.7670
 8705TIP3    H247531   3.217   5.103  17.079 -0.4083  0.2423 -0.6865
 8706TIP3   OH247532   2.050   2.443  10.601  0.5358 -0.2998 -0.1687
 8706TIP3    H147533   1.998   2.520  10.579 -0.0809 -1.1260 -1.6355
 8706TIP3    H247534   2.132   2.479  10.634  0.0831  0.9911 -0.4153
 8707TIP3   OH247535   2.346   0.596  12.200  0.2299  0.4353 -0.8175
 8707TIP3    H147536   2.384   0.684  12.194 -0.2261  0.7661  1.0253
 8707TIP3    H247537   2.253   0.609  12.185 -0.0273  0.4436  0.8038
 8708TIP3   OH247538   3.002   1.580  12.155  0.0257  0.5580  0.1380
 8708TIP3    H147539   3.036   1.535  12.232 -0.2898  0.4241  0.2011
 8708TIP3    H247540   2.908   1.585  12.170 -0.0405  0.4930 -0.2597
 8709TIP3   OH247541   2.978   4.010   4.920 -0.2875 -0.7573  0.1170
 8709TIP3    H147542   3.029   3.937   4.956 -1.2897 -1.9219 -0.7869
 8709TIP3    H247543   2.935   4.049   4.996  1.3934 -0.1850  0.8052
 8710TIP3   OH247544   3.191   3.310  12.897 -0.2401 -0.6271 -0.9487
 8710TIP3    H147545   3.182   3.366  12.974 -2.5088  0.8174 -2.2044
 8710TIP3    H247546   3.260   3.353  12.845 -1.5789  0.7306 -1.6373
 8711TIP3   OH247547   2.005   3.594  16.945 -0.0107 -0.1262 -0.2596
 8711TIP3    H147548   1.963   3.607  17.030 -0.8489 -1.1205 -0.5268
 8711TIP3    H247549   2.072   3.527  16.961 -0.3485 -0.5040 -0.4572
 8712TIP3   OH247550   6.541   6.747  13.768  0.7054  0.0829 -0.2873
 8712TIP3    H147551   6.506   6.812  13.828 -1.3091 -1.6394  0.4784
 8712TIP3    H247552   6.513   6.777  13.681 -1.5856 -0.5804  0.2054
 8713TIP3   OH247553   0.371   0.901  11.435 -0.4404  0.6266  0.3071
 8713TIP3    H147554   0.298   0.861  11.389  0.3507 -0.4340 -0.0456
 8713TIP3    H247555   0.448   0.877  11.384  0.3119  0.4598  1.4947
 8714TIP3   OH247556   6.199   0.827   1.857  0.4079 -0.2915  0.5281
 8714TIP3    H147557   6.165   0.775   1.930 -0.2085  0.9948  1.1726
 8714TIP3    H247558   6.242   0.763   1.800 -0.4205 -1.5205  1.2547
 8715TIP3   OH247559   0.559   6.590   1.310  0.0767  0.1133 -0.1111
 8715TIP3    H147560   0.539   6.518   1.369  1.1268  0.3580  0.5600
 8715TIP3    H247561   0.540   6.669   1.360  1.7022  0.3351  0.1986
 8716TIP3   OH247562   2.187   5.142  17.190 -0.1507  0.1432  0.3196
 8716TIP3    H147563   2.138   5.130  17.272  0.0076 -0.5815  0.3060
 8716TIP3    H247564   2.201   5.237  17.185 -1.1425  0.3091  0.5626
 8717TIP3   OH247565   4.539   6.280  13.436  0.6388 -0.6524 -0.0337
 8717TIP3    H147566   4.475   6.239  13.494  1.8228 -2.2761  0.1473
 8717TIP3    H247567   4.503   6.271  13.348  0.9574 -2.2225 -0.0065
 8718TIP3   OH247568   4.679   5.680   1.094  0.0563 -0.2338 -0.1217
 8718TIP3    H147569   4.623   5.743   1.139 -1.8466 -1.0564 -1.2829
 8718TIP3    H247570   4.622   5.606   1.075  0.9176 -0.1891 -3.2734
 8719TIP3   OH247571   0.512   5.660   3.721 -0.2483 -0.3126 -0.5002
 8719TIP3    H147572   0.588   5.698   3.677  0.5000 -1.1849  0.0200
 8719TIP3    H247573   0.445   5.655   3.653  0.3754 -0.1536 -1.1357
 8720TIP3   OH247574   1.120   6.587   0.859  1.0267 -0.3215  0.8030
 8720TIP3    H147575   1.105   6.510   0.914  2.8264 -0.5018  1.0925
 8720TIP3    H247576   1.205   6.622   0.889  1.1320  0.6781 -0.5811
 8721TIP3   OH247577   4.963   2.029  14.910 -0.4273  0.4540  0.1649
 8721TIP3    H147578   4.983   1.976  14.988 -1.2091 -0.2797 -0.1257
 8721TIP3    H247579   4.892   2.087  14.938 -1.2435 -0.3503 -0.2194
 8722TIP3   OH247580   2.224   6.695  15.072 -0.3990  0.1745  0.2782
 8722TIP3    H147581   2.203   6.756  15.142  2.0782 -0.0063  1.2154
 8722TIP3    H247582   2.293   6.739  15.022 -0.6724 -0.5964 -0.7989
 8723TIP3   OH247583   5.282   3.900  17.061 -0.4534 -0.1668 -0.3850
 8723TIP3    H147584   5.285   3.854  16.977  0.7258 -0.1555 -0.3618
 8723TIP3    H247585   5.225   3.846  17.116 -0.4543 -0.6876 -0.8943
 8724TIP3   OH247586   6.641   4.794   5.952 -0.3236 -0.1997 -0.5516
 8724TIP3    H147587   6.668   4.881   5.921  1.3318 -0.6123 -0.2844
 8724TIP3    H247588   6.692   4.780   6.031 -0.2889 -1.5940 -0.8211
 8725TIP3   OH247589   1.473   5.010   1.059  0.2388 -0.4743  0.3297
 8725TIP3    H147590   1.386   5.037   1.088  0.3376 -0.7437  0.8890
 8725TIP3    H247591   1.458   4.965   0.976 -0.2318 -1.1095  0.7555
 8726TIP3   OH247592   2.884   5.048  12.731  0.5093  0.2379  0.0311
 8726TIP3    H147593   2.898   5.108  12.659 -1.7967 -0.6563 -1.2135
 8726TIP3    H247594   2.827   5.096  12.792 -1.7941 -0.8309 -1.2285
 8727TIP3   OH247595   6.050   1.085   0.475 -0.1443  0.1410 -0.2118
 8727TIP3    H147596   6.112   1.153   0.500  1.5817 -1.4828  0.0362
 8727TIP3    H247597   6.022   1.045   0.557  0.5855 -0.9297 -0.4728
 8728TIP3   OH247598   4.906   3.231   1.016 -0.1452  0.4108 -0.3209
 8728TIP3    H147599   4.853   3.251   0.939  0.2302  0.4932 -0.5590
 8728TIP3    H247600   4.961   3.309   1.028  1.9278 -0.7540 -1.7537
 8729TIP3   OH247601   4.208   0.614   0.907  0.0445  0.0529  0.2079
 8729TIP3    H147602   4.163   0.533   0.930  0.4534 -0.5612 -1.0569
 8729TIP3    H247603   4.186   0.676   0.976 -1.0257 -0.8695  0.6918
 8730TIP3   OH247604   6.720   1.726  12.757  0.4076 -0.2235  0.0592
 8730TIP3    H147605   6.757   1.769  12.680  2.6071  1.7804  2.1447
 8730TIP3    H247606   6.640   1.775  12.776  0.6827  0.2665 -0.0373
 8731TIP3   OH247607   1.942   0.335   3.580  0.0871 -0.0283  0.1983
 8731TIP3    H147608   1.851   0.338   3.610  0.6508  0.9317  1.8756
 8731TIP3    H247609   1.992   0.307   3.656  1.3483  0.6443 -0.3540
 8732TIP3   OH247610   2.739   0.062  14.069  0.2705  0.1707  0.0927
 8732TIP3    H147611   2.665   0.010  14.039 -0.7868  1.0566  1.1275
 8732TIP3    H247612   2.782   0.008  14.134 -0.3728  0.2623  0.6009
 8733TIP3   OH247613   2.050   1.960  10.956 -0.4453 -0.4464 -0.6320
 8733TIP3    H147614   1.994   2.028  10.919  0.2382  0.1934 -0.5042
 8733TIP3    H247615   2.015   1.944  11.043  1.5410  2.2927  0.7170
 8734TIP3   OH247616   3.029   2.956  16.294 -0.2686 -0.0611  0.6131
 8734TIP3    H147617   2.937   2.980  16.301 -0.9660 -2.2578 -0.6348
 8734TIP3    H247618   3.053   2.979  16.204  0.0531 -0.6893  0.5370
 8735TIP3   OH247619   3.689   1.811  14.338 -0.5243  0.0393  0.2550
 8735TIP3    H147620   3.752   1.740  14.349 -0.7673  0.1024  2.3135
 8735TIP3    H247621   3.615   1.771  14.292  0.3166 -0.4386 -0.6954
 8736TIP3   OH247622   4.011   0.873  13.032 -0.1136  0.3732 -0.3548
 8736TIP3    H147623   3.951   0.799  13.028 -0.6304  0.8332 -1.2642
 8736TIP3    H247624   4.021   0.891  13.125 -0.0393 -0.7920 -0.1332
 8737TIP3   OH247625   2.961   2.945  15.067  0.4882  0.1149 -0.3757
 8737TIP3    H147626   3.054   2.966  15.078  0.5308 -1.0473  1.6977
 8737TIP3    H247627   2.918   2.990  15.140 -0.4663 -0.0077 -0.8628
 8738TIP3   OH247628   4.921   3.536   1.638 -0.0786 -0.2102 -0.1355
 8738TIP3    H147629   4.976   3.575   1.706  0.1037  0.3561 -0.6028
 8738TIP3    H247630   4.896   3.610   1.583  1.5769 -0.9557 -1.9656
 8739TIP3   OH247631   3.868   3.702  11.751  0.2615 -0.7133 -0.2938
 8739TIP3    H147632   3.842   3.710  11.843  2.4949 -0.1965  0.3438
 8739TIP3    H247633   3.908   3.616  11.745  2.6951  0.3482 -0.0473
 8740TIP3   OH247634   0.614   5.669  13.453  0.0228 -0.3324 -0.2946
 8740TIP3    H147635   0.651   5.617  13.524 -2.6362 -2.9399 -0.7206
 8740TIP3    H247636   0.585   5.750  13.495  3.2614  0.4555  0.5739
 8741TIP3   OH247637   5.640   3.000   2.917  0.0510 -0.4853  0.2141
 8741TIP3    H147638   5.698   2.924   2.914  2.3853  1.2681 -1.1202
 8741TIP3    H247639   5.636   3.023   3.010 -0.5166 -2.1144  0.6009
 8742TIP3   OH247640   4.903   1.591  15.222  0.4522  0.2144  0.1290
 8742TIP3    H147641   4.807   1.590  15.220  0.3049  2.8972  2.8082
 8742TIP3    H247642   4.927   1.498  15.228 -1.8718 -0.5843 -1.7790
 8743TIP3   OH247643   3.642   2.502  14.618 -0.2513  0.0814  0.4174
 8743TIP3    H147644   3.733   2.512  14.646  0.1980 -2.5793 -0.0102
 8743TIP3    H247645   3.593   2.489  14.700  0.1840 -1.4100  0.4553
 8744TIP3   OH247646   1.533   1.188   4.104  0.3184  0.4969  0.0500
 8744TIP3    H147647   1.558   1.259   4.046  1.1323  1.1748  1.2119
 8744TIP3    H247648   1.544   1.108   4.052 -2.0753  1.2989 -1.7611
 8745TIP3   OH247649   1.054   3.738  12.236 -0.1098  0.3773  0.5353
 8745TIP3    H147650   1.041   3.797  12.162  1.1228 -0.6518 -0.5412
 8745TIP3    H247651   1.138   3.765  12.274 -0.0366 -0.0251  0.6605
 8746TIP3   OH247652   3.028   2.884   6.021 -0.6486 -0.1807 -0.1185
 8746TIP3    H147653   2.940   2.905   6.052 -1.3025 -0.2761 -1.8593
 8746TIP3    H247654   3.081   2.960   6.045 -1.2377 -0.0499  0.7910
 8747TIP3   OH247655   5.973   0.776  16.732  0.6149  0.1522 -0.7460
 8747TIP3    H147656   6.019   0.704  16.776 -1.0855 -1.0115 -0.8164
 8747TIP3    H247657   5.903   0.800  16.793  1.3187  1.9321 -0.6139
 8748TIP3   OH247658   5.025   3.259   6.808  0.1547 -0.0661 -0.1038
 8748TIP3    H147659   4.965   3.203   6.857  1.0293 -0.2113  0.8388
 8748TIP3    H247660   4.997   3.251   6.717 -0.2992 -1.3246  0.1379
 8749TIP3   OH247661   5.748   1.412   4.429  0.2141 -0.1567  0.6436
 8749TIP3    H147662   5.655   1.431   4.440 -0.0442 -0.4736 -0.8736
 8749TIP3    H247663   5.792   1.473   4.489 -0.8192  2.4178 -1.1100
 8750TIP3   OH247664   5.904   5.815   0.420 -0.3387 -0.0114 -0.1166
 8750TIP3    H147665   5.906   5.881   0.351 -0.6835  0.3666  0.2318
 8750TIP3    H247666   5.927   5.733   0.375  1.5036  0.5753 -0.2718
 8751TIP3   OH247667   5.398   1.543  15.898 -0.1328  0.0710  0.1803
 8751TIP3    H147668   5.307   1.570  15.884  0.0425  0.0125 -1.1998
 8751TIP3    H247669   5.447   1.625  15.904 -0.3628  0.1059  1.5212
 8752TIP3   OH247670   3.312   0.282  12.470  0.6618 -0.0130 -0.5812
 8752TIP3    H147671   3.333   0.332  12.391 -0.1830  1.7389  0.2747
 8752TIP3    H247672   3.268   0.345  12.527  1.3265 -1.2410  1.3312
 8753TIP3   OH247673   3.649   5.631   5.070 -0.8866 -0.0373 -0.5221
 8753TIP3    H147674   3.635   5.547   5.026  2.0047 -0.8435 -0.0272
 8753TIP3    H247675   3.678   5.690   5.001 -0.3425 -0.1806 -0.4184
 8754TIP3   OH247676   1.022   4.617  14.210  0.0712 -0.1229 -0.0584
 8754TIP3    H147677   0.938   4.575  14.227 -0.0990  0.5020  0.6734
 8754TIP3    H247678   1.066   4.620  14.295 -0.3782  2.1519  0.1226
 8755TIP3   OH247679   4.088   2.645  12.179  0.5355 -0.1623 -0.1094
 8755TIP3    H147680   4.051   2.560  12.156  2.7221 -0.9314 -0.9236
 8755TIP3    H247681   4.163   2.655  12.120  0.8404  1.9144  0.6050
 8756TIP3   OH247682   1.508   1.002  14.064  0.7827  0.2284  0.0216
 8756TIP3    H147683   1.465   0.933  14.013 -1.3542  1.3067  0.3062
 8756TIP3    H247684   1.562   0.955  14.127 -2.8017 -1.3142  2.0927
 8757TIP3   OH247685   3.815   6.074  11.313  0.5960  0.0529  0.1203
 8757TIP3    H147686   3.825   5.979  11.315 -0.2765 -0.0509 -0.0331
 8757TIP3    H247687   3.857   6.102  11.232 -0.9312 -0.4328 -0.8550
 8758TIP3   OH247688   4.720   3.321  11.188 -0.2680  0.1973  0.4342
 8758TIP3    H147689   4.783   3.284  11.127 -1.3684 -0.9669 -0.0388
 8758TIP3    H247690   4.740   3.414  11.192  0.4623  0.1009 -0.9097
 8759TIP3   OH247691   1.664   5.051  14.182 -0.3800  0.0644 -0.0082
 8759TIP3    H147692   1.755   5.023  14.184 -0.1889  0.4754 -2.1133
 8759TIP3    H247693   1.668   5.146  14.191 -0.7950 -0.1477  2.8681
 8760TIP3   OH247694   3.484   3.116  16.713 -0.3496  0.1364 -0.1683
 8760TIP3    H147695   3.566   3.119  16.764 -0.3047 -0.8364 -0.1834
 8760TIP3    H247696   3.495   3.186  16.648  0.8901 -0.6174 -0.7951
 8761TIP3   OH247697   3.661   4.759   1.161  0.3468  0.2322  0.2269
 8761TIP3    H147698   3.677   4.666   1.144  0.5926  0.2538  0.3401
 8761TIP3    H247699   3.613   4.760   1.244 -0.6159  0.1427 -0.3264
 8762TIP3   OH247700   2.341   1.294  11.419 -0.1006 -0.4745  0.3181
 8762TIP3    H147701   2.345   1.242  11.339 -0.4718  1.6522 -1.1311
 8762TIP3    H247702   2.414   1.355  11.412 -0.3850  0.0172  1.4073
 8763TIP3   OH247703   4.427   1.402   4.914  1.0992 -0.1953  0.3848
 8763TIP3    H147704   4.449   1.482   4.867  1.4010  0.7874  2.1433
 8763TIP3    H247705   4.336   1.383   4.888  0.8999  0.9352  0.2547
 8764TIP3   OH247706   0.216   0.937   3.962 -0.2700 -0.2096  0.1906
 8764TIP3    H147707   0.268   0.927   4.041  0.6104  0.2486 -0.3220
 8764TIP3    H247708   0.277   0.920   3.890 -0.7136  0.7487 -0.4325
 8765TIP3   OH247709   1.254   4.088   0.808  0.0333  0.1455 -0.0758
 8765TIP3    H147710   1.252   3.993   0.795 -0.0673 -0.1236  1.8237
 8765TIP3    H247711   1.337   4.116   0.769  1.0361 -1.0138  1.1914
 8766TIP3   OH247712   4.617   0.132   2.809 -0.0258 -0.1189  0.4717
 8766TIP3    H147713   4.528   0.161   2.827 -0.3670 -2.0984  2.0941
 8766TIP3    H247714   4.665   0.213   2.791 -2.2546  0.9289 -1.0370
 8767TIP3   OH247715   0.018   1.429   3.578 -0.8061 -0.3693 -0.5003
 8767TIP3    H147716  -0.058   1.407   3.524 -0.3847  0.0498 -1.2698
 8767TIP3    H247717   0.066   1.494   3.527  0.2594 -0.8867 -0.1775
 8768TIP3   OH247718   2.076   0.250  13.053 -0.1671  0.8294 -0.1898
 8768TIP3    H147719   2.070   0.177  12.991  0.0732  1.1858 -0.6280
 8768TIP3    H247720   2.007   0.232  13.117  1.2461 -0.9249  0.9005
 8769TIP3   OH247721   3.327   6.525  17.004 -0.0264  0.4920 -0.3549
 8769TIP3    H147722   3.340   6.617  16.980  1.3832  0.3259 -0.2370
 8769TIP3    H247723   3.304   6.482  16.922 -0.5944  0.9200 -0.4289
 8770TIP3   OH247724   2.831   1.973  11.887  0.4190  0.0493  0.1682
 8770TIP3    H147725   2.878   1.913  11.945  0.6109  0.3945  0.3716
 8770TIP3    H247726   2.897   2.004  11.826  0.0123 -1.0755 -0.8713
 8771TIP3   OH247727   2.287   2.872   5.798  0.2596 -0.0297 -0.3228
 8771TIP3    H147728   2.283   2.918   5.882 -0.7437 -0.5358 -0.0838
 8771TIP3    H247729   2.380   2.852   5.785  0.3864 -0.1850  0.7982
 8772TIP3   OH247730   4.909   6.443   6.273 -0.2854 -0.7049  0.0648
 8772TIP3    H147731   4.877   6.533   6.275 -1.5287 -1.1570  1.4119
 8772TIP3    H247732   4.836   6.393   6.237  0.3236 -1.2107 -0.4720
 8773TIP3   OH247733   2.126   1.600   4.695 -0.5320 -0.1957 -0.5877
 8773TIP3    H147734   2.125   1.695   4.709 -2.3719 -0.1257 -1.0670
 8773TIP3    H247735   2.174   1.589   4.613  1.2171  0.1833  0.3750
 8774TIP3   OH247736   2.226   5.133   6.316 -0.5003  0.3352 -1.0147
 8774TIP3    H147737   2.147   5.121   6.369 -0.2073  0.1319 -0.6216
 8774TIP3    H247738   2.281   5.191   6.368  0.9760 -2.0887  0.2028
 8775TIP3   OH247739   4.399   2.216  11.665 -0.2641 -0.1716 -0.1000
 8775TIP3    H147740   4.484   2.192  11.627  0.1857  1.8056 -0.4012
 8775TIP3    H247741   4.350   2.134  11.667  1.9514 -1.5069  0.8767
 8776TIP3   OH247742   1.356   2.437  16.877  0.0502 -0.3969  0.4485
 8776TIP3    H147743   1.348   2.494  16.954  0.4581 -0.0540  0.2408
 8776TIP3    H247744   1.407   2.488  16.814  1.1135 -1.2790  0.5649
 8777TIP3   OH247745   3.951   5.812   2.811 -0.3810  0.1183 -0.0574
 8777TIP3    H147746   3.941   5.890   2.866 -2.1794  0.6838 -1.1649
 8777TIP3    H247747   3.948   5.739   2.872 -0.9521  0.8016  0.7393
 8778TIP3   OH247748   1.505   1.095   1.850 -0.3331 -0.1944 -0.2624
 8778TIP3    H147749   1.518   1.036   1.776  1.1729 -2.0142  1.4054
 8778TIP3    H247750   1.538   1.047   1.925 -1.2463  1.8737  1.5175
 8779TIP3   OH247751   2.609   0.786  13.673 -0.6857 -0.1391  0.4595
 8779TIP3    H147752   2.669   0.714  13.689 -1.3919 -0.4990  1.5423
 8779TIP3    H247753   2.586   0.818  13.760  0.5296  2.1674 -0.0240
 8780TIP3   OH247754   1.530   5.674  11.164  0.3790  0.1538  0.0685
 8780TIP3    H147755   1.570   5.639  11.085 -1.9783  0.5459 -1.3614
 8780TIP3    H247756   1.542   5.769  11.157 -0.7816  0.2831 -0.4154
 8781TIP3   OH247757   1.491   4.788   5.669  0.5285 -0.1220  0.2758
 8781TIP3    H147758   1.478   4.726   5.741 -0.2373  0.7762  0.9213
 8781TIP3    H247759   1.488   4.734   5.590  2.1713 -1.2336  0.9462
 8782TIP3   OH247760   5.499   0.950  13.437  0.6966 -0.2595  0.1427
 8782TIP3    H147761   5.465   0.862  13.420 -0.5648  0.1458  0.5252
 8782TIP3    H247762   5.573   0.959  13.377 -1.1415 -0.4081 -2.2273
 8783TIP3   OH247763   3.681   3.793   1.981 -0.5087  0.3535  0.3634
 8783TIP3    H147764   3.671   3.887   1.997 -1.2125  0.0691  1.7001
 8783TIP3    H247765   3.592   3.759   1.989 -0.2043 -0.4766  0.2254
 8784TIP3   OH247766   1.054   1.870   5.068  0.0773 -0.2185  0.7021
 8784TIP3    H147767   1.013   1.920   5.138  0.5602 -1.1896  1.6848
 8784TIP3    H247768   1.095   1.796   5.112 -0.4244 -1.3506 -0.7246
 8785TIP3   OH247769   0.398   3.547   0.164  0.2772 -0.1390  0.2307
 8785TIP3    H147770   0.337   3.602   0.114  0.5127 -0.4505 -0.3982
 8785TIP3    H247771   0.344   3.509   0.233  0.1158  0.9199  0.7021
 8786TIP3   OH247772   0.618   3.535   5.186 -0.4057 -0.6229  0.1193
 8786TIP3    H147773   0.553   3.471   5.213 -1.2006  0.1171 -0.0172
 8786TIP3    H247774   0.633   3.515   5.093  0.8169 -1.8644  0.5757
 8787TIP3   OH247775   0.328   1.913   0.718  0.8818  0.1186 -0.4800
 8787TIP3    H147776   0.386   1.879   0.786  1.2031  0.7560 -0.4324
 8787TIP3    H247777   0.356   1.868   0.638 -0.0101 -1.2127 -0.0488
 8788TIP3   OH247778   2.080   0.791   5.795 -0.0972 -0.1829 -0.1336
 8788TIP3    H147779   2.154   0.793   5.734  0.7955 -3.3301  0.7841
 8788TIP3    H247780   2.116   0.826   5.877 -0.0665 -0.1889 -0.1447
 8789TIP3   OH247781   2.614   0.182  14.548  0.0409  0.3151 -0.0294
 8789TIP3    H147782   2.701   0.198  14.511  0.9075 -0.2478  1.7438
 8789TIP3    H247783   2.566   0.138  14.477  1.2607  0.4097 -0.9306
 8790TIP3   OH247784   5.071   3.135  12.807 -0.6632 -0.4762  0.2633
 8790TIP3    H147785   5.004   3.160  12.744 -1.6676 -3.0663  0.2463
 8790TIP3    H247786   5.149   3.120  12.755 -0.1383  2.1084  0.2331
 8791TIP3   OH247787   2.952   1.664  13.642 -0.6883 -0.2941  0.2096
 8791TIP3    H147788   2.868   1.660  13.689 -0.1194  0.6380  1.3644
 8791TIP3    H247789   2.973   1.574  13.621 -1.0113 -0.7316  1.7074
 8792TIP3   OH247790   2.106   2.559   1.261  0.6834  0.4845 -0.5508
 8792TIP3    H147791   2.139   2.620   1.194  2.5999  0.0525 -0.0261
 8792TIP3    H247792   2.087   2.614   1.337  1.5521  0.5481 -0.3803
 8793TIP3   OH247793   5.862   4.329   5.459  0.8133  0.3279  0.0672
 8793TIP3    H147794   5.797   4.308   5.392  1.0054 -1.7567  0.4921
 8793TIP3    H247795   5.934   4.370   5.411  1.0758 -1.4133 -1.0833
 8794TIP3   OH247796   5.408   1.421   4.699  0.4459  0.5397  0.6857
 8794TIP3    H147797   5.486   1.440   4.751  1.0085 -0.2856  0.1498
 8794TIP3    H247798   5.435   1.436   4.608  0.0320  0.1017  0.4856
 8795TIP3   OH247799   5.242   0.369  16.197 -0.4566  0.0238 -0.8435
 8795TIP3    H147800   5.251   0.277  16.223  1.0029 -0.0443 -1.5860
 8795TIP3    H247801   5.313   0.384  16.134  1.1727  2.4694  1.4797
 8796TIP3   OH247802   6.350   5.616  11.042  0.1383  0.1903  0.2404
 8796TIP3    H147803   6.257   5.594  11.041 -0.3201  1.9876  0.9763
 8796TIP3    H247804   6.395   5.531  11.044 -1.4779 -0.6866  0.0263
 8797TIP3   OH247805   1.616   4.149  14.119  0.3584  0.3486  0.2024
 8797TIP3    H147806   1.521   4.143  14.120  0.4047 -0.4515  0.5231
 8797TIP3    H247807   1.636   4.230  14.166 -0.1378  0.0334  0.9819
 8798TIP3   OH247808   5.038   0.257   3.730  0.3034  0.0919  0.6289
 8798TIP3    H147809   5.065   0.208   3.653 -1.1231  2.2754 -1.3113
 8798TIP3    H247810   5.011   0.190   3.793  0.1413 -1.6794 -1.2734
 8799TIP3   OH247811   2.526   0.461   1.240  0.3394 -0.1441  0.7838
 8799TIP3    H147812   2.550   0.423   1.325 -1.9228  3.0284  2.9310
 8799TIP3    H247813   2.609   0.471   1.194  1.7836 -0.4216  3.2612
 8800TIP3   OH247814   6.318   5.748  10.636  0.3823  0.5075 -0.2297
 8800TIP3    H147815   6.314   5.728  10.543  2.4992 -3.3471  0.4390
 8800TIP3    H247816   6.263   5.682  10.678  0.8839  1.0952  1.4129
 8801TIP3   OH247817   3.114   3.668  12.870 -0.4456 -0.3862  0.3563
 8801TIP3    H147818   3.109   3.605  12.942  0.7952 -1.8393 -0.8033
 8801TIP3    H247819   3.099   3.616  12.791 -3.6765  1.5194 -0.3345
 8802TIP3   OH247820   3.231   0.605  12.047  0.3016  0.2939  0.1040
 8802TIP3    H147821   3.204   0.596  11.956  1.8929  2.0895 -0.5584
 8802TIP3    H247822   3.160   0.655  12.088  0.8589  1.8344 -0.7853
 8803TIP3   OH247823   0.166   1.235  16.263 -1.1148 -0.1467  0.3303
 8803TIP3    H147824   0.260   1.222  16.274 -0.8669  0.7102 -0.6375
 8803TIP3    H247825   0.125   1.174  16.324  0.0909  0.8900  2.1961
 8804TIP3   OH247826   4.391   2.615  10.949  0.3269  0.3338  0.0874
 8804TIP3    H147827   4.481   2.649  10.944  0.5155 -0.2530 -0.6597
 8804TIP3    H247828   4.395   2.545  11.014  0.9655 -1.2976 -1.6354
 8805TIP3   OH247829   2.986   2.781   4.117  0.1389  0.0707 -0.5376
 8805TIP3    H147830   2.907   2.834   4.106  0.3054  0.3773 -0.2665
 8805TIP3    H247831   3.034   2.793   4.035  0.5923  1.0399 -0.1433
 8806TIP3   OH247832   3.997   4.127  11.287  0.5490 -0.3946 -0.3726
 8806TIP3    H147833   3.970   4.119  11.196 -4.8633  0.3556  0.9600
 8806TIP3    H247834   4.052   4.205  11.290  0.4666 -0.1970 -2.9300
 8807TIP3   OH247835   0.066   0.843  16.571 -0.2165 -0.5561  0.4961
 8807TIP3    H147836   0.074   0.801  16.657  0.9366 -2.7658 -0.6652
 8807TIP3    H247837  -0.003   0.794  16.527  0.3318 -0.4908 -0.4374
 8808TIP3   OH247838   1.197   4.598  14.448 -0.0090 -0.1283  0.1731
 8808TIP3    H147839   1.276   4.643  14.478  0.4634 -0.4498 -0.5671
 8808TIP3    H247840   1.125   4.648  14.486  0.5810 -0.6221  1.9547
 8809TIP3   OH247841   2.972   2.404  15.483 -0.5628  0.2127  0.5656
 8809TIP3    H147842   2.965   2.399  15.387  0.1522 -0.5509  0.5522
 8809TIP3    H247843   2.986   2.314  15.511  2.5675  0.8125  1.1128
 8810TIP3   OH247844   3.146   3.518   3.178  0.2935 -0.2465 -0.2305
 8810TIP3    H147845   3.218   3.580   3.192  0.8307 -0.4966 -1.7534
 8810TIP3    H247846   3.157   3.490   3.087 -0.5159 -1.8523  0.1553
 8811TIP3   OH247847   1.278   0.175  11.929  0.1235  0.3558 -0.2263
 8811TIP3    H147848   1.205   0.192  11.869  0.0950  3.7076  0.6341
 8811TIP3    H247849   1.244   0.201  12.015  2.4768  2.4091  0.1263
 8812TIP3   OH247850   2.234   4.059  12.655 -0.2204 -0.2158 -0.8528
 8812TIP3    H147851   2.248   3.975  12.698 -0.0660  0.1349 -0.2275
 8812TIP3    H247852   2.162   4.042  12.594 -1.1159 -0.4464  0.2646
 8813TIP3   OH247853   4.558   0.224  14.508 -0.1755  0.1399 -0.2622
 8813TIP3    H147854   4.525   0.134  14.516  0.4749  0.0597  1.5811
 8813TIP3    H247855   4.650   0.218  14.533 -0.3612  1.4858  0.7488
 8814TIP3   OH247856   3.760   1.499   0.839 -0.1222  0.2344  0.1234
 8814TIP3    H147857   3.836   1.507   0.897 -1.1152 -3.4842  2.1367
 8814TIP3    H247858   3.796   1.459   0.759  0.2209 -0.8371  0.7913
 8815TIP3   OH247859   4.515   1.312   0.650  0.1325  0.3792  0.2187
 8815TIP3    H147860   4.591   1.255   0.648  0.7681  1.2082  0.7272
 8815TIP3    H247861   4.441   1.253   0.636  0.9114 -0.3370 -0.9389
 8816TIP3   OH247862   5.986   5.212   0.223  0.9180  0.0438  0.7885
 8816TIP3    H147863   6.062   5.160   0.248  0.7402  0.0552  1.3708
 8816TIP3    H247864   5.918   5.186   0.286  0.2260 -0.4868 -0.1587
 8817TIP3   OH247865   5.408   5.719  14.095 -0.1904 -0.1612  0.1493
 8817TIP3    H147866   5.450   5.687  14.175 -0.5871 -0.9892  0.0260
 8817TIP3    H247867   5.314   5.710  14.111 -0.2748 -0.2977 -0.3961
 8818TIP3   OH247868   1.088   5.569  16.794 -0.2475  0.0138  0.3836
 8818TIP3    H147869   1.047   5.590  16.710  0.8588 -0.0436 -0.1773
 8818TIP3    H247870   1.064   5.478  16.811 -2.0490  0.5965  1.0596
 8819TIP3   OH247871   5.011   2.594   6.590  0.0957 -0.0750  0.4081
 8819TIP3    H147872   5.003   2.499   6.580  1.6655 -0.2181  0.4608
 8819TIP3    H247873   4.921   2.626   6.585 -0.3629 -1.4655 -0.6551
 8820TIP3   OH247874   1.972   5.563   2.735  0.3395 -0.4887 -0.0763
 8820TIP3    H147875   1.908   5.530   2.671  0.7922 -0.5405 -0.5049
 8820TIP3    H247876   2.000   5.647   2.699 -2.6016  1.5837  2.2028
 8821TIP3   OH247877   2.113   3.853  13.454  0.2516  0.2007 -0.9334
 8821TIP3    H147878   2.151   3.936  13.425  0.2040  0.3725 -0.4924
 8821TIP3    H247879   2.184   3.810  13.502  1.3635 -1.4485 -3.9181
 8822TIP3   OH247880   2.446   5.618  12.992  0.8577  0.0840 -0.4191
 8822TIP3    H147881   2.502   5.628  13.069 -0.5432 -0.0226  0.6365
 8822TIP3    H247882   2.428   5.524  12.987 -2.0053  0.4753  1.3069
 8823TIP3   OH247883   3.942   3.097   1.025 -0.0358  0.1747 -0.3016
 8823TIP3    H147884   3.862   3.045   1.016 -0.0380 -0.0583  0.9130
 8823TIP3    H247885   3.991   3.052   1.094 -0.5252  2.3937  1.5529
 8824TIP3   OH247886   5.603   1.178  15.107  0.5175 -0.1821  0.2069
 8824TIP3    H147887   5.606   1.106  15.170 -1.2846  0.8407  1.5163
 8824TIP3    H247888   5.689   1.218  15.113  1.0329 -1.3172  0.5541
 8825TIP3   OH247889   5.534   0.104   3.498  0.5078  0.5701  0.2399
 8825TIP3    H147890   5.588   0.182   3.483 -0.2153  1.1639  0.7110
 8825TIP3    H247891   5.496   0.085   3.412 -0.9481  1.9659  0.5541
 8826TIP3   OH247892   1.124   4.448  11.040  0.1591  0.1469  0.4591
 8826TIP3    H147893   1.115   4.435  10.945  0.6740 -0.2327  0.4539
 8826TIP3    H247894   1.035   4.457  11.072  0.0476  2.2604 -0.3354
 8827TIP3   OH247895   1.050   3.129  12.545 -0.4798 -0.0352  0.5341
 8827TIP3    H147896   1.092   3.165  12.467  0.7959 -2.5942  0.0163
 8827TIP3    H247897   0.993   3.200  12.575  0.9711  1.9545 -1.1984
 8828TIP3   OH247898   0.008   3.969  15.008 -0.2075  0.2501  0.3670
 8828TIP3    H147899  -0.025   3.880  14.996 -1.1587  0.4986  1.0736
 8828TIP3    H247900   0.103   3.961  15.001 -0.3780 -0.5284 -1.3575
 8829TIP3   OH247901   5.803   6.064   4.182 -0.1770 -0.0070 -0.3103
 8829TIP3    H147902   5.827   6.086   4.272 -0.9130 -1.7865  0.3430
 8829TIP3    H247903   5.708   6.056   4.184 -0.3016  1.0314 -1.5101
 8830TIP3   OH247904   2.016   3.036   2.518  0.3868 -0.2556 -0.0573
 8830TIP3    H147905   1.943   3.098   2.523  0.6863  0.1247 -0.3459
 8830TIP3    H247906   1.995   2.969   2.583 -0.1266 -0.0490 -0.0063
 8831TIP3   OH247907   3.346   3.068   6.244  0.1952  0.0000 -0.1227
 8831TIP3    H147908   3.359   2.978   6.213 -0.1056 -0.0953  0.0263
 8831TIP3    H247909   3.265   3.097   6.202 -0.3402 -0.2116  0.7489
 8832TIP3   OH247910   6.542   5.984  12.571  0.0172  0.2196  0.2534
 8832TIP3    H147911   6.467   6.042  12.588 -0.7305 -0.6890  0.0861
 8832TIP3    H247912   6.555   5.989  12.476  0.1196  0.3121  0.2715
 8833TIP3   OH247913   0.457   0.369  16.492  0.4808 -0.0200  0.2904
 8833TIP3    H147914   0.362   0.371  16.482  0.5168  0.8824  0.0875
 8833TIP3    H247915   0.478   0.276  16.498 -0.2085 -0.3543 -1.7738
 8834TIP3   OH247916   5.638   1.793   4.261  0.4224 -0.0275  0.1253
 8834TIP3    H147917   5.588   1.815   4.340  0.5088  0.3897  0.0661
 8834TIP3    H247918   5.598   1.712   4.230  0.5363 -0.3218  0.7234
 8835TIP3   OH247919   6.031   2.270  15.324 -0.0319  0.1837 -0.0667
 8835TIP3    H147920   6.044   2.179  15.350 -0.9631 -0.2481 -1.0667
 8835TIP3    H247921   5.945   2.271  15.283 -1.6349  2.2246  3.1337
 8836TIP3   OH247922   2.694   0.962  12.978 -0.7729  0.1134  0.7127
 8836TIP3    H147923   2.630   1.021  13.017 -0.6872  0.0489  0.9509
 8836TIP3    H247924   2.673   0.876  13.014 -1.7229 -0.2411 -0.6272
 8837TIP3   OH247925   1.114   4.091   1.261 -0.3369 -0.3463 -0.0590
 8837TIP3    H147926   1.118   4.000   1.289  1.1894 -0.3006 -0.0999
 8837TIP3    H247927   1.184   4.101   1.197  1.2975  1.4914  1.9062
 8838TIP3   OH247928   5.301   4.448   0.101  0.1251 -0.3019 -0.8360
 8838TIP3    H147929   5.328   4.438   0.010 -2.1069  0.4693 -1.6105
 8838TIP3    H247930   5.262   4.535   0.105  0.0839 -0.3840  0.8362
 8839TIP3   OH247931   2.364   0.932   2.964  0.4114 -0.0807  0.3957
 8839TIP3    H147932   2.383   0.896   2.877 -0.9456 -0.1449  0.1146
 8839TIP3    H247933   2.427   1.003   2.974  1.1244 -0.5873 -0.2941
 8840TIP3   OH247934   5.934   5.178  10.989 -0.0184  0.0707  0.0831
 8840TIP3    H147935   5.859   5.221  10.949 -0.4230 -1.3695 -0.7824
 8840TIP3    H247936   6.010   5.220  10.950 -0.3925  0.7798  0.1245
 8841TIP3   OH247937   1.331   3.864   0.305  0.6967 -0.4095 -0.2725
 8841TIP3    H147938   1.346   3.771   0.324  0.2321 -1.2001 -3.5281
 8841TIP3    H247939   1.283   3.896   0.381  2.6120 -2.3110  1.8312
 8842TIP3   OH247940   6.723   0.516   0.251 -0.1712 -0.3258 -0.0644
 8842TIP3    H147941   6.685   0.496   0.166 -0.0628  0.2698 -0.2509
 8842TIP3    H247942   6.800   0.569   0.231  0.7492 -1.4990  0.3095
 8843TIP3   OH247943   1.859   6.041  16.933 -0.3464  0.0139  0.5853
 8843TIP3    H147944   1.918   6.038  17.008  0.4343  1.3509  0.0439
 8843TIP3    H247945   1.795   6.109  16.956 -1.3011 -0.9920  0.9011
 8844TIP3   OH247946   4.161   0.382  16.803 -0.4669  0.0949 -0.0984
 8844TIP3    H147947   4.148   0.384  16.708 -0.9133  1.2702 -0.0197
 8844TIP3    H247948   4.228   0.448  16.819  0.0116 -0.5020  0.3416
 8845TIP3   OH247949   0.026   4.437   4.459  0.5271  0.3212 -0.1073
 8845TIP3    H147950  -0.060   4.394   4.459 -0.2433  1.7661 -2.0962
 8845TIP3    H247951   0.076   4.391   4.526 -1.5528 -1.0524  0.5527
 8846TIP3   OH247952   1.648   3.660  15.333 -0.8496  0.1612 -0.1642
 8846TIP3    H147953   1.727   3.671  15.280 -2.3938  1.2281 -2.3136
 8846TIP3    H247954   1.678   3.617  15.413  1.8055  0.0368 -1.2000
 8847TIP3   OH247955   6.634   6.097   3.360 -0.2783  0.1974 -0.0716
 8847TIP3    H147956   6.667   6.175   3.315 -0.7994  1.0863  1.0722
 8847TIP3    H247957   6.671   6.024   3.310  1.0074  1.1647 -0.5802
 8848TIP3   OH247958   5.821   3.502   6.333 -0.2639 -0.5510 -0.5148
 8848TIP3    H147959   5.744   3.552   6.360 -0.6886 -0.5982 -1.6328
 8848TIP3    H247960   5.793   3.411   6.336 -0.0701 -0.6054 -0.3501
 8849TIP3   OH247961   0.212   4.875  11.576 -0.3699  0.3318 -0.2435
 8849TIP3    H147962   0.248   4.834  11.497  0.6844 -0.4167  0.6197
 8849TIP3    H247963   0.170   4.955  11.544  1.6713  1.0040 -1.3202
 8850TIP3   OH247964   2.793   5.726  17.237  0.4910 -0.0619 -0.2995
 8850TIP3    H147965   2.837   5.661  17.292 -2.0364 -2.0285 -0.5111
 8850TIP3    H247966   2.737   5.674  17.179  0.6692  2.1553 -2.5467
 8851TIP3   OH247967   2.271   3.261   0.623 -0.6724  0.0928  0.3747
 8851TIP3    H147968   2.273   3.352   0.594  0.1997  0.3669  1.2546
 8851TIP3    H247969   2.293   3.265   0.716  2.0237 -1.2326 -0.1390
 8852TIP3   OH247970   2.710   2.674  16.238 -0.5904 -0.0484  0.0363
 8852TIP3    H147971   2.729   2.610  16.169 -1.6936 -1.2086  0.7777
 8852TIP3    H247972   2.796   2.702  16.270 -0.0908 -0.2052 -1.1736
 8853TIP3   OH247973   0.678   2.201  11.368  0.1954 -0.3432  0.1975
 8853TIP3    H147974   0.692   2.259  11.293 -0.7707 -1.6974 -1.0813
 8853TIP3    H247975   0.712   2.116  11.339  0.0767 -0.8157  1.4158
 8854TIP3   OH247976   4.541   6.263  17.112 -0.1702  0.1610 -0.4683
 8854TIP3    H147977   4.596   6.246  17.036 -0.2351  0.1042 -0.5006
 8854TIP3    H247978   4.530   6.358  17.112 -0.0714  0.1721 -0.4588
 8855TIP3   OH247979   2.952   1.640  14.878  0.6864  0.2072 -0.5758
 8855TIP3    H147980   2.997   1.698  14.941  0.5683  0.5588 -0.8137
 8855TIP3    H247981   2.956   1.553  14.918  2.4780  0.0517 -1.0566
 8856TIP3   OH247982   4.950   4.275   0.158  0.7147 -0.0322  0.1558
 8856TIP3    H147983   4.973   4.191   0.198  0.1829 -0.4057 -0.3177
 8856TIP3    H247984   4.913   4.327   0.229  1.8276  0.1044  0.6376
 8857TIP3   OH247985   4.989   1.104   3.125 -1.0388  0.3401 -0.1372
 8857TIP3    H147986   4.897   1.081   3.115 -0.7487 -0.1741 -1.8214
 8857TIP3    H247987   5.023   1.041   3.189 -1.3744 -0.8299 -1.0953
 8858TIP3   OH247988   1.086   0.551  14.374  0.5912 -0.1347 -0.1363
 8858TIP3    H147989   0.992   0.540  14.358  0.4026  0.6348  0.4035
 8858TIP3    H247990   1.109   0.630  14.324  0.8718 -0.0978  0.0545
 8859TIP3   OH247991   6.642   4.844  12.329  0.3069 -0.1408 -0.2684
 8859TIP3    H147992   6.577   4.799  12.275  0.9965 -1.0747 -0.3302
 8859TIP3    H247993   6.633   4.936  12.305 -0.1887 -0.4091 -1.1350
 8860TIP3   OH247994   6.537   4.676   1.769  0.7219  0.0275 -0.3482
 8860TIP3    H147995   6.524   4.601   1.713  2.4019 -0.5292 -0.0253
 8860TIP3    H247996   6.632   4.685   1.777  0.5358  0.9598  1.2307
 8861TIP3   OH247997   4.302   5.450   5.284  0.3370 -0.1407  0.1073
 8861TIP3    H147998   4.342   5.409   5.207  0.7405 -2.8765  1.7059
 8861TIP3    H247999   4.215   5.477   5.254  0.5451 -1.0648 -1.3608
 8862TIP3   OH248000   3.535   3.906  13.173  0.3174  0.4639  0.3613
 8862TIP3    H148001   3.564   3.868  13.090  0.2868 -0.5748  0.8107
 8862TIP3    H248002   3.446   3.874  13.184  0.7283 -0.3937  1.3596
 8863TIP3   OH248003   4.750   4.242   4.543  0.1693 -0.5007  0.0104
 8863TIP3    H148004   4.714   4.173   4.487 -1.8303 -0.0993  0.7425
 8863TIP3    H248005   4.806   4.196   4.606 -1.3808 -1.5153  0.6792
 8864TIP3   OH248006   4.386   5.650  11.864  0.3253  0.2454  0.1076
 8864TIP3    H148007   4.403   5.623  11.954  1.4827  2.9698  0.7587
 8864TIP3    H248008   4.466   5.695  11.837 -0.6189  0.8903 -1.7187
 8865TIP3   OH248009   2.021   5.325  15.242  0.6287  0.5367 -0.0951
 8865TIP3    H148010   2.116   5.317  15.234  0.5463 -0.8569  0.2509
 8865TIP3    H248011   1.994   5.246  15.289 -0.5661  1.4826  0.8433
 8866TIP3   OH248012   5.871   6.513  13.179 -0.0442  0.1619 -0.2758
 8866TIP3    H148013   5.824   6.494  13.261  1.7276  1.3165  1.0471
 8866TIP3    H248014   5.938   6.444  13.173  0.4670  0.6508 -0.2233
 8867TIP3   OH248015   5.521   3.228   0.438  0.0022 -0.1824 -0.4907
 8867TIP3    H148016   5.551   3.266   0.521 -1.6525  0.6485 -0.2477
 8867TIP3    H248017   5.580   3.155   0.422  0.2722 -0.4280  1.5005
 8868TIP3   OH248018   6.275   2.646   3.584 -0.6802  0.2544 -0.8002
 8868TIP3    H148019   6.318   2.673   3.503 -0.8628 -0.6286 -1.1998
 8868TIP3    H248020   6.186   2.681   3.578  0.0268  2.2246  0.1023
 8869TIP3   OH248021   1.799   4.225   5.570 -0.3180  0.8298 -0.1160
 8869TIP3    H148022   1.876   4.169   5.561 -1.1250  0.0385 -2.5696
 8869TIP3    H248023   1.818   4.302   5.517 -1.8902 -0.2130 -2.3295
 8870TIP3   OH248024   2.278   0.751   5.595  0.0884 -0.7156 -0.7896
 8870TIP3    H148025   2.354   0.787   5.640 -0.3653  0.0933 -0.6611
 8870TIP3    H248026   2.290   0.776   5.503 -0.2029 -0.2713 -0.7079
 8871TIP3   OH248027   3.588   3.835  13.936  0.5840  0.1442  0.0956
 8871TIP3    H148028   3.580   3.879  13.852 -2.4711  1.8096  1.1753
 8871TIP3    H248029   3.616   3.746  13.914 -0.8430  0.3441 -2.7485
 8872TIP3   OH248030   2.871   5.976  11.176  0.2825 -0.5859  0.9681
 8872TIP3    H148031   2.796   5.987  11.235  0.6711  2.5674  0.9396
 8872TIP3    H248032   2.831   5.970  11.089  0.0150  0.4003  1.0181
 8873TIP3   OH248033   3.738   1.429  11.062 -0.3014 -0.1764 -0.0370
 8873TIP3    H148034   3.719   1.397  11.150 -1.3892  1.1023  0.2206
 8873TIP3    H248035   3.652   1.449  11.025  0.2770  1.8220 -0.3917
 8874TIP3   OH248036   0.574   4.087   5.240  0.2373  0.4516 -0.1691
 8874TIP3    H148037   0.525   4.124   5.166  0.1172  0.5027 -0.0649
 8874TIP3    H248038   0.658   4.060   5.202  0.3633  0.9204 -0.2288
 8875TIP3   OH248039   6.303   1.093  17.045 -0.2969  0.1513 -0.2705
 8875TIP3    H148040   6.239   1.112  17.114  0.2475 -0.3588  0.3745
 8875TIP3    H248041   6.266   1.017  16.999 -0.0436 -0.3012  0.2577
 8876TIP3   OH248042   0.519   5.057   3.958  0.6001  0.4199 -0.0346
 8876TIP3    H148043   0.437   5.010   3.947  0.2625  1.4395 -2.3049
 8876TIP3    H248044   0.582   4.990   3.986 -0.4358 -0.8766 -0.7652
 8877TIP3   OH248045   0.873   0.299  14.888 -0.4204 -0.1100  0.1502
 8877TIP3    H148046   0.911   0.331  14.970 -1.0952  0.1115  0.3732
 8877TIP3    H248047   0.784   0.334  14.887 -0.0545  0.8254 -1.2065
 8878TIP3   OH248048   4.731   5.397  16.162 -0.3434  0.0991 -0.2321
 8878TIP3    H148049   4.806   5.440  16.202 -0.5134 -0.3717  0.5847
 8878TIP3    H248050   4.698   5.337  16.229  0.0678 -1.5280 -1.4541
 8879TIP3   OH248051   4.115   0.971   0.836  0.4367 -0.2639  0.2628
 8879TIP3    H148052   4.154   0.923   0.909 -1.0641  1.8783  2.5477
 8879TIP3    H248053   4.026   0.992   0.865 -1.1136 -1.5337 -3.2050
 8880TIP3   OH248054   1.679   5.929   4.780  0.3328  0.2464  0.2478
 8880TIP3    H148055   1.631   5.876   4.843  1.1735 -0.4543  0.3108
 8880TIP3    H248056   1.769   5.898   4.787  0.5607  0.6701 -0.7789
 8881TIP3   OH248057   0.207   0.649   1.166  0.0647 -0.0732 -0.0500
 8881TIP3    H148058   0.182   0.673   1.077  0.0746  1.2220  0.2869
 8881TIP3    H248059   0.181   0.724   1.220  0.3857 -0.6897  0.9850
 8882TIP3   OH248060   5.696   4.011  16.706  0.0362  0.7320  0.0090
 8882TIP3    H148061   5.759   4.062  16.654  1.3863 -1.4481 -0.5666
 8882TIP3    H248062   5.639   3.970  16.641  0.2429 -0.0957  0.3335
 8883TIP3   OH248063   5.112   2.532  12.608  0.6694  0.0201 -0.5386
 8883TIP3    H148064   5.025   2.516  12.644  1.0880 -2.6573 -0.5609
 8883TIP3    H248065   5.134   2.621  12.634 -1.4215  0.1563  0.8348
 8884TIP3   OH248066   5.934   1.411  13.252  0.4745 -0.2668 -0.1874
 8884TIP3    H148067   5.999   1.395  13.321  0.0084  1.8848  0.8108
 8884TIP3    H248068   5.870   1.470  13.293  0.3361  1.2953 -2.5424
 8885TIP3   OH248069   4.964   4.221  11.901  0.2470  0.1580  0.2114
 8885TIP3    H148070   4.987   4.243  11.811 -0.0041 -0.3578  0.0191
 8885TIP3    H248071   4.898   4.286  11.926  0.0025  0.0354 -0.1218
 8886TIP3   OH248072   2.002   5.855   2.149 -0.0866  0.3782 -0.1284
 8886TIP3    H148073   1.965   5.933   2.109  0.6578 -0.0029 -1.5816
 8886TIP3    H248074   1.927   5.809   2.186 -0.7571  0.8455 -0.8952
 8887TIP3   OH248075   2.893   5.538  14.353 -0.2993  0.7530  0.8549
 8887TIP3    H148076   2.835   5.464  14.335  2.9566 -1.6298 -0.1996
 8887TIP3    H248077   2.933   5.519  14.437  1.5186  0.6539 -0.0127
 8888TIP3   OH248078   4.363   0.862   5.381  0.3302  0.0026  0.6760
 8888TIP3    H148079   4.400   0.775   5.388  1.5213  0.4357 -0.1089
 8888TIP3    H248080   4.382   0.904   5.465  2.1372  0.4093  0.0830
 8889TIP3   OH248081   0.606   5.337   4.784  0.1475 -0.2068 -0.0131
 8889TIP3    H148082   0.587   5.412   4.728  0.0129 -0.1434  0.1167
 8889TIP3    H248083   0.568   5.262   4.737  1.0342 -0.3200 -0.5604
 8890TIP3   OH248084   1.594   1.087   1.018  0.1609  0.2333 -0.4641
 8890TIP3    H148085   1.647   1.071   1.097 -0.3322  1.8965  0.2223
 8890TIP3    H248086   1.594   1.003   0.972  2.7876 -0.0042 -0.0999
 8891TIP3   OH248087   2.372   0.114   5.541 -0.4222  0.7418 -0.1744
 8891TIP3    H148088   2.455   0.066   5.544 -0.9693 -0.1773  0.4217
 8891TIP3    H248089   2.307   0.048   5.516 -1.2277  1.0871  0.9505
 8892TIP3   OH248090   1.151   3.036   1.215 -0.3709  0.3318 -0.0571
 8892TIP3    H148091   1.176   3.052   1.124  2.6482 -1.3845  0.3943
 8892TIP3    H248092   1.079   2.972   1.209  0.3425 -0.3733 -1.2145
 8893TIP3   OH248093   4.278   3.795  10.684  0.6607 -0.1244  0.7281
 8893TIP3    H148094   4.318   3.709  10.669 -0.2902 -0.3119 -0.8190
 8893TIP3    H248095   4.340   3.857  10.644  1.3083 -0.0873  1.7747
 8894TIP3   OH248096   5.136   4.114   2.040  0.8934 -0.1916 -0.4392
 8894TIP3    H148097   5.162   4.099   2.130 -0.7910  0.1005  0.1088
 8894TIP3    H248098   5.145   4.029   1.997 -2.3091 -1.3067  1.0290
 8895TIP3   OH248099   5.743   0.576   3.657  0.3172 -0.4580 -1.0050
 8895TIP3    H148100   5.760   0.658   3.610 -0.4361  0.2993  0.0478
 8895TIP3    H248101   5.716   0.603   3.744  0.5381 -1.8475 -0.4972
 8896TIP3   OH248102   3.967   4.996   3.925  0.8179  0.2980  0.3573
 8896TIP3    H148103   3.909   5.021   3.997  0.8164  0.3042  0.3537
 8896TIP3    H248104   4.055   5.006   3.961  0.8267  0.6643  0.2384
 8897TIP3   OH248105   5.936   0.064  16.126 -0.3128  0.5364 -0.0966
 8897TIP3    H148106   5.939   0.044  16.032  2.5147 -1.3273  0.3415
 8897TIP3    H248107   6.014   0.118  16.141  0.1615 -0.5817  1.4885
 8898TIP3   OH248108   4.219   4.887  12.846  0.2350  0.1418 -0.0791
 8898TIP3    H148109   4.243   4.795  12.858  0.3851  0.4176  1.9322
 8898TIP3    H248110   4.125   4.890  12.864  0.3607  0.4905  0.5318
 8899TIP3   OH248111   6.091   0.042   2.487 -0.6177  0.8343 -0.2920
 8899TIP3    H148112   6.142   0.007   2.414  4.6846  2.0892  2.5288
 8899TIP3    H248113   6.070   0.132   2.461  1.7218  1.4573 -0.1675
 8900TIP3   OH248114   5.201   4.924  12.901 -0.2975 -0.4600 -0.3144
 8900TIP3    H148115   5.106   4.928  12.907 -0.3199 -0.4024 -0.6545
 8900TIP3    H248116   5.231   4.918  12.992 -0.6157 -0.2363 -0.1923
 8901TIP3   OH248117   2.999   3.281  10.100 -0.2847  0.1261 -0.5263
 8901TIP3    H148118   2.923   3.314  10.148 -0.1304  0.2518 -0.3648
 8901TIP3    H248119   3.010   3.191  10.131 -1.1527 -0.3277 -1.5136
 8902TIP3   OH248120   6.384   4.742   4.874 -0.0645 -0.3782 -0.8655
 8902TIP3    H148121   6.400   4.722   4.781 -0.6062  0.6654 -1.2004
 8902TIP3    H248122   6.298   4.704   4.892  0.3850 -1.2708 -0.5618
 8903TIP3   OH248123   4.913   1.391  13.675 -0.3174  0.0380 -0.1707
 8903TIP3    H148124   4.893   1.310  13.627 -1.3446  1.9148 -3.0343
 8903TIP3    H248125   5.008   1.388  13.687 -0.6203 -2.7226  1.9272
 8904TIP3   OH248126   1.382   4.024   5.231 -0.2298  0.3030 -0.0713
 8904TIP3    H148127   1.352   4.088   5.296 -2.0817 -0.6850  0.0780
 8904TIP3    H248128   1.408   3.948   5.283 -0.0172  0.1658 -0.3794
 8905TIP3   OH248129   0.964   5.242  16.671  0.4037 -0.6446  0.4883
 8905TIP3    H148130   0.925   5.158  16.697  0.7287 -1.0703 -0.3607
 8905TIP3    H248131   0.938   5.303  16.740  2.5358 -2.0850  2.6860
 8906TIP3   OH248132   6.687   2.099  12.702  0.6598 -0.2151 -0.4793
 8906TIP3    H148133   6.766   2.152  12.696  0.7678 -0.2708  0.4995
 8906TIP3    H248134   6.674   2.084  12.795  0.3220 -1.4506 -0.7139
 8907TIP3   OH248135   4.128   0.881  11.874  0.8667  0.3782  0.0483
 8907TIP3    H148136   4.196   0.888  11.807  0.1101  0.4544 -0.7117
 8907TIP3    H248137   4.100   0.790  11.870 -0.9375  0.9899 -1.4623
 8908TIP3   OH248138   1.560   2.315   1.516  0.7044 -0.1794  0.2640
 8908TIP3    H148139   1.641   2.358   1.542  0.2695  1.1850 -0.5718
 8908TIP3    H248140   1.532   2.268   1.595  1.4475  0.6964  1.0721
 8909TIP3   OH248141   1.525   1.900  17.093 -0.1905  0.3865 -0.5657
 8909TIP3    H148142   1.585   1.967  17.062 -1.8413  1.4454 -1.4967
 8909TIP3    H248143   1.468   1.882  17.019  0.8937 -2.8517 -0.7072
 8910TIP3   OH248144   2.024   1.367  13.698  0.2864 -0.0608  0.4572
 8910TIP3    H148145   1.997   1.318  13.621 -0.8547  0.3968  0.5486
 8910TIP3    H248146   2.046   1.300  13.763  2.3249 -0.4552 -0.6046
 8911TIP3   OH248147   1.758   1.841  15.793 -0.0373  0.0649  0.2374
 8911TIP3    H148148   1.820   1.890  15.740 -1.0658 -0.1767 -1.2196
 8911TIP3    H248149   1.707   1.907  15.839 -1.5237  0.3947 -1.8352
 8912TIP3   OH248150   0.774   2.354  14.152  0.1156  0.6837 -0.3737
 8912TIP3    H148151   0.797   2.264  14.128 -0.1922  0.6830 -0.6612
 8912TIP3    H248152   0.810   2.407  14.080 -0.9071  0.6725 -0.9013
 8913TIP3   OH248153   3.257   2.962   0.899 -0.7337 -0.0802 -0.0362
 8913TIP3    H148154   3.166   2.934   0.908 -0.4980 -1.6006 -2.1026
 8913TIP3    H248155   3.252   3.057   0.885 -1.9986 -0.1559 -0.1301
 8914TIP3   OH248156   3.363   1.866   1.554  0.3567 -0.1682  0.0540
 8914TIP3    H148157   3.347   1.891   1.645  0.7731  1.0428 -0.1970
 8914TIP3    H248158   3.328   1.939   1.503  0.8791 -0.4657 -0.7341
 8915TIP3   OH248159   1.427   1.349   2.521 -0.5346 -0.1607  0.0152
 8915TIP3    H148160   1.372   1.301   2.581  0.4554  0.5415  1.5125
 8915TIP3    H248161   1.371   1.419   2.486 -0.9570 -0.2339  0.5499
 8916TIP3   OH248162   2.552   2.846   2.099  0.0224  0.5877  0.0939
 8916TIP3    H148163   2.506   2.844   2.182 -0.7317  1.6102 -0.2877
 8916TIP3    H248164   2.585   2.936   2.091  1.2710  0.1344 -0.0818
 8917TIP3   OH248165   1.741   5.528  15.401 -0.0792  0.2164 -0.2945
 8917TIP3    H148166   1.786   5.569  15.328 -0.0222 -0.3777 -0.5995
 8917TIP3    H248167   1.762   5.583  15.476  0.1332  0.6451 -0.6617
 8918TIP3   OH248168   3.277   2.011   2.617 -0.2422  0.5054  0.5289
 8918TIP3    H148169   3.187   2.006   2.584 -0.5315 -0.0382  1.3938
 8918TIP3    H248170   3.268   2.033   2.709  0.4979  0.1453  0.6943
 8919TIP3   OH248171   6.757   6.242  12.361 -0.7936 -0.5604  0.2952
 8919TIP3    H148172   6.701   6.276  12.291  0.1334 -0.9101 -0.6502
 8919TIP3    H248173   6.803   6.319  12.395 -0.5790 -0.5055 -0.1089
 8920TIP3   OH248174   4.160   2.837  13.845  0.1838 -0.1193  0.5128
 8920TIP3    H148175   4.233   2.807  13.791 -0.3875 -0.0201 -0.3369
 8920TIP3    H248176   4.087   2.844  13.783 -0.7543 -1.0106  1.4967
 8921TIP3   OH248177   2.759   2.941   1.745  0.3945 -0.6562 -0.1138
 8921TIP3    H148178   2.743   2.858   1.791  0.5938 -1.0629 -0.7770
 8921TIP3    H248179   2.679   2.955   1.694 -0.4084  0.5108  1.4286
 8922TIP3   OH248180   5.400   6.000   0.779  0.5694  0.4566  0.1656
 8922TIP3    H148181   5.437   5.936   0.718 -0.9199  2.2128 -2.6890
 8922TIP3    H248182   5.306   5.982   0.777  0.4018  1.2516  1.0898
 8923TIP3   OH248183   5.413   6.635  14.789  0.2858  0.0444 -0.5189
 8923TIP3    H148184   5.491   6.592  14.754  0.7444 -0.6202  1.2912
 8923TIP3    H248185   5.340   6.584  14.754  0.7477 -0.7320 -0.3623
 8924TIP3   OH248186   1.962   2.146   2.814 -0.2048 -0.1241  0.1211
 8924TIP3    H148187   1.935   2.214   2.752 -2.8928 -0.7259  0.5716
 8924TIP3    H248188   2.046   2.114   2.780 -0.3477  1.3903 -1.7115
 8925TIP3   OH248189   2.740   0.409  15.328  0.1017 -0.7917  0.1179
 8925TIP3    H148190   2.803   0.481  15.323 -0.6540 -0.1744 -0.8158
 8925TIP3    H248191   2.731   0.379  15.237  0.8649 -2.4620  0.5869
 8926TIP3   OH248192   4.367   6.117  10.700 -0.5307 -0.1544  0.3206
 8926TIP3    H148193   4.307   6.054  10.740  0.5456 -1.0858  0.4766
 8926TIP3    H248194   4.371   6.091  10.608 -0.9209  0.3492  0.1594
 8927TIP3   OH248195   3.724   3.822  16.794 -0.5395  0.0366  0.0904
 8927TIP3    H148196   3.666   3.799  16.722 -0.5926 -0.5967  0.3269
 8927TIP3    H248197   3.689   3.773  16.869 -0.1293  0.2204  0.3992
 8928TIP3   OH248198   2.533   3.331  15.837 -0.1047  0.1329  0.2876
 8928TIP3    H148199   2.608   3.389  15.828 -0.3923  0.6477  1.1748
 8928TIP3    H248200   2.498   3.324  15.748  3.0245 -2.9283 -0.8301
 8929TIP3   OH248201   6.628   4.636  14.483 -0.1516  0.3691 -0.1485
 8929TIP3    H148202   6.597   4.687  14.407 -1.4081 -0.6859 -0.3667
 8929TIP3    H248203   6.603   4.688  14.559 -2.6537 -0.5327 -0.3190
 8930TIP3   OH248204   5.857   6.667   0.255  0.5093 -0.5232  0.0773
 8930TIP3    H148205   5.822   6.721   0.327  0.2867 -0.8230  0.1931
 8930TIP3    H248206   5.802   6.589   0.255  1.0418 -0.8996  0.1204
 8931TIP3   OH248207   5.557   3.966  15.279  0.2556 -0.0771 -0.3166
 8931TIP3    H148208   5.539   3.872  15.281 -0.8328  0.1495  1.6529
 8931TIP3    H248209   5.482   4.004  15.233  0.4954 -0.1167 -0.7459
 8932TIP3   OH248210   4.230   1.863  16.259 -0.2347 -0.3189  0.0302
 8932TIP3    H148211   4.263   1.945  16.294  0.8452 -1.2441  1.2203
 8932TIP3    H248212   4.173   1.889  16.186 -0.4641  1.5014  0.8345
 8933TIP3   OH248213   4.373   5.222  16.633 -0.5069 -0.0098 -0.1113
 8933TIP3    H148214   4.306   5.219  16.701  0.2350 -1.9030  0.5753
 8933TIP3    H248215   4.451   5.184  16.674  0.5587  0.7821 -1.3592
 8934TIP3   OH248216   2.031   5.112   0.177 -0.3345 -0.0046  0.0761
 8934TIP3    H148217   2.025   5.207   0.185  1.3372  0.3266 -2.1178
 8934TIP3    H248218   1.974   5.090   0.102  1.5150 -0.3578 -1.2668
 8935TIP3   OH248219   5.765   4.074   3.983 -0.3283 -1.1512  0.2856
 8935TIP3    H148220   5.672   4.053   3.978 -0.2027 -1.3150 -2.0831
 8935TIP3    H248221   5.810   3.990   3.976  0.0264 -0.8058 -2.4779
 8936TIP3   OH248222   3.957   6.680  13.806  0.4802 -0.1028 -0.7475
 8936TIP3    H148223   3.864   6.691  13.786  0.3275 -0.3804 -0.1985
 8936TIP3    H248224   3.964   6.698  13.900  1.0866  0.5600 -0.9108
 8937TIP3   OH248225   6.603   6.194  11.774 -0.5350  0.0073  0.0333
 8937TIP3    H148226   6.681   6.238  11.810 -2.4697  0.9561  3.3136
 8937TIP3    H248227   6.632   6.104  11.759  2.6379  1.5542 -3.8900
 8938TIP3   OH248228   5.300   1.932  15.195  0.3075 -0.5224  0.0906
 8938TIP3    H148229   5.295   2.027  15.184  0.1934 -0.5301  0.0763
 8938TIP3    H248230   5.391   1.916  15.220  0.6003 -0.5086 -0.9146
 8939TIP3   OH248231   3.982   0.159   3.112 -0.2142 -0.0441 -0.4872
 8939TIP3    H148232   3.904   0.139   3.164  0.4805 -0.1003  0.5531
 8939TIP3    H248233   4.047   0.184   3.176  0.1811  1.4985 -1.4716
 8940TIP3   OH248234   0.499   5.884  15.333 -0.2493 -0.3338 -0.5222
 8940TIP3    H148235   0.462   5.920  15.413 -1.8441 -0.8502 -1.0051
 8940TIP3    H248236   0.533   5.798  15.358  1.9391  0.7335  0.2376
 8941TIP3   OH248237   0.776   5.844  13.295  0.1840 -0.2407  0.1134
 8941TIP3    H148238   0.763   5.752  13.321 -0.1868 -0.3371 -0.4069
 8941TIP3    H248239   0.871   5.857  13.302 -0.0708  0.3051  3.4054
 8942TIP3   OH248240   2.513   1.935   0.190 -0.0257 -0.0527  0.5074
 8942TIP3    H148241   2.557   2.009   0.231  0.5508  0.4166 -0.9249
 8942TIP3    H248242   2.574   1.905   0.122 -1.3621 -0.1945 -0.6624
 8943TIP3   OH248243   3.359   1.973  12.973 -0.2443 -0.0966 -0.6320
 8943TIP3    H148244   3.434   1.951  13.028 -1.1757 -1.4055  0.1390
 8943TIP3    H248245   3.379   2.060  12.938  0.5962  0.5159  1.3436
 8944TIP3   OH248246   4.015   3.192   3.453 -0.2335  0.2870  0.4248
 8944TIP3    H148247   4.019   3.107   3.495  0.8277  1.0127  1.8203
 8944TIP3    H248248   4.106   3.222   3.449 -0.4185  0.6641 -1.4998
 8945TIP3   OH248249   5.943   4.764   4.663 -0.1578 -0.2032  0.0317
 8945TIP3    H148250   5.944   4.767   4.759 -3.5736 -1.1605  0.1469
 8945TIP3    H248251   6.006   4.695   4.641  1.3161  0.6309  1.5166
 8946TIP3   OH248252   2.358   3.211   0.017 -0.1332 -0.2948 -0.1188
 8946TIP3    H148253   2.332   3.211  -0.075 -0.5310  2.0121 -0.0275
 8946TIP3    H248254   2.388   3.121   0.033  0.7390 -0.5130 -2.7108
 8947TIP3   OH248255   4.752   0.593  14.044  0.6398 -0.1712  0.7158
 8947TIP3    H148256   4.814   0.575  13.973  0.7288  0.0688  0.7340
 8947TIP3    H248257   4.685   0.649  14.005  1.2348  0.8114  1.0821
 8948TIP3   OH248258   6.077   6.342  13.096 -0.1748  0.1902  0.1312
 8948TIP3    H148259   6.168   6.351  13.126 -0.0887  0.2035 -0.1300
 8948TIP3    H248260   6.050   6.255  13.126  0.2140 -0.1704 -0.5531
 8949TIP3   OH248261   6.164   6.410  14.501  0.1997  0.4334 -0.1155
 8949TIP3    H148262   6.097   6.382  14.562 -1.7180  1.1500 -1.8512
 8949TIP3    H248263   6.246   6.398  14.549 -1.1397 -0.4174  2.0422
 8950TIP3   OH248264   6.031   0.013  13.722  1.0229 -0.1893  0.1592
 8950TIP3    H148265   6.100   0.065  13.764  1.0065  0.7208 -0.9300
 8950TIP3    H248266   5.966   0.077  13.694  0.4850 -0.9037 -0.2339
 8951TIP3   OH248267   6.318   1.806  14.076  0.4448 -0.0517 -0.0525
 8951TIP3    H148268   6.382   1.866  14.039  1.2431 -1.0737 -0.3647
 8951TIP3    H248269   6.234   1.834  14.040  1.0670 -0.3256 -1.7334
 8952TIP3   OH248270   0.386   1.156  11.349 -0.0154 -0.0014 -0.3177
 8952TIP3    H148271   0.349   1.145  11.262  1.0075 -3.1579 -0.4208
 8952TIP3    H248272   0.377   1.070  11.390  2.5569  0.5311  1.5011
 8953TIP3   OH248273   0.831   2.639  13.681 -0.4782 -0.5774 -0.7439
 8953TIP3    H148274   0.763   2.646  13.748  0.2551 -3.6036  0.3824
 8953TIP3    H248275   0.804   2.564  13.628 -0.2391  0.8479 -2.9295
 8954TIP3   OH248276   5.782   0.023  16.929 -0.7082 -0.5594 -0.5829
 8954TIP3    H148277   5.865   0.067  16.947 -1.9304  2.3305 -1.6018
 8954TIP3    H248278   5.805  -0.068  16.912  2.0479 -0.1477  0.7947
 8955TIP3   OH248279   0.662   5.032  10.311  0.4180 -0.0690  0.0497
 8955TIP3    H148280   0.568   5.048  10.320 -0.5284 -2.9157 -3.6473
 8955TIP3    H248281   0.692   5.102  10.253  0.4878  0.4114  0.6515
 8956TIP3   OH248282   5.422   6.023   2.095  0.0401 -0.2936  0.1901
 8956TIP3    H148283   5.341   6.061   2.064  0.8540  0.6750 -0.7847
 8956TIP3    H248284   5.438   6.066   2.180  0.1024  0.3364 -0.1371
 8957TIP3   OH248285   0.621   0.594  13.992 -0.4230 -0.1111  0.4709
 8957TIP3    H148286   0.544   0.568  14.042 -1.0023  0.6690 -0.0042
 8957TIP3    H248287   0.687   0.616  14.058 -1.2792  1.2031  0.9044
 8958TIP3   OH248288   1.827   5.371  15.630  0.6143 -0.1337  0.7358
 8958TIP3    H148289   1.781   5.375  15.547  3.3042 -0.1217 -0.8317
 8958TIP3    H248290   1.851   5.462  15.649  1.5825 -0.3435  0.5643
 8959TIP3   OH248291   6.038   2.173   0.517  0.5134  0.1777  0.0893
 8959TIP3    H148292   6.030   2.214   0.430 -1.0360 -0.2537  0.0095
 8959TIP3    H248293   6.110   2.111   0.507  1.4743  1.3343 -0.3932
 8960TIP3   OH248294   4.436   0.739   6.067 -0.0335  0.2058 -0.3807
 8960TIP3    H148295   4.508   0.775   6.015 -0.7938  0.5838 -1.1761
 8960TIP3    H248296   4.465   0.750   6.158  0.2997  1.6518 -0.6518
 8961TIP3   OH248297   1.832   2.010  12.351 -0.0313 -0.2942 -0.0173
 8961TIP3    H148298   1.804   2.079  12.410 -0.8495 -0.4316 -0.2302
 8961TIP3    H248299   1.854   2.056  12.270  2.0399 -0.0007  0.6939
 8962TIP3   OH248300   1.059   2.759  11.881  0.1778 -0.2021 -0.7193
 8962TIP3    H148301   1.031   2.851  11.886 -0.4501 -0.4652  1.2335
 8962TIP3    H248302   1.036   2.732  11.792  0.6439  1.6155 -1.4124
 8963TIP3   OH248303   4.626   2.328  17.111 -0.0775 -0.3782 -0.5861
 8963TIP3    H148304   4.571   2.365  17.042  0.5558  2.3445  0.3117
 8963TIP3    H248305   4.565   2.313  17.184  0.1962  1.9964  0.1715
 8964TIP3   OH248306   4.291   2.342   2.865 -0.3686  0.6551  0.0345
 8964TIP3    H148307   4.373   2.390   2.852  0.1093 -0.4127 -1.0569
 8964TIP3    H248308   4.319   2.257   2.900 -0.9866  0.2625 -0.4049
 8965TIP3   OH248309   0.555   1.998  13.006  0.5814  0.1951  0.1347
 8965TIP3    H148310   0.617   2.070  13.001  0.1681  0.4449 -1.8130
 8965TIP3    H248311   0.583   1.936  12.939 -3.3717  2.0492 -3.4705
 8966TIP3   OH248312   2.409   0.512  14.115  0.3508 -0.0947  0.2409
 8966TIP3    H148313   2.324   0.467  14.109  0.3397 -0.5588  3.1948
 8966TIP3    H248314   2.398   0.591  14.061 -1.0825 -1.4235 -1.4662
 8967TIP3   OH248315   0.977   6.348   3.305  0.3940 -0.4434 -0.0082
 8967TIP3    H148316   0.908   6.414   3.294  0.2215 -0.4515  0.9763
 8967TIP3    H248317   0.932   6.272   3.340  0.7082 -0.8729 -0.5231
 8968TIP3   OH248318   6.715   5.907  16.895  0.3231 -0.4391 -0.5694
 8968TIP3    H148319   6.710   5.855  16.975  1.0743 -1.5540 -1.2296
 8968TIP3    H248320   6.632   5.954  16.890  0.1202 -0.6769  0.6489
 8969TIP3   OH248321   2.674   3.278  12.987  0.7467  0.0802 -0.0557
 8969TIP3    H148322   2.659   3.279  13.081  0.1351  1.2547 -0.1612
 8969TIP3    H248323   2.615   3.344  12.952 -0.3682 -1.6362 -1.4774
 8970TIP3   OH248324   2.604   0.965   0.503 -0.0858 -0.1744 -0.1267
 8970TIP3    H148325   2.627   1.058   0.511 -1.6718  0.1157  1.4491
 8970TIP3    H248326   2.595   0.951   0.408  2.2504  0.7152 -0.5170
 8971TIP3   OH248327   2.396   0.733  13.940  0.1723  0.2579  0.3471
 8971TIP3    H148328   2.321   0.785  13.970 -0.6847 -0.8118  0.0570
 8971TIP3    H248329   2.388   0.731  13.845 -1.3350 -2.6906  0.5040
 8972TIP3   OH248330   2.997   0.898  17.154 -0.5232 -0.0932  0.1628
 8972TIP3    H148331   2.933   0.966  17.177 -0.3567 -0.6249  2.3239
 8972TIP3    H248332   2.952   0.815  17.172 -0.6080 -0.5760 -2.1421
 8973TIP3   OH248333   2.762   5.086   4.162 -0.0504  0.2482 -0.2228
 8973TIP3    H148334   2.690   5.092   4.225 -1.1754  0.9698 -1.5350
 8973TIP3    H248335   2.837   5.124   4.207 -0.3254 -1.0576  1.3859
 8974TIP3   OH248336   1.665   1.100  13.839  0.1856 -0.1026  0.5876
 8974TIP3    H148337   1.593   1.093  13.902 -1.6701  2.4343 -1.1268
 8974TIP3    H248338   1.640   1.173  13.782  3.1815 -0.4599 -1.3137
 8975TIP3   OH248339   2.781   4.185   2.415  0.2690 -0.6359 -0.1892
 8975TIP3    H148340   2.835   4.262   2.433  1.4416 -1.2553 -0.9732
 8975TIP3    H248341   2.706   4.193   2.474  0.4721  1.0147 -0.1506
 8976TIP3   OH248342   5.628   0.860   1.155 -0.0958 -0.3993  0.3002
 8976TIP3    H148343   5.617   0.918   1.080 -2.3892 -0.2418  0.6901
 8976TIP3    H248344   5.628   0.919   1.231  2.1792 -0.5547  0.4534
 8977TIP3   OH248345   6.348   3.010  12.729  0.1804 -0.5312  0.1153
 8977TIP3    H148346   6.319   3.079  12.788  0.1335 -0.5371  0.0997
 8977TIP3    H248347   6.417   3.052  12.676 -0.2252 -0.3389 -0.2639
 8978TIP3   OH248348   1.597   0.892   0.617 -0.4219  0.1153  0.2399
 8978TIP3    H148349   1.669   0.927   0.564  0.3162  2.1995  2.4861
 8978TIP3    H248350   1.525   0.953   0.602 -1.2976 -1.1755 -0.9096
 8979TIP3   OH248351   2.826   3.520   0.508 -0.7308 -0.1460 -0.6167
 8979TIP3    H148352   2.746   3.499   0.555 -0.8350 -0.0249 -0.7376
 8979TIP3    H248353   2.836   3.449   0.445 -0.0566 -0.8247  0.2564
 8980TIP3   OH248354   5.796   3.297  15.980  0.2391  0.3984 -0.2583
 8980TIP3    H148355   5.804   3.269  16.071 -1.0286 -0.5046 -0.4006
 8980TIP3    H248356   5.753   3.382  15.985 -1.0618 -0.2592 -0.0590
 8981TIP3   OH248357   0.434   1.646  16.153 -0.4355  0.1326 -0.5807
 8981TIP3    H148358   0.468   1.661  16.065  2.3983 -1.7127  0.1355
 8981TIP3    H248359   0.391   1.561  16.148  0.3950 -0.3326 -0.0428
 8982TIP3   OH248360   5.058   5.702   1.423 -0.0548  0.0810 -0.4400
 8982TIP3    H148361   5.010   5.621   1.407  0.7982 -0.6684  0.7560
 8982TIP3    H248362   4.991   5.769   1.426 -0.8018 -0.6285 -1.1052
 8983TIP3   OH248363   3.499   5.809  16.083 -0.3386  0.5599 -0.1917
 8983TIP3    H148364   3.454   5.731  16.113 -2.8817  2.0671  0.0465
 8983TIP3    H248365   3.552   5.837  16.158 -0.7924  0.0646  0.3148
 8984TIP3   OH248366   0.134   3.253   4.575  0.7420 -0.4617 -0.1985
 8984TIP3    H148367   0.105   3.301   4.653 -0.0687  1.1565 -1.4639
 8984TIP3    H248368   0.167   3.321   4.517 -0.7264 -1.4062 -2.1719
 8985TIP3   OH248369   0.582   4.234  13.167  0.0229  0.6184  0.7151
 8985TIP3    H148370   0.562   4.141  13.159 -1.1098  0.7128  2.2583
 8985TIP3    H248371   0.643   4.239  13.241 -0.8165  1.2027  1.3836
 8986TIP3   OH248372   0.719   6.399  11.552 -0.5694 -0.2537  0.2945
 8986TIP3    H148373   0.812   6.408  11.575 -0.6243  1.0112  0.0345
 8986TIP3    H248374   0.719   6.370  11.461 -0.4332 -0.4968  0.3709
 8987TIP3   OH248375   1.016   1.554  15.742  0.5100 -0.3908 -0.2419
 8987TIP3    H148376   0.954   1.492  15.781  0.5528 -0.3067 -0.0449
 8987TIP3    H248377   1.035   1.616  15.811  0.5288 -0.2003 -0.4193
 8988TIP3   OH248378   1.421   6.338  14.520 -0.0951 -0.0637 -0.5482
 8988TIP3    H148379   1.437   6.268  14.456 -1.8783 -1.1881  0.1738
 8988TIP3    H248380   1.349   6.304  14.573 -0.1632  1.8379  0.5910
 8989TIP3   OH248381   6.598   6.773   1.535 -0.6425 -0.2770 -0.9464
 8989TIP3    H148382   6.595   6.747   1.443  0.2469  1.2368 -1.4188
 8989TIP3    H248383   6.680   6.736   1.568 -1.2297 -1.2864 -0.6160
 8990TIP3   OH248384   6.261   0.162   1.775  0.6086 -0.2479 -0.3503
 8990TIP3    H148385   6.197   0.178   1.843  1.5014 -1.9536  0.9424
 8990TIP3    H248386   6.238   0.222   1.705 -0.1904  1.6872  1.5350
 8991TIP3   OH248387   0.293   3.154   2.084  0.2598 -0.1519  0.1224
 8991TIP3    H148388   0.389   3.148   2.083  0.3426  1.1179  0.0346
 8991TIP3    H248389   0.271   3.194   2.000 -0.4128 -1.1987 -0.2115
 8992TIP3   OH248390   2.752   0.865  16.342 -0.0938 -0.0425  0.0114
 8992TIP3    H148391   2.667   0.876  16.299  1.1030  3.0859 -1.7093
 8992TIP3    H248392   2.758   0.938  16.403  1.1183 -0.5647  0.5254
 8993TIP3   OH248393   4.779   2.272   0.102 -0.8231  0.0655  0.0207
 8993TIP3    H148394   4.747   2.297   0.015 -0.8115 -0.3015 -0.0904
 8993TIP3    H248395   4.871   2.250   0.089 -1.0011 -0.6908 -0.0164
 8994TIP3   OH248396   1.833   6.260   1.481  0.0844  0.4766 -0.8766
 8994TIP3    H148397   1.799   6.345   1.451 -0.0949  0.2929 -1.2011
 8994TIP3    H248398   1.886   6.228   1.408  1.2869  0.9349 -0.2188
 8995TIP3   OH248399   6.667   6.187   2.631  0.9467  0.2067 -0.1468
 8995TIP3    H148400   6.668   6.249   2.558  3.7709 -0.6727 -0.9249
 8995TIP3    H248401   6.684   6.242   2.708 -0.3214  0.9043 -0.3569
 8996TIP3   OH248402   0.358   6.279   2.713  0.4201  0.3460 -0.1921
 8996TIP3    H148403   0.450   6.273   2.737  0.2821  0.2912  0.3292
 8996TIP3    H248404   0.320   6.337   2.779  0.6822  2.8197 -2.1504
 8997TIP3   OH248405   3.021   0.219   1.670  0.0255 -0.2267  0.6745
 8997TIP3    H148406   2.945   0.256   1.624  0.9054  0.2925 -0.4002
 8997TIP3    H248407   3.043   0.284   1.737  0.7522  0.5959 -0.3417
 8998TIP3   OH248408   0.568   6.484   1.670 -0.1587 -0.9185  0.3009
 8998TIP3    H148409   0.577   6.447   1.582  0.1006 -0.4575  0.1332
 8998TIP3    H248410   0.575   6.579   1.658 -1.5962 -0.7518  0.6307
 8999TIP3   OH248411   0.085   0.624  11.603  0.4600  0.1889 -0.1138
 8999TIP3    H148412   0.102   0.555  11.667  0.8155 -0.4445 -0.8702
 8999TIP3    H248413   0.146   0.604  11.531  0.2627  1.0455 -0.5186
 9000TIP3   OH248414   5.991   0.294   2.065  0.1127 -0.0348  0.2420
 9000TIP3    H148415   5.942   0.364   2.023 -2.6058 -2.4563 -0.7780
 9000TIP3    H248416   5.981   0.219   2.007  2.1994 -1.5375  1.7477
 9001TIP3   OH248417   5.886   4.963   4.199 -0.6611  0.1739  0.0287
 9001TIP3    H148418   5.872   4.940   4.291  0.3969  0.8328  0.3674
 9001TIP3    H248419   5.878   5.058   4.197  2.5612  0.4890  0.0557
 9002TIP3   OH248420   5.019   6.425   5.900  0.0183 -0.0035  0.3664
 9002TIP3    H148421   5.064   6.478   5.966  0.1615  0.0114  0.2571
 9002TIP3    H248422   5.088   6.396   5.840 -0.3327  1.3807 -0.7349
 9003TIP3   OH248423   2.261   0.461  14.487  0.1257 -0.0676 -0.7669
 9003TIP3    H148424   2.262   0.387  14.547 -0.3927 -0.1967 -0.9149
 9003TIP3    H248425   2.353   0.484  14.476  0.2294 -0.1389 -0.0481
 9004TIP3   OH248426   3.004   6.695   1.714  0.5230  0.2908  0.0819
 9004TIP3    H148427   2.945   6.692   1.638 -2.1807 -1.8108  2.1687
 9004TIP3    H248428   3.016   6.789   1.731 -1.8784  0.7748 -0.6617
 9005TIP3   OH248429   6.748   5.880   1.876 -0.0014  0.4811 -0.4534
 9005TIP3    H148430   6.828   5.835   1.905  0.0842  0.8416 -0.1221
 9005TIP3    H248431   6.719   5.929   1.953 -3.1229 -3.2442  0.8671
 9006TIP3   OH248432   2.256   4.842   4.931  0.5592 -0.3710 -0.3204
 9006TIP3    H148433   2.301   4.870   5.011  0.4577 -1.6164  0.1774
 9006TIP3    H248434   2.326   4.829   4.868  0.5304  2.1693 -0.9458
 9007TIP3   OH248435   6.014   4.064  13.687 -0.1136  0.1881 -0.5575
 9007TIP3    H148436   5.952   4.035  13.754 -0.0625 -1.7079 -1.2999
 9007TIP3    H248437   6.009   3.997  13.619  1.7350  0.7248 -1.2630
 9008TIP3   OH248438   2.286   0.753   4.903 -0.5984 -0.0154  0.9190
 9008TIP3    H148439   2.278   0.843   4.934 -1.8829  0.2975 -0.2858
 9008TIP3    H248440   2.380   0.736   4.902 -0.3268  1.4590  0.7501
 9009TIP3   OH248441   6.692   0.165  10.369 -0.5318  0.4759 -0.3515
 9009TIP3    H148442   6.662   0.227  10.436  1.7364 -0.5220  1.6605
 9009TIP3    H248443   6.657   0.080  10.399  1.0922 -0.0877 -0.0371
 9010TIP3   OH248444   6.446   2.267   1.551  0.5871 -0.5502 -0.2127
 9010TIP3    H148445   6.536   2.257   1.581 -0.1008 -1.8678  1.4994
 9010TIP3    H248446   6.454   2.293   1.459  2.7045 -1.6871 -0.3817
 9011TIP3   OH248447   3.649   2.756   0.677  0.0538 -0.0087 -0.2438
 9011TIP3    H148448   3.567   2.801   0.657 -0.9268 -1.7717 -0.3186
 9011TIP3    H248449   3.698   2.757   0.595 -0.6029 -0.3866 -0.6424
 9012TIP3   OH248450   4.398   5.108  15.606 -0.0534 -0.3296  0.1105
 9012TIP3    H148451   4.353   5.178  15.653 -0.5670  0.4366 -1.4974
 9012TIP3    H248452   4.481   5.096  15.654  0.4612  2.0259 -0.1485
 9013TIP3   OH248453   0.327   1.311  12.772  0.0435 -0.2288  0.2304
 9013TIP3    H148454   0.335   1.217  12.756 -2.4699 -0.5322  0.5937
 9013TIP3    H248455   0.254   1.338  12.716  0.1523  1.3221  0.8353
 9014TIP3   OH248456   4.901   4.655   4.554 -0.5725  1.0028  0.2068
 9014TIP3    H148457   4.829   4.602   4.588 -0.8330  0.4702 -1.1242
 9014TIP3    H248458   4.959   4.592   4.511 -1.5450  1.8710 -2.5342
 9015TIP3   OH248459   0.581   1.994   2.877 -0.6129 -0.2004 -0.2551
 9015TIP3    H148460   0.638   1.943   2.935 -0.9068 -0.9525 -0.6196
 9015TIP3    H248461   0.638   2.061   2.840  0.4710 -2.0521 -2.0034
 9016TIP3   OH248462   1.927   5.118   3.759 -1.2014  0.2735 -0.1092
 9016TIP3    H148463   1.952   5.176   3.830 -0.6402 -0.3085  0.1799
 9016TIP3    H248464   1.931   5.172   3.680 -0.8760  0.6699  0.1805
 9017TIP3   OH248465   2.303   0.399  16.221 -0.2316 -0.4889 -0.2716
 9017TIP3    H148466   2.266   0.311  16.215 -0.2269 -0.4721 -0.5583
 9017TIP3    H248467   2.370   0.401  16.152 -1.1664  0.1899 -1.1690
 9018TIP3   OH248468   1.471   2.842  15.851  0.6465 -0.1769  0.6572
 9018TIP3    H148469   1.560   2.852  15.885  1.2894  3.5004 -1.8915
 9018TIP3    H248470   1.483   2.809  15.762 -0.7258 -2.4021  1.2473
 9019TIP3   OH248471   4.167   6.412  12.219 -0.3418  0.9866  0.3955
 9019TIP3    H148472   4.221   6.438  12.145  0.0088  0.2966  0.4114
 9019TIP3    H248473   4.166   6.316  12.216 -0.3445  0.9599  1.2698
 9020TIP3   OH248474   1.670   4.273   4.744  0.3924 -0.0265 -0.0530
 9020TIP3    H148475   1.711   4.358   4.731 -0.9341  1.0584  2.3356
 9020TIP3    H248476   1.655   4.268   4.839 -1.3102 -2.0671 -0.3810
 9021TIP3   OH248477   0.306   4.305   5.327  0.5348 -0.7071  0.0475
 9021TIP3    H148478   0.254   4.335   5.253 -1.0475  0.2170  1.5030
 9021TIP3    H248479   0.397   4.323   5.301 -0.0511  0.4056 -1.2890
 9022TIP3   OH248480   2.792   3.549   1.290  0.3325  1.0396 -0.1193
 9022TIP3    H148481   2.753   3.476   1.339  0.4084  0.2898 -1.1707
 9022TIP3    H248482   2.882   3.520   1.272 -0.7639 -0.2382 -3.8332
 9023TIP3   OH248483   5.382   2.901   6.087 -0.1109  0.0293  0.2198
 9023TIP3    H148484   5.455   2.854   6.128  0.5405  0.1874 -0.7599
 9023TIP3    H248485   5.331   2.934   6.161  0.9462  0.1319  0.9078
 9024TIP3   OH248486   5.738   5.120  16.532  0.5065 -0.2654 -0.5450
 9024TIP3    H148487   5.662   5.067  16.506  0.4006 -0.3387 -0.0931
 9024TIP3    H248488   5.722   5.206  16.493  0.1017 -0.2271 -0.2951
 9025TIP3   OH248489   5.681   1.737   0.101 -0.4392 -0.4231 -0.5228
 9025TIP3    H148490   5.675   1.808   0.038 -0.4570 -1.3052 -1.5300
 9025TIP3    H248491   5.774   1.717   0.106 -0.2222  0.9333  1.1995
 9026TIP3   OH248492   3.042   0.104   6.178  0.3215 -0.2787 -0.0336
 9026TIP3    H148493   3.111   0.038   6.179  0.0631 -0.5371  1.6498
 9026TIP3    H248494   2.982   0.077   6.247  0.1529  1.6435  0.6043
 9027TIP3   OH248495   4.967   4.309   5.305  0.1858 -0.4533 -0.9437
 9027TIP3    H148496   4.956   4.338   5.395  0.7033  0.8153 -1.2776
 9027TIP3    H248497   4.883   4.269   5.282 -0.7116  1.2043 -0.6197
 9028TIP3   OH248498   4.712   6.168   0.081 -0.0377 -0.3324  0.4404
 9028TIP3    H148499   4.765   6.124   0.014  2.0717  0.7493  1.3387
 9028TIP3    H248500   4.661   6.233   0.034  2.9288  1.8212  0.0432
 9029TIP3   OH248501   6.711   1.792   0.518  0.9756  0.0377  0.2371
 9029TIP3    H148502   6.649   1.758   0.453  1.0212  1.2945 -0.4865
 9029TIP3    H248503   6.794   1.753   0.494  0.7502 -0.4831  0.3007
 9030TIP3   OH248504   0.932   4.381   0.886  0.2956  0.1245 -0.3303
 9030TIP3    H148505   0.991   4.358   0.957  1.4566  1.6069 -0.7806
 9030TIP3    H248506   0.853   4.330   0.903  0.6682  0.2084  1.8379
 9031TIP3   OH248507   0.711   0.300  17.111 -0.1799 -0.1526 -0.0660
 9031TIP3    H148508   0.755   0.306  17.196  3.2180 -2.2241 -1.5957
 9031TIP3    H248509   0.667   0.215  17.114 -0.1094 -0.1994 -0.3473
 9032TIP3   OH248510   4.526   3.726   3.696  0.1069  0.6751  0.2346
 9032TIP3    H148511   4.435   3.748   3.674 -0.5325 -0.7639  1.3615
 9032TIP3    H248512   4.578   3.765   3.626 -1.3266  2.1189 -0.0458
 9033TIP3   OH248513   0.828   4.084   3.781  0.2637  0.1205  0.1901
 9033TIP3    H148514   0.860   4.174   3.773  0.6780  0.0193  0.7330
 9033TIP3    H248515   0.768   4.074   3.707 -0.4698  1.1271  0.6371
 9034TIP3   OH248516   2.925   2.645   5.655  0.0960 -0.1186  0.1425
 9034TIP3    H148517   2.930   2.740   5.649 -1.1538 -0.0338  0.2047
 9034TIP3    H248518   2.894   2.627   5.744  0.4032 -0.5867  0.1601
 9035TIP3   OH248519   4.860   2.415   2.018  0.1542 -0.0971 -0.3015
 9035TIP3    H148520   4.947   2.377   2.029 -0.3320 -1.0902  0.1644
 9035TIP3    H248521   4.802   2.360   2.071 -0.5106  1.5359  0.7134
 9036TIP3   OH248522   5.264   4.013  13.834 -0.6075 -0.7710 -0.8094
 9036TIP3    H148523   5.241   3.922  13.814 -0.0493 -1.1264  0.1614
 9036TIP3    H248524   5.188   4.063  13.806 -0.8637 -1.5234 -1.4883
 9037TIP3   OH248525   6.397   6.601  16.237 -0.5835  0.0038  0.1630
 9037TIP3    H148526   6.309   6.592  16.200  0.0724 -0.2863 -1.3714
 9037TIP3    H248527   6.438   6.516  16.223 -0.1858  0.0147  1.2246
 9038TIP3   OH248528   3.546   5.445  10.645  0.0483  0.6209  0.0274
 9038TIP3    H148529   3.625   5.410  10.603 -0.0565 -1.6872  1.7422
 9038TIP3    H248530   3.578   5.490  10.723 -0.2939  0.3185  0.3380
 9039TIP3   OH248531   0.086   1.035  14.864 -0.0613  0.0283 -0.3550
 9039TIP3    H148532   0.035   1.091  14.807 -0.3759  0.4593  0.3460
 9039TIP3    H248533   0.044   0.949  14.858  0.9336 -0.3749 -2.0955
 9040TIP3   OH248534   0.072   2.815   4.126  0.0628 -0.2402 -0.1415
 9040TIP3    H148535   0.067   2.904   4.162 -1.1030 -0.6434  0.7154
 9040TIP3    H248536  -0.019   2.791   4.111  0.4422 -0.8241 -1.5504
 9041TIP3   OH248537   4.028   5.492  14.053 -0.1777  0.1462 -0.0269
 9041TIP3    H148538   4.101   5.528  14.003  0.7174 -1.2500  0.2496
 9041TIP3    H248539   4.069   5.448  14.128 -1.3674  0.2774  0.7108
 9042TIP3   OH248540   3.101   3.237  12.255  0.0182 -0.1029  0.1611
 9042TIP3    H148541   3.010   3.209  12.257  0.4087 -1.4518 -0.3936
 9042TIP3    H248542   3.129   3.223  12.165  0.6446  0.7303  0.2210
 9043TIP3   OH248543   6.360   4.473  11.385 -0.1913  0.0424 -0.4102
 9043TIP3    H148544   6.347   4.394  11.332 -4.1535 -0.9955  1.8625
 9043TIP3    H248545   6.358   4.545  11.323  0.6769 -1.4568 -2.2249
 9044TIP3   OH248546   4.085   4.361   0.476  0.1374  0.2624  0.7073
 9044TIP3    H148547   4.035   4.366   0.558  0.1123  0.2036  0.6950
 9044TIP3    H248548   4.171   4.329   0.503 -0.4684 -1.6526  0.4436
 9045TIP3   OH248549   5.111   1.888   6.196  0.1766 -0.2419  0.0376
 9045TIP3    H148550   5.135   1.915   6.107  1.4124 -2.0142 -0.1781
 9045TIP3    H248551   5.017   1.906   6.202  0.2692  0.7438 -1.3109
 9046TIP3   OH248552   3.486   5.590  14.750  0.3410  0.4029  0.4616
 9046TIP3    H148553   3.445   5.671  14.721  0.3430  0.0830 -0.4439
 9046TIP3    H248554   3.418   5.548  14.804 -0.5511 -0.1176 -1.0246
 9047TIP3   OH248555   1.910   5.868   0.952  0.0931  0.2704  0.0270
 9047TIP3    H148556   1.913   5.882   0.857  0.0682  1.6994  0.2278
 9047TIP3    H248557   1.890   5.955   0.988  1.3625 -0.0011  1.4120
 9048TIP3   OH248558   5.402   1.114   4.667  0.4346 -0.4699  0.1061
 9048TIP3    H148559   5.354   1.196   4.655  1.4685  0.1700  0.2498
 9048TIP3    H248560   5.373   1.059   4.594  0.2171  0.2621 -0.3731
 9049TIP3   OH248561   2.371   2.162  13.214 -0.4910 -0.0567 -0.8139
 9049TIP3    H148562   2.459   2.185  13.183 -0.7036  0.4621 -1.0381
 9049TIP3    H248563   2.364   2.068  13.199  0.6340 -0.3974  0.7433
 9050TIP3   OH248564   1.182   3.209  13.463 -0.0149  0.6285 -0.2120
 9050TIP3    H148565   1.167   3.300  13.492 -1.6434  0.6142 -0.9580
 9050TIP3    H248566   1.152   3.156  13.536  0.6347  0.6808  0.0958
 9051TIP3   OH248567   1.756   0.992  11.318  0.0991 -0.2920  0.0185
 9051TIP3    H148568   1.662   0.985  11.303 -0.2104  0.2255  1.6305
 9051TIP3    H248569   1.771   0.940  11.397  1.0220  0.3323  0.2612
 9052TIP3   OH248570   2.620   0.002  13.286 -0.2792  0.4059  0.0865
 9052TIP3    H148571   2.597  -0.073  13.231  1.3915  0.6662 -0.9895
 9052TIP3    H248572   2.713  -0.007  13.303 -0.6938  0.5015  2.6619
 9053TIP3   OH248573   5.099   5.312   4.084  0.0480  0.0069 -0.4874
 9053TIP3    H148574   5.120   5.218   4.082  1.0917  0.2666 -2.3824
 9053TIP3    H248575   5.005   5.315   4.064 -0.7210 -0.8008  2.6974
 9054TIP3   OH248576   5.006   6.208   4.173 -0.6521  0.5493  0.1993
 9054TIP3    H148577   5.054   6.243   4.248 -0.4717 -0.1649  0.4211
 9054TIP3    H248578   5.071   6.203   4.103 -0.5623  0.2438  0.2999
 9055TIP3   OH248579   6.616   6.018   0.139  0.7323  0.6308  0.2728
 9055TIP3    H148580   6.692   6.039   0.085  2.0892 -1.0219  1.4671
 9055TIP3    H248581   6.653   5.981   0.220 -1.3360 -0.5720  0.7214
 9056TIP3   OH248582   1.310   0.905   0.852  0.2376 -0.1253 -0.0909
 9056TIP3    H148583   1.308   0.921   0.946 -0.4537  0.9189 -0.2677
 9056TIP3    H248584   1.271   0.985   0.814 -3.8774 -2.4232 -1.0211
 9057TIP3   OH248585   6.444   0.360  11.426 -0.3372  0.5027  0.4289
 9057TIP3    H148586   6.538   0.372  11.413 -0.5336  2.0425  0.3421
 9057TIP3    H248587   6.431   0.365  11.520 -0.1175 -1.5015  0.5937
 9058TIP3   OH248588   5.939   6.431  11.730  0.1885  0.0802 -0.0330
 9058TIP3    H148589   5.969   6.387  11.650  0.3623 -2.6160  1.4369
 9058TIP3    H248590   5.843   6.430  11.722  0.1714 -1.1090  0.2497
 9059TIP3   OH248591   5.149   6.459  11.744  0.4798  0.3223  0.3012
 9059TIP3    H148592   5.217   6.438  11.679 -0.3006  0.4862 -0.5721
 9059TIP3    H248593   5.067   6.458  11.694 -0.0446  1.1607  1.1389
 9060TIP3   OH248594   5.765   3.077  11.605 -0.4987  0.1344 -0.2719
 9060TIP3    H148595   5.714   3.066  11.525 -0.4669  0.6939 -0.3714
 9060TIP3    H248596   5.724   3.018  11.668  0.1305 -1.0851 -1.0042
 9061TIP3   OH248597   5.131   2.680   0.243  0.2328  0.4329  0.2887
 9061TIP3    H148598   5.150   2.765   0.282  1.0619  0.2805  0.2125
 9061TIP3    H248599   5.131   2.619   0.316 -0.8041  0.5582  0.4079
 9062TIP3   OH248600   5.944   4.750  11.484  0.4187  0.7165 -0.5385
 9062TIP3    H148601   5.883   4.813  11.446  0.8548  0.7873 -1.1232
 9062TIP3    H248602   5.911   4.736  11.573  0.5911  2.1307 -0.2358
 9063TIP3   OH248603   4.243   4.363   3.513 -0.9600  0.8851 -0.7048
 9063TIP3    H148604   4.151   4.383   3.498 -1.1292  0.5716 -0.0999
 9063TIP3    H248605   4.289   4.446   3.499 -1.5576  1.5230  1.0410
 9064TIP3   OH248606   6.146   0.612  15.860 -0.1674 -0.4335  0.2904
 9064TIP3    H148607   6.058   0.648  15.876 -0.8138 -2.0946  0.6036
 9064TIP3    H248608   6.173   0.578  15.945  0.7596  0.0190  0.1740
 9065TIP3   OH248609   6.186   0.318  13.023 -0.1333 -0.0014  0.1209
 9065TIP3    H148610   6.125   0.314  12.949 -1.9573  1.3593  1.5027
 9065TIP3    H248611   6.252   0.252  13.003 -1.4992 -0.8187 -1.9097
 9066TIP3   OH248612   4.585   3.640  16.301  0.5283  0.3831  0.0461
 9066TIP3    H148613   4.554   3.613  16.214  1.9850  0.0453 -0.3783
 9066TIP3    H248614   4.513   3.692  16.337 -0.4120 -0.1425 -1.0355
 9067TIP3   OH248615   2.139   0.915  14.988 -0.1086  0.2433 -0.5128
 9067TIP3    H148616   2.092   0.916  15.071  0.1277 -0.6772 -0.3672
 9067TIP3    H248617   2.091   0.977  14.933 -1.6238 -0.8481 -0.4448
 9068TIP3   OH248618   6.371   4.479   2.195  0.6657 -0.0110  0.5169
 9068TIP3    H148619   6.374   4.502   2.288  0.9001 -0.8866  0.7242
 9068TIP3    H248620   6.463   4.467   2.170  0.6216  0.4675  0.1016
 9069TIP3   OH248621   2.566   6.255   3.920  0.1445  0.0817 -0.1087
 9069TIP3    H148622   2.499   6.194   3.888  0.7659 -1.7562  2.0098
 9069TIP3    H248623   2.523   6.341   3.917 -0.3933 -0.2053 -4.1892
 9070TIP3   OH248624   2.724   3.752   1.840  0.1008  0.8907  0.2180
 9070TIP3    H148625   2.711   3.693   1.766  0.3548  2.5075 -1.1204
 9070TIP3    H248626   2.698   3.699   1.916 -1.3612 -0.3745 -1.1125
 9071TIP3   OH248627   1.022   6.287  12.469 -0.1439 -0.0203 -0.0684
 9071TIP3    H148628   1.025   6.358  12.406  1.1109 -0.1509 -0.1618
 9071TIP3    H248629   0.951   6.230  12.438 -1.1563  1.1731  0.0224
 9072TIP3   OH248630   5.887   0.346   3.639 -0.3974 -0.1375 -0.4512
 9072TIP3    H148631   5.839   0.427   3.652  1.6102  1.0582 -0.2185
 9072TIP3    H248632   5.879   0.327   3.546 -0.8982  0.3119 -0.4968
 9073TIP3   OH248633   1.547   6.264   3.879 -0.1162  0.2699  0.4847
 9073TIP3    H148634   1.580   6.188   3.926  0.3037 -0.1037 -0.3928
 9073TIP3    H248635   1.518   6.324   3.947  0.5882 -0.2105  1.2157
 9074TIP3   OH248636   0.383   4.011   1.477 -0.2003  0.1758 -0.4168
 9074TIP3    H148637   0.369   3.917   1.477 -2.6514  0.4815  0.9280
 9074TIP3    H248638   0.478   4.022   1.478  0.1377 -2.2216 -3.2104
 9075TIP3   OH248639   0.189   3.219  12.715 -0.9895  0.6437  0.2098
 9075TIP3    H148640   0.150   3.269  12.786  1.8640  0.5055  1.9357
 9075TIP3    H248641   0.231   3.144  12.758 -0.3475 -0.1606 -1.7384
 9076TIP3   OH248642   0.399   3.895  12.678  0.3852 -0.6703 -0.0104
 9076TIP3    H148643   0.454   3.920  12.751 -0.2471 -0.2573  0.3215
 9076TIP3    H248644   0.457   3.900  12.601  1.2570 -1.8565  0.5454
 9077TIP3   OH248645   5.880   3.642  15.961 -0.5570 -0.0347 -0.2360
 9077TIP3    H148646   5.915   3.626  16.049 -2.3473 -1.0800  0.3107
 9077TIP3    H248647   5.793   3.602  15.963 -0.8220  0.4288 -2.3158
 9078TIP3   OH248648   2.172   6.651   4.021 -0.1090  0.2457  0.4890
 9078TIP3    H148649   2.220   6.692   3.949 -0.3332  1.1828  0.8652
 9078TIP3    H248650   2.174   6.716   4.091 -0.8704 -0.2008  0.9314
 9079TIP3   OH248651   4.749   0.073   3.685 -0.3970 -0.2854 -0.3257
 9079TIP3    H148652   4.797   0.152   3.660 -0.2871 -0.6566 -1.2984
 9079TIP3    H248653   4.660   0.089   3.655 -0.2936 -0.6808 -0.8349
 9080TIP3   OH248654   3.871   1.463  11.476 -0.3494 -0.2556 -0.3434
 9080TIP3    H148655   3.833   1.500  11.396  0.7386 -1.7392 -1.5950
 9080TIP3    H248656   3.964   1.450  11.454  0.5107  1.6239  2.0215
 9081TIP3   OH248657   3.604   5.872  13.394 -0.5507 -0.2304  0.1442
 9081TIP3    H148658   3.536   5.809  13.370  0.3064 -0.9676 -0.3631
 9081TIP3    H248659   3.680   5.818  13.416  0.0861  0.6158  0.0482
 9082TIP3   OH248660   2.982   2.624   4.843  0.3180 -0.0918  0.0001
 9082TIP3    H148661   3.037   2.564   4.893  1.1307  0.9498  0.3869
 9082TIP3    H248662   2.975   2.584   4.756  0.4110 -1.0017  0.4096
 9083TIP3   OH248663   2.165   3.442  16.410  0.0385  0.2771 -0.0532
 9083TIP3    H148664   2.104   3.515  16.401  0.7318  1.0040  1.0445
 9083TIP3    H248665   2.138   3.398  16.491  0.5261  0.1842  0.0584
 9084TIP3   OH248666   2.159   3.476   2.726  0.4938  0.1133  0.3479
 9084TIP3    H148667   2.142   3.393   2.772  0.6331 -1.3038 -2.0371
 9084TIP3    H248668   2.254   3.482   2.722  0.4822  0.2904  0.3522
 9085TIP3   OH248669   2.513   6.734  11.789  0.1140  0.1550 -0.4233
 9085TIP3    H148670   2.512   6.783  11.871  0.1471 -0.2230 -0.1973
 9085TIP3    H248671   2.425   6.745  11.753 -0.2448 -0.6406  0.2272
 9086TIP3   OH248672   4.028   5.380  12.035  0.1976 -0.5080 -0.1804
 9086TIP3    H148673   4.002   5.289  12.046  1.4189 -0.9817 -1.1266
 9086TIP3    H248674   4.122   5.377  12.017  0.5882  1.0551  1.4447
 9087TIP3   OH248675   0.237   4.510   5.563 -0.2436  0.1291 -0.0456
 9087TIP3    H148676   0.276   4.589   5.601 -0.5542  0.5758 -0.6365
 9087TIP3    H248677   0.213   4.536   5.474  0.2654 -0.8241 -0.4757
 9088TIP3   OH248678   1.770   4.945   2.287 -0.8045  0.6797 -0.0647
 9088TIP3    H148679   1.701   4.887   2.321 -0.8769  0.2247 -0.9773
 9088TIP3    H248680   1.734   4.979   2.206  0.7457 -0.9495 -1.4822
 9089TIP3   OH248681   1.183   5.261   3.246 -0.0333 -0.0830 -0.2854
 9089TIP3    H148682   1.194   5.190   3.183 -0.1298  0.4446 -0.9035
 9089TIP3    H248683   1.252   5.247   3.310 -1.0210 -1.6627  0.4762
 9090TIP3   OH248684   3.203   5.274  15.802 -0.5767  0.0106 -0.2490
 9090TIP3    H148685   3.286   5.323  15.811 -0.4781 -0.1134 -0.4808
 9090TIP3    H248686   3.135   5.341  15.811 -0.4889 -0.0816  1.2781
 9091TIP3   OH248687   0.039   0.076   4.805  0.1993  0.1363  0.0417
 9091TIP3    H148688   0.007   0.141   4.743 -1.7986  0.2811  1.1851
 9091TIP3    H248689   0.122   0.046   4.768 -2.2345 -1.8613 -4.2542
 9092TIP3   OH248690   0.744   2.857  15.815 -0.3951  0.1497 -0.3055
 9092TIP3    H148691   0.655   2.826  15.832 -0.7190  0.5784 -1.2254
 9092TIP3    H248692   0.794   2.828  15.892 -0.9215 -1.6584 -0.6340
 9093TIP3   OH248693   0.321   1.815  16.625 -0.5672  0.3344 -0.3497
 9093TIP3    H148694   0.403   1.836  16.580 -0.2690 -1.2015 -0.5308
 9093TIP3    H248695   0.348   1.778  16.709 -1.0644 -0.6233 -0.6070
 9094TIP3   OH248696   0.942   5.839  12.117  0.2080  0.0166 -0.3760
 9094TIP3    H148697   0.851   5.817  12.099 -0.1338  1.6548 -0.7444
 9094TIP3    H248698   0.965   5.787  12.194 -0.7120 -1.1774 -0.8959
 9095TIP3   OH248699   0.360   6.199  11.453 -0.1266  0.3913  0.2197
 9095TIP3    H148700   0.426   6.204  11.522 -0.7442 -1.4455  1.0018
 9095TIP3    H248701   0.409   6.181  11.373  0.4785  1.0045  0.4571
 9096TIP3   OH248702   5.437   1.378   1.755  0.1257  0.0559 -0.2667
 9096TIP3    H148703   5.394   1.404   1.674 -0.2604  1.7858  0.4832
 9096TIP3    H248704   5.517   1.430   1.758 -1.5138  2.5911  2.1151
 9097TIP3   OH248705   2.999   4.502  12.864  0.4174 -0.3986 -0.0338
 9097TIP3    H148706   2.974   4.564  12.795  2.1584  1.0189  0.5801
 9097TIP3    H248707   3.040   4.429  12.817 -0.5739 -0.5588 -0.6679
 9098TIP3   OH248708   4.327   4.927   5.826  0.3511 -0.1471  0.5396
 9098TIP3    H148709   4.410   4.952   5.785  0.1435  0.4503  0.4796
 9098TIP3    H248710   4.321   4.832   5.811  0.6955 -0.0809 -0.0505
 9099TIP3   OH248711   6.608   4.941  15.324  0.1233  0.7220 -0.3204
 9099TIP3    H148712   6.572   4.865  15.370  0.1983  0.2530 -1.0304
 9099TIP3    H248713   6.567   5.016  15.367  0.0494  0.2819  0.3901
 9100TIP3   OH248714   6.046   0.874  12.281  0.0401  1.0056  0.7276
 9100TIP3    H148715   6.058   0.781  12.296 -1.1224  0.5399 -1.0672
 9100TIP3    H248716   5.998   0.904  12.358 -0.5619 -0.1095  0.7974
 9101TIP3   OH248717   5.954   2.362  15.574 -0.2967 -0.3653 -0.1295
 9101TIP3    H148718   6.019   2.369  15.504  0.8269  1.3753  1.0736
 9101TIP3    H248719   5.965   2.273  15.607  2.1774  0.2189  0.7172
 9102TIP3   OH248720   1.554   2.500  11.889 -0.2468  0.7937 -0.0756
 9102TIP3    H148721   1.562   2.533  11.979 -1.1750  1.6995 -0.3210
 9102TIP3    H248722   1.461   2.483  11.878  0.0827 -0.9713 -0.3021
 9103TIP3   OH248723   2.636   6.019  15.167 -0.0343  0.5588  0.0798
 9103TIP3    H148724   2.667   6.108  15.182 -0.6995  0.9010 -0.5204
 9103TIP3    H248725   2.611   5.987  15.253 -3.4300  2.3453 -0.1228
 9104TIP3   OH248726   0.262   0.737  13.988  0.2841 -0.2975  0.4340
 9104TIP3    H148727   0.324   0.799  14.026  1.8662 -0.4785 -1.7804
 9104TIP3    H248728   0.293   0.651  14.019 -0.2778 -0.2100  1.2549
 9105TIP3   OH248729   6.111   2.871  15.612 -0.3608 -0.1925 -0.5392
 9105TIP3    H148730   6.104   2.784  15.651  0.7019  0.4588  1.1832
 9105TIP3    H248731   6.205   2.885  15.603 -0.5312  0.7353 -0.9211
 9106TIP3   OH248732   0.142   4.364   1.835 -0.1701  0.6263 -0.2401
 9106TIP3    H148733   0.127   4.400   1.748  0.0256 -0.6076 -0.7982
 9106TIP3    H248734   0.107   4.275   1.830  0.6572  0.2426  0.6811
 9107TIP3   OH248735   2.805   4.474  13.067  0.3421  0.2321 -0.1924
 9107TIP3    H148736   2.880   4.499  13.013  1.0154  1.0974  1.1197
 9107TIP3    H248737   2.731   4.518  13.027  0.5716 -0.4149 -1.3427
 9108TIP3   OH248738   5.270   3.111   1.364  0.8519  0.5440 -0.6019
 9108TIP3    H148739   5.267   3.202   1.336 -1.0044  1.6190  2.7655
 9108TIP3    H248740   5.352   3.102   1.413  1.6359  0.0411 -1.9838
 9109TIP3   OH248741   4.212   5.276   3.986 -0.2937  0.2901  0.2036
 9109TIP3    H148742   4.215   5.193   4.033  1.7462 -0.0501 -0.4916
 9109TIP3    H248743   4.228   5.343   4.052 -1.7311  0.1371  0.7256
 9110TIP3   OH248744   3.179   1.883  15.983 -0.1538 -0.7284 -0.4424
 9110TIP3    H148745   3.229   1.837  15.915  0.3188 -1.3934  0.3466
 9110TIP3    H248746   3.185   1.826  16.060  0.6442  0.7609  0.6280
 9111TIP3   OH248747   1.806   3.116   3.096 -0.0631 -0.1482 -0.3148
 9111TIP3    H148748   1.761   3.055   3.154 -0.1852 -1.1106 -1.4201
 9111TIP3    H248749   1.742   3.185   3.077 -0.9226 -1.2656 -1.5040
 9112TIP3   OH248750   0.567   0.949  14.388 -0.2240 -0.9627  0.0177
 9112TIP3    H148751   0.641   0.958  14.449 -1.3133 -0.1075  1.2318
 9112TIP3    H248752   0.582   1.018  14.323 -0.9807  0.4835  1.3557
 9113TIP3   OH248753   2.071   0.741  13.469 -0.3350 -0.1035 -0.2244
 9113TIP3    H148754   2.041   0.752  13.379 -0.5862  0.1130 -0.1150
 9113TIP3    H248755   2.120   0.822  13.488 -1.4180  0.4376  0.2820
 9114TIP3   OH248756   0.265   5.168  13.412  0.1034  0.2176  0.2209
 9114TIP3    H148757   0.183   5.212  13.435  1.1294  1.7045  1.0985
 9114TIP3    H248758   0.265   5.088  13.465 -1.2899 -0.3577 -0.6179
 9115TIP3   OH248759   1.392   6.783  15.933 -0.8572  0.8800  0.0046
 9115TIP3    H148760   1.483   6.790  15.903 -1.1706  0.0165 -1.1861
 9115TIP3    H248761   1.386   6.695  15.969 -2.4341 -0.8510 -4.2173
 9116TIP3   OH248762   4.925   2.707  15.626 -0.3232 -0.0103  0.1584
 9116TIP3    H148763   4.903   2.624  15.583 -0.6070  1.0337 -1.7842
 9116TIP3    H248764   5.017   2.721  15.603 -0.3812  0.3950  0.1713
 9117TIP3   OH248765   1.573   1.050   4.921  0.3749 -0.6351  0.0908
 9117TIP3    H148766   1.597   1.142   4.910  0.7725 -0.5571  1.5785
 9117TIP3    H248767   1.654   1.002   4.903  0.1342 -0.7222 -0.8224
 9118TIP3   OH248768   1.519   1.409  16.618 -0.2420  0.1691 -0.0318
 9118TIP3    H148769   1.481   1.449  16.540  0.0204 -0.5129 -0.5216
 9118TIP3    H248770   1.598   1.460  16.635 -0.1440  0.1428 -0.3878
 9119TIP3   OH248771   6.587   2.171   4.477  0.8035 -0.1054  0.0110
 9119TIP3    H148772   6.636   2.228   4.417  0.4818 -0.2639 -0.3984
 9119TIP3    H248773   6.554   2.100   4.422 -1.1307  0.7740 -0.0007
 9120TIP3   OH248774   4.952   4.243  14.282  1.1538  0.3073 -0.1303
 9120TIP3    H148775   4.924   4.208  14.366 -0.6211  0.0902 -0.8016
 9120TIP3    H248776   5.001   4.171  14.242  2.0623  0.4334  0.7121
 9121TIP3   OH248777   4.595   4.193  11.882 -0.1738 -0.6849  0.1867
 9121TIP3    H148778   4.609   4.135  11.807 -0.3523 -0.1686 -0.2473
 9121TIP3    H248779   4.650   4.269  11.865  1.5143 -1.5397  1.6801
 9122TIP3   OH248780   0.320   0.656  16.748  0.5007 -0.2445 -0.0013
 9122TIP3    H148781   0.390   0.690  16.691 -1.0798  0.7851 -1.3686
 9122TIP3    H248782   0.304   0.726  16.811 -1.7013  1.0207 -1.8780
 9123TIP3   OH248783   5.606   0.244   2.563 -0.0591 -0.0474 -0.6955
 9123TIP3    H148784   5.575   0.160   2.598  0.2772 -0.1702 -0.6869
 9123TIP3    H248785   5.542   0.268   2.497 -0.9699  0.4250  0.3474
 9124TIP3   OH248786   3.340   5.488  13.076 -0.3612  0.0955  0.0173
 9124TIP3    H148787   3.328   5.549  13.003 -0.2045 -1.1016 -1.0149
 9124TIP3    H248788   3.433   5.465  13.074 -0.5904 -0.8372 -0.1209
 9125TIP3   OH248789   3.734   4.112  16.641  0.1002  0.3137 -0.4037
 9125TIP3    H148790   3.683   4.031  16.635  2.8059 -1.6212  1.5188
 9125TIP3    H248791   3.742   4.141  16.550  1.4037 -3.1157 -1.4878
 9126TIP3   OH248792   6.346   6.233  16.671  0.4004 -0.3103  0.5416
 9126TIP3    H148793   6.376   6.159  16.724 -0.8008 -0.4454  1.0508
 9126TIP3    H248794   6.343   6.307  16.732  1.7865  0.2040 -0.0104
 9127TIP3   OH248795   0.502   0.430  15.569  0.1808  0.1896 -0.0634
 9127TIP3    H148796   0.587   0.467  15.593  0.1156 -0.0812  0.6067
 9127TIP3    H248797   0.440   0.469  15.631  0.3207 -2.0277  1.5232
 9128TIP3   OH248798   3.200   6.413  16.388  0.7079 -0.0094 -0.1985
 9128TIP3    H148799   3.221   6.320  16.384  1.2325  0.1702 -1.9193
 9128TIP3    H248800   3.219   6.446  16.300  4.3918  2.5464  1.4005
 9129TIP3   OH248801   4.005   1.009  12.401 -0.0411 -0.6049 -0.2562
 9129TIP3    H148802   4.028   0.991  12.310 -0.5148  0.1248 -0.5282
 9129TIP3    H248803   3.957   0.931  12.429  2.1739 -1.8467  0.1234
 9130TIP3   OH248804   3.864   2.965  15.886  0.9856  0.0979  0.5317
 9130TIP3    H148805   3.804   2.900  15.848  0.0679  1.3534 -0.1952
 9130TIP3    H248806   3.892   2.926  15.969 -0.3007 -0.8071  0.5512
 9131TIP3   OH248807   2.758   2.098  13.874 -0.1539  0.2144  0.1309
 9131TIP3    H148808   2.715   2.014  13.856  0.7143  0.1411 -1.7755
 9131TIP3    H248809   2.695   2.146  13.929 -1.6461 -0.8119 -0.6357
 9132TIP3   OH248810   1.906   6.217   1.737  0.2173  0.5490  0.0487
 9132TIP3    H148811   1.922   6.123   1.745 -2.7640 -0.0479 -0.4061
 9132TIP3    H248812   1.856   6.226   1.656 -1.3240  2.2710  1.1414
 9133TIP3   OH248813   5.851   1.342  14.883  0.4295 -0.7376  0.8127
 9133TIP3    H148814   5.945   1.349  14.865 -0.1826  1.8856 -1.9495
 9133TIP3    H248815   5.844   1.352  14.977  2.8292  1.1698  0.8580
 9134TIP3   OH248816   1.283   0.926   4.248 -0.1339 -0.2973  0.0154
 9134TIP3    H148817   1.280   0.977   4.329  1.2535  1.7292 -1.1653
 9134TIP3    H248818   1.192   0.925   4.218 -0.2825  0.8765  0.4103
 9135TIP3   OH248819   6.609   0.484   2.317  0.5062 -0.1641  0.2938
 9135TIP3    H148820   6.521   0.499   2.352  0.7962 -0.3248  1.0917
 9135TIP3    H248821   6.666   0.538   2.371  0.6736  1.5015 -1.4758
 9136TIP3   OH248822   1.546   1.803   2.155 -0.1528  0.2472 -0.2945
 9136TIP3    H148823   1.471   1.744   2.167 -1.0240  1.1341 -1.2918
 9136TIP3    H248824   1.564   1.837   2.243  1.0253 -2.2700  0.4984
 9137TIP3   OH248825   3.092   2.436   2.946 -0.6155 -0.3168  0.0255
 9137TIP3    H148826   3.040   2.424   2.866  0.0426 -1.1765 -0.2817
 9137TIP3    H248827   3.168   2.487   2.917 -0.6983 -0.0711  0.2386
 9138TIP3   OH248828   6.458   6.508   0.110  0.0108 -0.1919 -0.4399
 9138TIP3    H148829   6.453   6.413   0.118 -0.0733  0.0589  3.6985
 9138TIP3    H248830   6.551   6.527   0.099  0.0777 -0.6983 -0.7685
 9139TIP3   OH248831   2.622   1.707  16.926  0.0932  0.3142  0.6252
 9139TIP3    H148832   2.699   1.751  16.963  1.2925 -0.1170 -1.2878
 9139TIP3    H248833   2.647   1.615  16.922 -0.0330  0.3402 -1.1623
 9140TIP3   OH248834   1.508   0.986  13.067  0.1699  0.3855  0.2598
 9140TIP3    H148835   1.508   1.008  13.160 -1.9559 -3.0231  1.1709
 9140TIP3    H248836   1.562   0.907  13.061 -2.0215 -1.0870 -0.8840
 9141TIP3   OH248837   4.942   4.039  13.069  0.3420 -0.2164  0.4561
 9141TIP3    H148838   5.025   3.998  13.095  1.1118  1.1817  0.2797
 9141TIP3    H248839   4.942   4.034  12.974  1.4640  2.0675  0.3000
 9142TIP3   OH248840   5.709   4.465  13.278  0.2563 -0.1948 -0.7078
 9142TIP3    H148841   5.748   4.532  13.333 -0.3056 -0.3576 -0.1034
 9142TIP3    H248842   5.781   4.404  13.259  0.6174  0.2476 -0.7530
 9143TIP3   OH248843   6.760   0.436  11.199 -0.1080 -0.8043  1.0732
 9143TIP3    H148844   6.850   0.464  11.178 -0.3282 -0.6439  0.3182
 9143TIP3    H248845   6.763   0.414  11.292  1.0010 -1.9190  0.7864
 9144TIP3   OH248846   5.200   2.820  12.610  0.4250  0.1378 -0.2513
 9144TIP3    H148847   5.256   2.805  12.534  2.3332  2.5226  0.6254
 9144TIP3    H248848   5.173   2.912  12.603  0.0667  0.1977  1.5679
 9145TIP3   OH248849   0.147   6.278   5.563  0.2042 -0.4176 -0.3470
 9145TIP3    H148850   0.175   6.193   5.530  2.0288  0.0012  0.0718
 9145TIP3    H248851   0.052   6.278   5.551  0.3307 -1.9922 -1.5416
 9146TIP3   OH248852   4.045   1.747  15.659 -0.0698 -0.6502  0.7454
 9146TIP3    H148853   4.079   1.674  15.710 -0.2687 -0.7320  0.7643
 9146TIP3    H248854   3.968   1.776  15.709 -0.2436 -0.7077  0.5146
 9147TIP3   OH248855   1.611   6.682   2.122 -0.2585 -0.0459  0.5556
 9147TIP3    H148856   1.687   6.653   2.173 -0.8440  0.6684  1.8782
 9147TIP3    H248857   1.627   6.776   2.107 -0.5843 -0.0285  0.3116
 9148TIP3   OH248858   0.610   4.867  11.181 -0.3989  0.3633  0.0250
 9148TIP3    H148859   0.534   4.831  11.135 -0.8215  0.6541  0.5009
 9148TIP3    H248860   0.627   4.805  11.252  0.3798 -0.1957 -0.6345
 9149TIP3   OH248861   6.079   0.208  11.138 -0.0078  0.0448 -0.1035
 9149TIP3    H148862   6.102   0.258  11.217 -1.3091  1.1249 -0.3815
 9149TIP3    H248863   6.157   0.213  11.084  1.2403 -1.5045  1.5017
 9150TIP3   OH248864   5.285   4.126  12.562 -0.2535 -0.1933  0.0160
 9150TIP3    H148865   5.197   4.104  12.590 -0.7752  2.1391  0.3324
 9150TIP3    H248866   5.272   4.189  12.491  1.1434  0.9846  0.7737
 9151TIP3   OH248867   3.438   0.027  11.693  0.0003  0.4902 -0.9877
 9151TIP3    H148868   3.451   0.073  11.610 -0.1025  2.5696  0.1080
 9151TIP3    H248869   3.345   0.003  11.692 -0.3175  1.6652 -0.9251
 9152TIP3   OH248870   1.025   4.611  13.678  0.4774 -0.5035 -0.7677
 9152TIP3    H148871   0.990   4.594  13.765 -1.1953 -0.0678 -1.3284
 9152TIP3    H248872   1.109   4.654  13.694  1.4342 -2.7933  0.6098
 9153TIP3   OH248873   5.429   0.410  15.021  0.1847 -0.5508 -0.1264
 9153TIP3    H148874   5.425   0.471  15.095 -1.2061 -1.3159  0.4397
 9153TIP3    H248875   5.384   0.456  14.950  1.3070  0.0828 -0.4457
 9154TIP3   OH248876   6.605   4.293  15.510  0.2567  0.0437  0.1253
 9154TIP3    H148877   6.684   4.320  15.464  0.9160 -1.6968  0.2034
 9154TIP3    H248878   6.588   4.365  15.571  1.8531  0.3981  0.1950
 9155TIP3   OH248879   6.214   2.455  14.768  0.5760  0.1406  0.4039
 9155TIP3    H148880   6.173   2.378  14.728  1.1556 -0.4357  0.9083
 9155TIP3    H248881   6.308   2.438  14.760  0.7350  1.4081 -0.6660
 9156TIP3   OH248882   0.718   6.339   4.220 -0.1326 -0.1596  0.6373
 9156TIP3    H148883   0.692   6.424   4.255  0.7017 -0.2236  1.4353
 9156TIP3    H248884   0.636   6.289   4.216 -0.6552  0.7232  0.0081
 9157TIP3   OH248885   2.127   6.004  16.099  0.2883  0.1854 -0.5391
 9157TIP3    H148886   2.217   6.037  16.110  0.3379 -0.0463 -0.2365
 9157TIP3    H248887   2.137   5.909  16.091 -0.1442 -0.1542  2.3204
 9158TIP3   OH248888   5.349   4.199   4.974  0.0837  0.0997 -0.1731
 9158TIP3    H148889   5.272   4.251   4.995  0.1726  0.7364 -1.3235
 9158TIP3    H248890   5.337   4.175   4.882  0.3653 -1.3815  0.1614
 9159TIP3   OH248891   2.865   0.626  16.452  0.2220  0.2047  0.7754
 9159TIP3    H148892   2.854   0.720  16.441  0.5429  0.3497  1.6435
 9159TIP3    H248893   2.947   0.606  16.406  0.2353  0.3753  0.7257
 9160TIP3   OH248894   1.867   2.134  11.754  0.1186  0.3023 -0.2118
 9160TIP3    H148895   1.795   2.198  11.758 -0.4748 -0.2924 -1.1542
 9160TIP3    H248896   1.944   2.187  11.734 -0.0858  0.9273  0.6474
 9161TIP3   OH248897   4.194   2.221  15.992 -0.6462  0.5825  0.2457
 9161TIP3    H148898   4.122   2.279  15.966  1.0691  2.0759 -1.2932
 9161TIP3    H248899   4.270   2.255  15.944  0.9571 -1.3169  1.4121
 9162TIP3   OH248900   1.041   2.913   3.027 -0.0983 -0.0063  0.4671
 9162TIP3    H148901   0.976   2.941   2.964  0.6542  0.1865 -0.2295
 9162TIP3    H248902   1.002   2.932   3.113 -1.3960 -0.8772  0.0885
 9163TIP3   OH248903   6.531   2.989  15.236 -0.0955  0.2588  0.2034
 9163TIP3    H148904   6.522   2.948  15.321 -1.1650  0.2920  0.1068
 9163TIP3    H248905   6.562   3.078  15.255  2.5929 -0.6657  0.3928
 9164TIP3   OH248906   5.795   4.694  11.690  0.3663  0.0800  0.2291
 9164TIP3    H148907   5.718   4.670  11.742 -0.5305  0.4608 -0.8950
 9164TIP3    H248908   5.836   4.611  11.666  0.7767 -0.0936  1.5214
 9165TIP3   OH248909   2.445   0.627   4.122 -0.0464 -0.8230  0.2099
 9165TIP3    H148910   2.389   0.594   4.192  0.7895 -0.8812  0.8521
 9165TIP3    H248911   2.384   0.653   4.053 -0.9359  0.3083  1.4004
 9166TIP3   OH248912   1.397   3.382   2.480 -0.5783 -0.4159 -0.8860
 9166TIP3    H148913   1.483   3.340   2.479  0.0662  0.8565  0.0801
 9166TIP3    H248914   1.405   3.457   2.421 -0.5435  0.6090  0.3918
 9167TIP3   OH248915   0.104   2.203  14.507 -0.2394  0.4453  0.4150
 9167TIP3    H148916   0.044   2.134  14.480 -0.6308  0.7770  0.4259
 9167TIP3    H248917   0.179   2.196  14.448 -0.4051  0.1943  0.2382
 9168TIP3   OH248918   0.679   4.322  11.315  0.1097 -0.1873 -0.0617
 9168TIP3    H148919   0.758   4.280  11.349  0.4575 -0.0480 -0.6840
 9168TIP3    H248920   0.608   4.287  11.369  0.5808 -0.4163  0.4127
 9169TIP3   OH248921   5.637   3.567   5.156 -0.0095 -0.0844  0.2418
 9169TIP3    H148922   5.643   3.653   5.198 -1.3173  0.1266  0.0026
 9169TIP3    H248923   5.560   3.526   5.195  0.0233 -0.7538 -0.3801
 9170TIP3   OH248924   3.843   3.354   6.329 -0.2779  0.5140 -0.4910
 9170TIP3    H148925   3.842   3.266   6.293 -1.5163  0.0075  0.7145
 9170TIP3    H248926   3.757   3.390   6.306 -1.0482  0.2317  1.7411
 9171TIP3   OH248927   5.478   1.314  16.198  0.1577 -0.2060 -0.3665
 9171TIP3    H148928   5.469   1.303  16.293 -0.5921 -0.4049 -0.4593
 9171TIP3    H248929   5.520   1.400  16.188 -1.3545  0.6165  0.1066
 9172TIP3   OH248930   0.477   4.619   5.862  0.0184  0.2183 -0.3432
 9172TIP3    H148931   0.506   4.540   5.816 -1.3549  0.6316 -2.0027
 9172TIP3    H248932   0.407   4.654   5.806 -2.3194  0.2911  2.5166
 9173TIP3   OH248933   2.486   5.817   1.447 -0.4563 -0.2883  0.6191
 9173TIP3    H148934   2.500   5.911   1.451 -1.1741 -0.1394 -0.4160
 9173TIP3    H248935   2.547   5.786   1.381 -2.6815 -0.0598 -1.6050
 9174TIP3   OH248936   5.669   1.515   1.771  0.4828  0.3505 -0.4901
 9174TIP3    H148937   5.701   1.558   1.851  0.8722  1.7862 -1.3936
 9174TIP3    H248938   5.723   1.437   1.763  1.6804  1.1375 -0.3109
 9175TIP3   OH248939   5.574   4.321   3.193 -0.6610  0.2496 -0.1068
 9175TIP3    H148940   5.572   4.244   3.250 -1.6423 -0.6013 -1.2456
 9175TIP3    H248941   5.533   4.291   3.111  3.0031  0.6676 -2.2397
 9176TIP3   OH248942   5.278   0.947  10.802 -0.0442 -0.5253 -0.0683
 9176TIP3    H148943   5.290   1.037  10.774  1.2757 -1.0715 -1.2937
 9176TIP3    H248944   5.313   0.894  10.731  0.6046 -1.9797  1.2881
 9177TIP3   OH248945   1.024   6.386   4.825 -0.2084 -0.3016  0.2431
 9177TIP3    H148946   1.065   6.375   4.911 -0.9329 -0.7847  0.5307
 9177TIP3    H248947   1.056   6.311   4.774  1.2484  0.6808 -0.3259
 9178TIP3   OH248948   0.864   3.635   4.860  0.5793 -0.8899 -0.0580
 9178TIP3    H148949   0.786   3.584   4.838 -1.4092  0.9839  2.2780
 9178TIP3    H248950   0.909   3.584   4.927 -0.6648 -0.2981  1.2634
 9179TIP3   OH248951   3.916   4.806   0.907  0.5777 -0.5206  0.0171
 9179TIP3    H148952   3.940   4.714   0.901  0.1402 -0.6038 -0.4985
 9179TIP3    H248953   3.826   4.810   0.874  0.7910  0.1694 -0.5154
 9180TIP3   OH248954   5.106   6.609  11.982 -0.0647 -0.2420 -0.1510
 9180TIP3    H148955   5.183   6.609  12.038 -0.6495  1.3347  0.6646
 9180TIP3    H248956   5.138   6.574  11.898  1.5508  0.5078  0.1371
 9181TIP3   OH248957   2.366   3.739   4.399 -0.5141 -0.0826  0.0958
 9181TIP3    H148958   2.344   3.815   4.344 -0.9315  0.1019  0.5057
 9181TIP3    H248959   2.425   3.774   4.466  0.9753 -0.5608 -0.9469
 9182TIP3   OH248960   5.858   0.401  15.802  0.5568 -0.0354  0.8046
 9182TIP3    H148961   5.852   0.350  15.721  0.7794  0.2769  0.5868
 9182TIP3    H248962   5.781   0.459  15.800  0.6645  0.1058  0.7211
 9183TIP3   OH248963   6.630   3.907  11.504 -0.0409 -0.2083 -0.1080
 9183TIP3    H148964   6.627   3.935  11.596  2.3436  1.1649 -0.3982
 9183TIP3    H248965   6.594   3.980  11.455  4.3252  1.7164 -0.6994
 9184TIP3   OH248966   0.687   6.615  13.344  0.5382  0.3226 -0.5079
 9184TIP3    H148967   0.753   6.654  13.402  0.5857 -0.8286  0.2219
 9184TIP3    H248968   0.707   6.522  13.344 -1.8276 -0.2228  0.7088
 9185TIP3   OH248969   1.095   6.259  17.141  0.2565 -0.0020  0.3780
 9185TIP3    H148970   1.013   6.308  17.149 -1.4965 -2.6384 -0.7959
 9185TIP3    H248971   1.132   6.259  17.230 -1.5422  0.2971  1.1380
 9186TIP3   OH248972   6.253   6.402  15.214 -0.5875  0.3683  0.1330
 9186TIP3    H148973   6.297   6.471  15.265 -0.3239  0.8475 -0.7337
 9186TIP3    H248974   6.325   6.359  15.167 -0.9407  0.5218 -0.5398
 9187TIP3   OH248975   0.052   3.521  14.396  0.0165 -0.2711  0.0985
 9187TIP3    H148976   0.137   3.498  14.358 -0.0347  0.5523 -0.5362
 9187TIP3    H248977  -0.011   3.508  14.325 -0.0206  1.6774 -0.2567
 9188TIP3   OH248978   5.677   1.091  14.845 -0.3578  0.1721 -0.6770
 9188TIP3    H148979   5.621   1.122  14.916 -0.3245  0.2802 -0.6979
 9188TIP3    H248980   5.732   1.166  14.823 -1.0495  0.4478 -1.4849
 9189TIP3   OH248981   0.209   5.357   5.278 -0.9022  0.4051  0.0659
 9189TIP3    H148982   0.276   5.395   5.221 -2.0398  1.1320 -0.7899
 9189TIP3    H248983   0.126   5.379   5.236 -1.6284 -2.0025  0.2034
 9190TIP3   OH248984   6.052   3.523  12.842 -0.2988 -0.6330 -0.7020
 9190TIP3    H148985   6.028   3.434  12.816 -1.3322 -0.2915 -0.9415
 9190TIP3    H248986   6.097   3.512  12.926 -0.5032 -1.3683 -0.6829
 9191TIP3   OH248987   0.711   1.837   0.568 -0.2447 -0.2735  0.7617
 9191TIP3    H148988   0.774   1.843   0.496 -1.7966 -0.1159 -0.5954
 9191TIP3    H248989   0.649   1.770   0.540 -0.4521 -0.7430  2.2945
 9192TIP3   OH248990   3.750   5.084   0.693  0.1987  0.0463 -0.4914
 9192TIP3    H148991   3.708   5.116   0.613 -0.7290  1.3623  0.4994
 9192TIP3    H248992   3.691   5.016   0.725  1.3226 -1.5234 -1.7030
 9193TIP3   OH248993   0.936   5.356   4.298  0.2799 -0.8250  0.3155
 9193TIP3    H148994   0.862   5.392   4.346 -0.6175  0.8226 -2.1912
 9193TIP3    H248995   1.010   5.413   4.321 -0.0796 -0.2120 -0.0445
 9194TIP3   OH248996   2.384   2.451  12.654  0.1575 -0.2720  0.0167
 9194TIP3    H148997   2.471   2.489  12.643  0.6984 -1.5641 -0.2257
 9194TIP3    H248998   2.324   2.526  12.651  1.3227  0.6976  0.9913
 9195TIP3   OH248999   0.160   5.422   2.354  0.5748 -0.5305 -0.0977
 9195TIP3    H149000   0.172   5.411   2.448  1.0822  0.1264 -0.0847
 9195TIP3    H249001   0.151   5.516   2.341 -1.7365 -0.7870 -0.4591
 9196TIP3   OH249002   1.029   2.569  13.230 -0.4987 -0.6030 -1.0967
 9196TIP3    H149003   1.036   2.664  13.237 -0.5150 -0.5690 -1.5030
 9196TIP3    H249004   1.087   2.535  13.298 -0.9433 -0.2997 -0.5588
 9197TIP3   OH249005   1.254   2.691   5.977  0.0407 -0.1917 -0.4351
 9197TIP3    H149006   1.324   2.741   6.019 -1.9105  1.2677  1.1553
 9197TIP3    H249007   1.254   2.607   6.023 -0.3288  0.4156  0.6886
 9198TIP3   OH249008   1.395   4.294   5.818  0.0732  0.6422 -0.1869
 9198TIP3    H149009   1.454   4.262   5.886  1.7870 -0.6036 -2.2255
 9198TIP3    H249010   1.353   4.371   5.858  0.1147 -0.7359  2.6956
 9199TIP3   OH249011   5.826   0.483  12.441  0.4471 -0.1081  0.2326
 9199TIP3    H149012   5.818   0.392  12.468 -0.8620  0.0130  0.2771
 9199TIP3    H249013   5.822   0.533  12.522 -2.4612  0.1930 -0.0337
 9200TIP3   OH249014   0.887   4.307   4.297  1.0360 -0.0793 -0.4236
 9200TIP3    H149015   0.844   4.356   4.227  0.1900  0.3890  0.4091
 9200TIP3    H249016   0.936   4.373   4.346  1.0966 -0.3051 -0.1771
 9201TIP3   OH249017   2.936   3.552   6.243  0.7649  0.0093  0.2460
 9201TIP3    H149018   2.887   3.622   6.286 -2.6959 -0.7978 -2.2067
 9201TIP3    H249019   2.948   3.486   6.310 -0.6806  0.6373  1.1403
 9202TIP3   OH249020   2.899   3.217  16.008  0.1964 -0.1974 -0.1138
 9202TIP3    H149021   2.882   3.235  15.916  2.3739  1.5777 -0.2105
 9202TIP3    H249022   2.865   3.128  16.022 -3.3445  0.8194 -1.7161
 9203TIP3   OH249023   0.646   3.523  12.709  0.4022  0.5795 -0.1612
 9203TIP3    H149024   0.597   3.510  12.627 -0.1281 -1.5267  0.4418
 9203TIP3    H249025   0.610   3.457  12.768  0.4446  2.3901  1.9414
 9204TIP3   OH249026   2.666   4.365   3.168  0.1806 -0.0555 -0.2729
 9204TIP3    H149027   2.665   4.272   3.147  1.4920  0.1597 -1.3554
 9204TIP3    H249028   2.591   4.401   3.121  0.6209 -0.3013 -1.1658
 9205TIP3   OH249029   3.108   4.851  12.698  0.5982  0.4712  0.1555
 9205TIP3    H149030   3.144   4.831  12.784 -0.7029 -0.2245  0.5582
 9205TIP3    H249031   3.045   4.922  12.714 -1.2927 -1.1685  0.1626
 9206TIP3   OH249032   1.845   6.013  15.699 -0.1523 -0.0020 -0.8976
 9206TIP3    H149033   1.841   5.928  15.655  1.0729 -0.8972  0.6683
 9206TIP3    H249034   1.793   6.001  15.779  0.4747  0.5664 -0.4067
 9207TIP3   OH249035   1.790   5.866  11.724  0.1492 -0.5584  0.0150
 9207TIP3    H149036   1.806   5.788  11.671  0.7537 -0.1003 -0.4844
 9207TIP3    H249037   1.877   5.898  11.747 -0.0957 -0.1539  0.4011
 9208TIP3   OH249038   5.613   5.918   2.931 -0.2215 -0.4194 -0.0360
 9208TIP3    H149039   5.683   5.859   2.960  2.2387  0.7569 -3.2823
 9208TIP3    H249040   5.636   6.003   2.967 -1.5295 -0.5581  1.1849
 9209TIP3   OH249041   5.402   0.825   0.298  0.4305  0.0025 -0.0133
 9209TIP3    H149042   5.370   0.872   0.376  3.0755 -0.3100  1.3121
 9209TIP3    H249043   5.386   0.733   0.317  0.2797 -0.0157 -0.2261
 9210TIP3   OH249044   1.652   6.356  14.718 -0.2354  0.3939  0.5802
 9210TIP3    H149045   1.632   6.269  14.754 -1.0193  0.3562  0.0693
 9210TIP3    H249046   1.574   6.379  14.667  0.2729  1.0783  0.1082
 9211TIP3   OH249047   0.923   0.736   4.789  0.6654 -0.2109 -0.0102
 9211TIP3    H149048   1.013   0.729   4.819  0.8119 -1.8951 -0.7886
 9211TIP3    H249049   0.884   0.651   4.809 -0.6538  0.3802  0.0059
 9212TIP3   OH249050   6.134   0.612  10.962 -0.3814  0.2203  0.1435
 9212TIP3    H149051   6.150   0.632  11.054 -0.0489 -0.1673  0.1736
 9212TIP3    H249052   6.098   0.523  10.962 -1.2051  0.5519 -0.0384
 9213TIP3   OH249053   5.878   1.303   4.758 -0.1097 -0.4675 -0.2240
 9213TIP3    H149054   5.922   1.227   4.721  0.4888  0.1573 -0.8073
 9213TIP3    H249055   5.943   1.373   4.753 -0.9228  0.2769 -0.3956
 9214TIP3   OH249056   3.693   5.414   5.247  0.2571 -0.4836 -0.3081
 9214TIP3    H149057   3.679   5.343   5.185 -2.1722  0.6866 -1.1627
 9214TIP3    H249058   3.681   5.494   5.195  0.6731  0.5452  1.1280
 9215TIP3   OH249059   4.419   6.099   5.910  0.1396  0.2500 -0.0608
 9215TIP3    H149060   4.482   6.107   5.981  0.5206  0.1482 -0.3810
 9215TIP3    H249061   4.447   6.164   5.845  0.5160 -0.4760 -0.6413
 9216TIP3   OH249062   1.315   6.696   0.278  1.4514 -0.4090  0.2183
 9216TIP3    H149063   1.371   6.769   0.303  0.1631  0.8405 -0.5389
 9216TIP3    H249064   1.333   6.682   0.185 -0.0216  0.4648 -0.2043
 9217TIP3   OH249065   4.524   1.711   4.290  0.2821 -0.4057  0.0330
 9217TIP3    H149066   4.583   1.716   4.365  2.5544  0.7643 -1.7481
 9217TIP3    H249067   4.549   1.630   4.245 -0.1540 -0.4078 -0.2125
 9218TIP3   OH249068   0.830   3.955  16.771  0.4306 -0.0813  0.1649
 9218TIP3    H149069   0.879   3.952  16.690 -1.7589  1.5476 -1.3041
 9218TIP3    H249070   0.747   3.912  16.751 -0.9483  2.1121  0.8832
 9219TIP3   OH249071   6.607   0.122   0.381  0.1081 -0.0705 -0.2964
 9219TIP3    H149072   6.541   0.116   0.312 -0.7198 -0.2267  0.4847
 9219TIP3    H249073   6.578   0.195   0.436 -0.1877 -1.0092  0.8333
 9220TIP3   OH249074   1.736   0.514  13.242  0.2085 -0.1073  0.1909
 9220TIP3    H149075   1.807   0.538  13.302  0.1401  0.6100 -0.0151
 9220TIP3    H249076   1.772   0.531  13.155  0.1255 -0.6717  0.0403
 9221TIP3   OH249077   2.797   3.211  15.016  0.1540  0.1114 -0.0507
 9221TIP3    H149078   2.803   3.179  15.106 -1.1410 -1.9884 -0.6810
 9221TIP3    H249079   2.872   3.171  14.971 -0.2324 -0.3160 -0.3228
 9222TIP3   OH249080   3.299   3.351  15.474  0.6514  0.3550 -0.6945
 9222TIP3    H149081   3.296   3.399  15.558 -1.0305 -0.4943 -0.2542
 9222TIP3    H249082   3.347   3.271  15.494 -0.1153 -0.0430 -0.4327
 9223TIP3   OH249083   3.256   1.198   6.501  0.8622 -0.2943  0.4168
 9223TIP3    H149084   3.167   1.193   6.537 -0.3890  0.8718 -2.3474
 9223TIP3    H249085   3.286   1.286   6.524  0.0624  0.4513 -1.3112
 9224TIP3   OH249086   3.856   3.380  13.867 -0.3441  0.0547  0.0661
 9224TIP3    H149087   3.861   3.372  13.962 -0.1540  0.4289  0.0906
 9224TIP3    H249088   3.882   3.294  13.834 -1.5935 -0.4481  0.3745
 9225TIP3   OH249089   5.239   2.769  12.898 -0.0311 -0.2457  0.2685
 9225TIP3    H149090   5.238   2.759  12.803  0.6423 -0.5029  0.2851
 9225TIP3    H249091   5.147   2.781  12.922 -0.3104 -1.1287 -0.3174
 9226TIP3   OH249092   1.424   5.244  13.994  0.0279 -0.8416 -0.2083
 9226TIP3    H149093   1.475   5.325  13.985 -1.3867 -0.1974 -2.9468
 9226TIP3    H249094   1.489   5.178  14.019  1.9790  0.2457 -2.2368
 9227TIP3   OH249095   0.635   2.307   1.888 -0.7964 -0.2520  0.0524
 9227TIP3    H149096   0.562   2.320   1.828 -0.9178  0.4094  0.3415
 9227TIP3    H249097   0.597   2.311   1.976 -0.1683  1.8060  0.2539
 9228TIP3   OH249098   1.036   5.104   5.341 -0.0285  0.6304 -0.0769
 9228TIP3    H149099   1.101   5.048   5.384 -0.9825 -0.7085 -0.3448
 9228TIP3    H249100   1.072   5.119   5.254  0.6858  1.2211  0.3176
 9229TIP3   OH249101   1.529   2.557  14.838 -0.4451 -0.3583 -0.4423
 9229TIP3    H149102   1.562   2.642  14.866 -1.2323 -0.3637  0.5334
 9229TIP3    H249103   1.477   2.525  14.912 -0.3398 -1.5883 -0.8768
 9230TIP3   OH249104   3.048   0.617  17.191  0.1790 -0.2691 -0.2173
 9230TIP3    H149105   3.061   0.590  17.100 -0.3977  0.4573 -0.5226
 9230TIP3    H249106   3.120   0.577  17.239 -0.4089 -1.9591 -0.7381
 9231TIP3   OH249107   1.525   4.891   3.775 -0.1305 -0.2333  0.0593
 9231TIP3    H149108   1.504   4.860   3.687 -0.0767  3.2392 -1.2664
 9231TIP3    H249109   1.620   4.883   3.781 -0.3260 -2.5122  0.6779
 9232TIP3   OH249110   5.110   0.711  11.600 -0.1793  0.5606  0.0382
 9232TIP3    H149111   5.177   0.711  11.531  0.5677  2.4341  0.7051
 9232TIP3    H249112   5.128   0.632  11.651  0.2830  0.0161 -0.9556
 9233TIP3   OH249113   3.345   0.239  16.962  0.4656  0.2973  0.5139
 9233TIP3    H149114   3.434   0.263  16.990 -0.0425  0.2052  2.2400
 9233TIP3    H249115   3.310   0.320  16.925  0.9422  0.5797  0.6635
 9234TIP3   OH249116   3.037   1.037   5.456  0.0940  0.3922 -0.2398
 9234TIP3    H149117   2.990   1.095   5.515 -0.7783 -1.4995  0.9495
 9234TIP3    H249118   2.969   0.995   5.404  0.7542  0.7612 -1.4423
 9235TIP3   OH249119   4.004   5.065   0.803 -0.0294 -0.5205  0.3423
 9235TIP3    H149120   3.925   5.079   0.751  0.1280 -1.1585 -0.0791
 9235TIP3    H249121   3.987   4.984   0.852 -1.0190  1.1807  2.9106
 9236TIP3   OH249122   1.927   1.086  15.372  0.4425 -0.6019 -0.0716
 9236TIP3    H149123   1.922   1.074  15.467  0.2999  0.8258  0.1157
 9236TIP3    H249124   1.980   1.165  15.361  1.1709 -1.2348 -1.2121
 9237TIP3   OH249125   3.034   4.138   3.190 -0.3249 -0.1998 -0.2223
 9237TIP3    H149126   3.048   4.129   3.096  1.9410 -0.5025  0.1132
 9237TIP3    H249127   3.122   4.142   3.227 -1.1848 -0.3339  1.9098
 9238TIP3   OH249128   1.418   0.433   0.017 -0.3628  0.0298  0.1699
 9238TIP3    H149129   1.506   0.471   0.022 -0.8040  1.0802  0.0748
 9238TIP3    H249130   1.391   0.444  -0.074 -0.7528  0.0849  0.2890
 9239TIP3   OH249131   5.431   4.989  15.666 -0.4515 -0.6079  0.3277
 9239TIP3    H149132   5.349   4.977  15.618 -0.4586 -1.2011  0.4863
 9239TIP3    H249133   5.452   4.903  15.701  1.6809 -1.0817 -2.0160
 9240TIP3   OH249134   4.259   5.165   2.964  0.5169 -0.0104  0.2450
 9240TIP3    H149135   4.319   5.239   2.968  1.1442 -0.4308 -1.0188
 9240TIP3    H249136   4.209   5.178   2.884  0.7665 -1.0339 -0.0948
 9241TIP3   OH249137   6.379   4.133  11.729  0.2772 -0.6852 -0.0145
 9241TIP3    H149138   6.383   4.227  11.710  0.0905 -0.7787 -0.5382
 9241TIP3    H249139   6.461   4.098  11.694  1.4804 -0.3444  2.3736
 9242TIP3   OH249140   4.316   4.730  14.584  0.0730 -0.4866 -0.3105
 9242TIP3    H149141   4.339   4.764  14.671 -2.7106 -0.2162  0.3853
 9242TIP3    H249142   4.305   4.809  14.530 -1.8180 -0.4642  0.0829
 9243TIP3   OH249143   2.501   0.504  16.043  0.4481  0.1067  0.5797
 9243TIP3    H149144   2.481   0.590  16.006 -1.0168 -0.3872  0.1855
 9243TIP3    H249145   2.528   0.452  15.967  0.8891  0.0864  0.7485
 9244TIP3   OH249146   0.533   4.018   0.805 -0.0928  0.1829 -0.4967
 9244TIP3    H149147   0.532   3.994   0.898 -0.0994  1.1164 -0.2519
 9244TIP3    H249148   0.541   3.935   0.759  0.6464 -0.2271  0.3641
 9245TIP3   OH249149   4.701   4.521  12.927 -0.1695 -0.2383  0.6968
 9245TIP3    H149150   4.759   4.559  12.994 -0.1068 -0.1093  0.5693
 9245TIP3    H249151   4.718   4.427  12.931 -1.5411 -0.4605  2.1848
 9246TIP3   OH249152   5.687   3.922   1.002  0.1605  0.2015 -0.1145
 9246TIP3    H149153   5.748   3.995   1.013 -0.0162  0.3643 -0.2271
 9246TIP3    H249154   5.601   3.963   0.994  0.0777 -0.0131 -0.3194
 9247TIP3   OH249155   4.683   5.196  14.572 -0.4355 -0.5072  0.4067
 9247TIP3    H149156   4.614   5.131  14.584  0.7585 -1.3865  3.1374
 9247TIP3    H249157   4.752   5.169  14.633  1.0488  2.0392 -0.0406
 9248TIP3   OH249158   3.288   6.524   0.545 -0.4345 -0.0498  0.3614
 9248TIP3    H149159   3.269   6.431   0.558 -1.1172 -0.1363 -1.1658
 9248TIP3    H249160   3.383   6.529   0.548 -0.2580 -1.2050 -1.9745
 9249TIP3   OH249161   5.686   5.458  15.570  0.4574  0.4004  0.6241
 9249TIP3    H149162   5.703   5.506  15.650 -0.8257 -0.9663  1.7470
 9249TIP3    H249163   5.687   5.366  15.597  1.8502 -0.1769 -1.2790
 9250TIP3   OH249164   4.291   2.037   1.938 -0.2003 -0.1481  0.2069
 9250TIP3    H149165   4.308   1.945   1.957 -2.5778 -1.1953 -2.3653
 9250TIP3    H249166   4.273   2.077   2.023  1.2016 -1.9761  1.3731
 9251TIP3   OH249167   3.284   6.336   1.065 -0.3073 -0.0921  0.2244
 9251TIP3    H149168   3.230   6.301   1.135 -1.5045 -1.1669 -1.2117
 9251TIP3    H249169   3.329   6.411   1.104 -2.0120  0.1591  1.7300
 9252TIP3   OH249170   5.433   0.990   5.589 -0.2707  0.2713 -0.4734
 9252TIP3    H149171   5.405   0.908   5.547  0.9444 -0.0380 -0.6872
 9252TIP3    H249172   5.513   0.967   5.636  0.8235  1.6542 -1.6383
 9253TIP3   OH249173   3.254   4.638  16.667 -0.0976  0.2447 -0.1623
 9253TIP3    H149174   3.254   4.618  16.574  1.1297 -0.0343 -0.1092
 9253TIP3    H249175   3.226   4.729  16.672  0.0477  0.3259 -0.8129
 9254TIP3   OH249176   1.042   5.489   0.063 -0.9013  0.3784  0.2233
 9254TIP3    H149177   1.023   5.523  -0.024 -0.1449 -0.3519 -0.2313
 9254TIP3    H249178   0.966   5.435   0.085  0.2747 -1.9650 -1.2982
 9255TIP3   OH249179   1.418   2.228   0.057  0.4772 -0.0974  0.6579
 9255TIP3    H149180   1.389   2.220  -0.034 -1.9451  1.5106  1.2710
 9255TIP3    H249181   1.510   2.254   0.050  1.1371 -2.6872 -1.2879
 9256TIP3   OH249182   5.018   5.151  15.310 -0.5592 -0.2646 -0.0292
 9256TIP3    H149183   5.046   5.230  15.264 -1.5452 -0.0488 -0.2726
 9256TIP3    H249184   4.988   5.182  15.396 -0.8125 -0.3797 -0.0738
 9257TIP3   OH249185   2.304   3.163   3.959  0.2250 -0.2582  0.5576
 9257TIP3    H149186   2.234   3.173   3.895  0.2475 -1.8065  0.2674
 9257TIP3    H249187   2.381   3.139   3.907  1.4483  3.1584  0.6756
 9258TIP3   OH249188   1.709   5.209  16.709  0.3294 -0.5522 -0.3563
 9258TIP3    H149189   1.717   5.262  16.630 -0.5537 -2.6818 -1.9575
 9258TIP3    H249190   1.635   5.246  16.757  1.6841  1.5499  0.1376
 9259TIP3   OH249191   0.927   6.126   3.110 -0.1762  0.1906  0.1766
 9259TIP3    H149192   0.861   6.186   3.146 -0.3415 -0.5859  1.1931
 9259TIP3    H249193   0.899   6.040   3.140  0.6805 -0.2674 -0.3405
 9260TIP3   OH249194   6.142   2.587  16.473  0.2093  0.6522 -0.0316
 9260TIP3    H149195   6.091   2.604  16.394  1.5209  1.0304 -0.8074
 9260TIP3    H249196   6.103   2.508  16.510  0.1565 -0.0416 -1.5388
 9261TIP3   OH249197   2.930   5.162  11.999 -0.1906  0.5367 -0.0684
 9261TIP3    H149198   2.967   5.208  12.074  1.0525 -1.4281  0.5728
 9261TIP3    H249199   2.858   5.217  11.969  0.0296  1.9004  1.8671
 9262TIP3   OH249200   2.753   2.767  11.413  0.0830 -0.2126  0.2742
 9262TIP3    H149201   2.734   2.860  11.404  0.0752 -0.0933  1.3590
 9262TIP3    H249202   2.697   2.738  11.485 -0.8217 -1.3303 -0.8581
 9263TIP3   OH249203   6.681   2.039  15.727 -0.9070  0.1693  0.1750
 9263TIP3    H149204   6.699   2.091  15.649  1.2402 -0.7238  0.0170
 9263TIP3    H249205   6.729   2.083  15.797 -1.2243 -0.1192  0.5796
 9264TIP3   OH249206   1.877   4.430   2.905  0.0909 -0.2418  0.5505
 9264TIP3    H149207   1.824   4.454   2.829  2.3623 -0.5581 -1.1997
 9264TIP3    H249208   1.962   4.471   2.888  0.7932 -0.8078  2.6441
 9265TIP3   OH249209   4.830   3.428  16.638 -0.9846  0.4610 -0.4027
 9265TIP3    H149210   4.895   3.365  16.609  0.2320  1.2259  0.6169
 9265TIP3    H249211   4.747   3.392  16.608 -0.1253 -0.6590 -1.4959
 9266TIP3   OH249212   2.116   0.336  14.947 -0.4238 -0.0390 -0.0845
 9266TIP3    H149213   2.037   0.334  14.892  0.5146 -0.3705 -1.4527
 9266TIP3    H249214   2.147   0.245  14.947  0.7100  0.3431 -0.6689
 9267TIP3   OH249215   3.038   2.586  10.872  0.3888  0.2133  0.1925
 9267TIP3    H149216   2.984   2.665  10.870  1.0772  0.6992  0.7010
 9267TIP3    H249217   3.117   2.609  10.823  0.6123 -0.1449  0.3799
 9268TIP3   OH249218   3.351   0.908  12.082 -0.1653  0.3451 -0.0693
 9268TIP3    H149219   3.324   0.908  12.174 -0.4866  0.4279 -0.1592
 9268TIP3    H249220   3.420   0.842  12.077 -2.0876 -1.7556 -0.3092
 9269TIP3   OH249221   5.282   3.484   4.139 -0.1475  0.2494  0.3164
 9269TIP3    H149222   5.328   3.549   4.192  2.1285  0.1549 -1.4940
 9269TIP3    H249223   5.275   3.524   4.052 -0.6234 -1.0491 -0.2633
 9270TIP3   OH249224   4.320   5.651  12.439 -0.0500  0.2484 -0.2153
 9270TIP3    H149225   4.298   5.693  12.356 -0.5144 -0.1297 -0.2812
 9270TIP3    H249226   4.373   5.716  12.485  2.0509 -0.3351 -1.7020
 9271TIP3   OH249227   6.517   1.913   0.057 -0.2107 -0.0010  0.0873
 9271TIP3    H149228   6.492   1.970  -0.016  0.0920 -0.7583 -0.6234
 9271TIP3    H249229   6.435   1.872   0.085 -0.4329  0.8086  0.6260
 9272TIP3   OH249230   6.150   6.323  10.968  0.3040 -0.6412  0.0064
 9272TIP3    H149231   6.093   6.394  10.998  1.4128 -0.6626  2.2631
 9272TIP3    H249232   6.167   6.343  10.876 -1.5485  0.5529 -0.1047
 9273TIP3   OH249233   4.881   5.586  11.378 -0.9657  0.2441  0.4604
 9273TIP3    H149234   4.859   5.495  11.399 -0.7341 -0.0284 -0.4626
 9273TIP3    H249235   4.828   5.606  11.301 -1.0430  0.9025  0.6869
 9274TIP3   OH249236   1.161   2.973   5.055  0.8019 -0.4407 -0.0551
 9274TIP3    H149237   1.221   2.912   5.011  1.6848 -0.9066  1.7607
 9274TIP3    H249238   1.074   2.940   5.035  1.2003 -0.8585 -1.1509
 9275TIP3   OH249239   0.844   5.080   2.087 -0.5023  0.2113 -0.3311
 9275TIP3    H149240   0.847   5.168   2.126  0.3867  0.4776 -0.9725
 9275TIP3    H249241   0.874   5.022   2.157 -3.5900  0.0867  0.9435
 9276TIP3   OH249242   3.253   1.297  13.469  0.0703 -0.1373  0.3111
 9276TIP3    H149243   3.176   1.319  13.520  0.3978 -0.4003  0.9298
 9276TIP3    H249244   3.318   1.269  13.534  0.6112 -0.1318 -0.2153
 9277TIP3   OH249245   6.213   0.647   3.904  0.3529  0.3700 -0.1556
 9277TIP3    H149246   6.242   0.716   3.964  1.6135 -0.3319  0.0454
 9277TIP3    H249247   6.188   0.574   3.962  1.4968 -0.2783 -0.4613
 9278TIP3   OH249248   5.331   2.961   1.872 -0.3508  0.0321  0.2348
 9278TIP3    H149249   5.404   3.017   1.846 -1.3588  1.3334  0.1496
 9278TIP3    H249250   5.258   3.021   1.885 -1.5838 -1.3041 -0.3057
 9279TIP3   OH249251   5.305   2.352   4.788  0.0253 -0.0894 -0.6150
 9279TIP3    H149252   5.217   2.326   4.762 -0.1293  1.8873 -2.1587
 9279TIP3    H249253   5.351   2.369   4.706  1.0513  1.4228  0.2354
 9280TIP3   OH249254   6.061   0.365  16.364 -0.4012 -0.1204 -0.0830
 9280TIP3    H149255   6.059   0.426  16.438  0.0978 -1.8385  1.3770
 9280TIP3    H249256   5.970   0.335  16.356 -0.5868  0.5565 -0.6121
 9281TIP3   OH249257   1.087   5.300   6.658  0.0239 -0.3843 -0.2040
 9281TIP3    H149258   1.168   5.350   6.655 -0.4898  0.4647 -0.1414
 9281TIP3    H249259   1.018   5.364   6.638 -0.5701 -1.2307 -0.8787
 9282TIP3   OH249260   4.309   3.065   6.377  0.1371  0.1592 -0.2722
 9282TIP3    H149261   4.367   2.991   6.361 -0.1738  0.1658 -1.4345
 9282TIP3    H249262   4.220   3.029   6.370 -0.0251  0.2412  1.0696
 9283TIP3   OH249263   3.621   4.916   4.043  0.2930  0.2296 -0.3851
 9283TIP3    H149264   3.659   4.832   4.067  0.8024  0.3968 -0.5973
 9283TIP3    H249265   3.619   4.915   3.948 -2.6242 -0.8310 -0.3498
 9284TIP3   OH249266   2.483   0.006   0.865  0.1745 -0.6890 -0.1928
 9284TIP3    H149267   2.510   0.068   0.932 -0.3488  0.5445 -1.1093
 9284TIP3    H249268   2.422  -0.052   0.910 -1.6614  1.2927 -0.0302
 9285TIP3   OH249269   1.048   3.737   4.449 -0.4114 -0.0105 -0.3946
 9285TIP3    H149270   1.118   3.671   4.452 -0.1846  0.2742  1.1030
 9285TIP3    H249271   1.029   3.748   4.356  0.9101 -0.7607 -0.7637
 9286TIP3   OH249272   5.439   3.184  11.595  0.1974 -0.3517 -0.4016
 9286TIP3    H149273   5.387   3.213  11.520 -0.0123  1.2941  0.3580
 9286TIP3    H249274   5.507   3.128  11.557 -0.9230 -0.9177 -1.6276
 9287TIP3   OH249275   4.535   2.777  16.456 -0.1627  0.3227  0.3161
 9287TIP3    H149276   4.501   2.748  16.371 -2.9027  1.0284  1.1273
 9287TIP3    H249277   4.497   2.716  16.519  1.5588  0.0282  1.0948
 9288TIP3   OH249278   5.845   1.414   3.114  0.3319  0.0721  0.3974
 9288TIP3    H149279   5.915   1.455   3.062  1.2545 -1.4347  0.4348
 9288TIP3    H249280   5.891   1.370   3.186 -0.3077 -3.6787 -1.3619
 9289TIP3   OH249281   1.663   3.614   1.370  0.3342  0.5860  0.3617
 9289TIP3    H149282   1.737   3.580   1.422 -0.1675 -1.9149 -0.4980
 9289TIP3    H249283   1.692   3.607   1.279 -0.9645 -0.4723  0.0134
 9290TIP3   OH249284   0.826   3.473  15.670 -0.5501 -0.1873 -0.6202
 9290TIP3    H149285   0.838   3.425  15.588 -1.2392 -0.1054 -0.7678
 9290TIP3    H249286   0.732   3.487  15.676 -0.5030 -0.2252  0.2054
 9291TIP3   OH249287   4.071   1.754  14.242  0.6499 -0.1202  0.3242
 9291TIP3    H149288   4.091   1.729  14.332  0.1300 -0.5133  0.3303
 9291TIP3    H249289   4.071   1.850  14.243  1.7206 -0.1145  0.5020
 9292TIP3   OH249290   6.565   2.950  15.789 -0.7843 -0.3085  0.3088
 9292TIP3    H149291   6.510   3.028  15.781 -1.1223 -0.6176 -0.4998
 9292TIP3    H249292   6.629   2.972  15.856 -1.0254  0.5753  0.2557
 9293TIP3   OH249293   5.056   4.218  11.205 -0.4086  0.3803  0.4537
 9293TIP3    H149294   5.099   4.152  11.151 -3.1600 -2.1602  1.2022
 9293TIP3    H249295   5.034   4.173  11.286 -2.7442  2.0645  0.8400
 9294TIP3   OH249296   2.099   3.414   4.095  0.2713  0.1597  0.4394
 9294TIP3    H149297   2.164   3.451   4.036 -0.2796  2.3622  1.1652
 9294TIP3    H249298   2.131   3.435   4.182 -0.8836  0.3877  0.8205
 9295TIP3   OH249299   1.420   6.361   3.403  0.1428 -0.0154  0.2388
 9295TIP3    H149300   1.422   6.266   3.404 -1.6486 -0.0747  0.2186
 9295TIP3    H249301   1.363   6.383   3.329  0.9320  1.0814 -0.0522
 9296TIP3   OH249302   2.002   5.070   2.357  0.2720 -0.4493 -0.6959
 9296TIP3    H149303   2.021   5.061   2.451 -0.1873  1.4683 -0.4130
 9296TIP3    H249304   1.920   5.023   2.345 -0.7657  1.0637  0.2782
 9297TIP3   OH249305   2.389   3.823  14.539  0.0721 -0.0906  0.5613
 9297TIP3    H149306   2.397   3.762  14.613  1.3233 -1.3572 -0.6060
 9297TIP3    H249307   2.475   3.864  14.532  0.2273 -0.6196 -0.7398
 9298TIP3   OH249308   5.261   0.305  11.125  0.2748 -0.1244  0.3568
 9298TIP3    H149309   5.248   0.285  11.032  0.3257  0.6135  0.1909
 9298TIP3    H249310   5.318   0.235  11.157  2.2328  0.9313 -0.7245
 9299TIP3   OH249311   3.678   1.967   5.627  0.1543 -0.1437 -0.0498
 9299TIP3    H149312   3.639   2.047   5.592 -1.5058 -0.7108  0.4641
 9299TIP3    H249313   3.606   1.924   5.673  1.3550 -1.3078  0.7521
 9300TIP3   OH249314   4.137   6.164   0.060  0.2504 -0.2088  0.2148
 9300TIP3    H149315   4.094   6.250   0.066  2.1912  0.8786 -0.8652
 9300TIP3    H249316   4.183   6.154   0.143 -0.8705 -0.7118  0.7830
 9301TIP3   OH249317   3.329   3.600   5.257 -0.0909 -0.6433  0.1067
 9301TIP3    H149318   3.348   3.690   5.233 -0.0354 -1.1933 -2.0293
 9301TIP3    H249319   3.317   3.555   5.174  0.8682 -2.8238  1.1008
 9302TIP3   OH249320   2.506   2.245   4.219 -0.7875  0.6859 -0.2998
 9302TIP3    H149321   2.454   2.169   4.245  0.9575 -1.3277 -2.3968
 9302TIP3    H249322   2.459   2.282   4.145 -1.4798  1.4868  0.5319
 9303TIP3   OH249323   2.647   4.100  11.028 -0.0622  0.1807 -0.7327
 9303TIP3    H149324   2.669   4.024  10.975 -1.1689  0.8833 -2.2164
 9303TIP3    H249325   2.643   4.066  11.118 -0.2761 -1.4429 -1.3455
 9304TIP3   OH249326   0.151   0.100  13.687 -0.5432  0.6314  0.3525
 9304TIP3    H149327   0.080   0.134  13.742 -2.2242 -0.2642 -1.1942
 9304TIP3    H249328   0.188   0.028  13.737  0.3070  2.0645  1.8353
 9305TIP3   OH249329   0.726   5.070   5.667  0.0026 -0.0659  0.4349
 9305TIP3    H149330   0.756   5.032   5.584 -0.3791  0.6244 -0.0282
 9305TIP3    H249331   0.744   5.002   5.732 -1.0563 -1.2188 -0.4361
 9306TIP3   OH249332   2.401   2.955   4.112  0.1882  0.2478 -0.1474
 9306TIP3    H149333   2.481   3.007   4.113 -1.1479  2.3623  0.7034
 9306TIP3    H249334   2.339   3.007   4.061 -1.0853 -0.6430  0.4616
 9307TIP3   OH249335   3.774   0.797  13.474 -0.4279  0.4138 -0.0935
 9307TIP3    H149336   3.723   0.842  13.542 -1.3181  1.5221 -1.4649
 9307TIP3    H249337   3.745   0.706  13.480 -1.8613  0.8427 -0.1787
 9308TIP3   OH249338   3.118   3.197  15.309 -0.4042 -0.0443 -0.8686
 9308TIP3    H149339   3.026   3.225  15.311 -0.9787 -1.9187  2.0464
 9308TIP3    H249340   3.164   3.264  15.359 -0.4286  0.0727 -1.0011
 9309TIP3   OH249341   5.914   6.744  12.605 -0.3387  0.5373 -0.2512
 9309TIP3    H149342   5.842   6.682  12.594  0.0930  0.1735 -1.0867
 9309TIP3    H249343   5.948   6.725  12.693  0.1136 -0.7734 -0.6893
 9310TIP3   OH249344   5.776   4.631   2.946  0.3984  0.2819 -0.4480
 9310TIP3    H149345   5.826   4.712   2.955  1.3389 -0.1671 -1.4911
 9310TIP3    H249346   5.685   4.659   2.945  0.7121  1.3188 -0.6407
 9311TIP3   OH249347   6.110   1.680   4.468 -0.1120 -0.0361 -0.0294
 9311TIP3    H149348   6.125   1.587   4.480 -2.2578 -0.4205 -0.1110
 9311TIP3    H249349   6.198   1.718   4.463  0.7837 -1.9674  0.5093
 9312TIP3   OH249350   3.024   2.362   5.974  0.1820  0.0217 -0.3718
 9312TIP3    H149351   3.002   2.323   5.890 -0.1974  0.6913 -0.5896
 9312TIP3    H249352   2.940   2.372   6.019  0.3865 -0.3760  0.1035
 9313TIP3   OH249353   5.399   3.703   5.559  0.2139 -0.1706  0.3209
 9313TIP3    H149354   5.325   3.731   5.506 -0.5097 -0.4387  1.1885
 9313TIP3    H249355   5.450   3.782   5.573  0.2222 -0.0269 -0.4640
 9314TIP3   OH249356   2.997   5.788  14.223 -0.4822 -0.1305 -0.0265
 9314TIP3    H149357   2.975   5.728  14.295  1.9274  0.1315  0.9613
 9314TIP3    H249358   3.076   5.750  14.184 -0.9242  0.5456 -1.6038
 9315TIP3   OH249359   6.193   0.451   0.977 -0.1794 -0.4134 -0.1748
 9315TIP3    H149360   6.276   0.495   0.957 -0.9146 -0.4030 -3.2990
 9315TIP3    H249361   6.220   0.367   1.015  1.2408  0.2301  0.3063
 9316TIP3   OH249362   0.026   0.735   1.718 -0.2476  0.1784 -0.1707
 9316TIP3    H149363  -0.040   0.732   1.648  0.1235 -1.2488 -0.4753
 9316TIP3    H249364   0.018   0.650   1.762  0.8535  0.3135  0.2916
 9317TIP3   OH249365   1.034   5.940  10.900 -1.0203 -0.1383  0.4625
 9317TIP3    H149366   0.978   5.899  10.834 -1.3476  0.9206  0.0798
 9317TIP3    H249367   1.087   6.003  10.851 -0.2579 -0.3660  0.9930
 9318TIP3   OH249368   0.951   0.285   3.830  0.3548  0.4143 -0.1645
 9318TIP3    H149369   0.908   0.210   3.789 -2.2385  0.8603  1.6294
 9318TIP3    H249370   0.910   0.293   3.916  4.0275  0.9522  1.6434
 9319TIP3   OH249371   6.520   2.403   5.876  0.1341  0.3517 -0.4724
 9319TIP3    H149372   6.508   2.491   5.839 -3.0088  1.2997  2.4734
 9319TIP3    H249373   6.594   2.413   5.936 -0.0487  0.9649 -0.3368
 9320TIP3   OH249374   3.407   0.937   2.409  0.0527  0.0425  0.5082
 9320TIP3    H149375   3.446   0.960   2.493 -0.5858  1.9694  0.2951
 9320TIP3    H249376   3.479   0.945   2.346 -0.3634  2.4335  0.2957
 9321TIP3   OH249377   4.137   6.496  14.227 -0.7551  0.8026  0.4345
 9321TIP3    H149378   4.079   6.534  14.162  0.7495 -0.4397 -1.7073
 9321TIP3    H249379   4.139   6.403  14.205 -0.3718  0.3323  2.3944
 9322TIP3   OH249380   5.090   2.571  10.965 -0.0937 -0.2786 -0.4121
 9322TIP3    H149381   5.116   2.555  10.874 -1.6994  0.5683 -1.0456
 9322TIP3    H249382   5.023   2.506  10.983  0.3049 -0.5219  0.2189
 9323TIP3   OH249383   0.916   1.268   0.501  0.1185 -0.6380 -0.0032
 9323TIP3    H149384   0.937   1.282   0.593 -0.8476 -1.5528  0.3628
 9323TIP3    H249385   0.896   1.355   0.467  1.2428 -0.1924  0.4448
 9324TIP3   OH249386   0.221   1.268  13.101  0.0972 -0.6209  0.2674
 9324TIP3    H149387   0.221   1.346  13.047 -0.2678  0.3675  1.6552
 9324TIP3    H249388   0.129   1.245  13.110  0.2373 -1.5181 -0.5645
 9325TIP3   OH249389   5.974   5.509  12.198  0.1299  0.4427 -0.3751
 9325TIP3    H149390   5.915   5.470  12.133 -0.3465  0.9166 -0.2285
 9325TIP3    H249391   5.919   5.520  12.276  0.7583 -0.3329  0.1816
 9326TIP3   OH249392   2.648   1.545   4.081  0.1138 -0.4609  0.3177
 9326TIP3    H149393   2.666   1.462   4.125 -0.8415 -0.7572  0.1451
 9326TIP3    H249394   2.580   1.525   4.018  1.2556  0.0380 -1.0962
 9327TIP3   OH249395   1.017   1.848   5.628 -0.3500  0.3923  0.2243
 9327TIP3    H149396   1.044   1.930   5.670 -1.0433  1.6022 -1.6231
 9327TIP3    H249397   0.951   1.813   5.687 -1.8876  2.4705 -0.1891
 9328TIP3   OH249398   1.359   2.504  15.035  0.2645 -0.8024  0.0993
 9328TIP3    H149399   1.362   2.444  15.110 -1.1312  0.6008  1.3034
 9328TIP3    H249400   1.266   2.517  15.018  0.5489  1.1236 -0.0817
 9329TIP3   OH249401   4.303   4.400  12.647  0.1268 -0.2865  0.4538
 9329TIP3    H149402   4.218   4.370  12.616  1.2339 -2.1514 -0.8487
 9329TIP3    H249403   4.341   4.324  12.691  1.8681 -0.0107 -0.5373
 9330TIP3   OH249404   4.286   1.114   5.599  0.0636  0.4528 -0.0700
 9330TIP3    H149405   4.200   1.072   5.611  0.1787 -0.1095 -1.1250
 9330TIP3    H249406   4.269   1.185   5.536  0.7094 -0.8189 -1.7098
 9331TIP3   OH249407   2.625   4.025  11.299  0.8674 -0.0646  0.0934
 9331TIP3    H149408   2.557   4.023  11.367  0.4002  0.4744 -0.3475
 9331TIP3    H249409   2.661   4.113  11.303 -1.1115  0.9132 -2.2257
 9332TIP3   OH249410   3.374   0.364   0.643 -0.3338  1.2864  0.3148
 9332TIP3    H149411   3.360   0.310   0.566 -0.2169 -0.1027  1.2455
 9332TIP3    H249412   3.438   0.430   0.615 -1.2066  1.5625 -1.1014
 9333TIP3   OH249413   5.363   6.315  16.887 -0.6623  0.3470  0.2306
 9333TIP3    H149414   5.354   6.275  16.800  0.6128 -1.2458  0.8211
 9333TIP3    H249415   5.334   6.406  16.874 -0.2558  0.1985 -1.9024
 9334TIP3   OH249416   3.253   2.123   6.106  0.2550 -0.4338  0.0404
 9334TIP3    H149417   3.169   2.077   6.120 -0.0346  0.1647  0.2628
 9334TIP3    H249418   3.265   2.177   6.184 -0.7511  1.9439 -1.3911
 9335TIP3   OH249419   5.386   5.654  15.139  0.5814 -0.0231 -0.1927
 9335TIP3    H149420   5.339   5.729  15.175  1.1735 -0.0935  0.7637
 9335TIP3    H249421   5.479   5.674  15.153  0.7798 -0.5723 -0.6574
 9336TIP3   OH249422   6.508   0.559   4.945 -0.4791 -0.2365  0.2397
 9336TIP3    H149423   6.565   0.485   4.927 -1.2038 -0.6173 -0.4825
 9336TIP3    H249424   6.420   0.526   4.930 -0.9470  0.1878  1.8949
 9337TIP3   OH249425   2.908   3.717  12.177 -0.0935 -0.1419  0.2537
 9337TIP3    H149426   2.941   3.687  12.093  0.2074 -0.2927  0.4265
 9337TIP3    H249427   2.848   3.789  12.155  0.9748  0.6816 -0.0083
 9338TIP3   OH249428   5.377   6.285  13.403 -0.1803 -0.7817 -0.1236
 9338TIP3    H149429   5.312   6.266  13.470  0.9319 -0.7905  0.9607
 9338TIP3    H249430   5.459   6.294  13.450  0.9460 -2.5139 -1.6498
 9339TIP3   OH249431   1.923   5.828  12.074  0.2432 -0.2914 -0.3363
 9339TIP3    H149432   1.930   5.738  12.040 -0.4600  0.3531 -2.2017
 9339TIP3    H249433   1.882   5.818  12.160 -1.1874 -1.6338 -1.1565
 9340TIP3   OH249434   4.294   4.974  11.377 -0.1530 -0.2089 -0.5189
 9340TIP3    H149435   4.346   5.025  11.439 -0.5247 -1.1833  0.6209
 9340TIP3    H249436   4.250   4.908  11.431 -0.5094 -1.0599 -1.8211
 9341TIP3   OH249437   2.066   6.392  15.999  0.0431 -0.1054 -0.1033
 9341TIP3    H149438   2.020   6.313  16.026 -0.0868  0.1177  0.3358
 9341TIP3    H249439   2.036   6.408  15.909  0.8106 -1.0965 -0.5382
 9342TIP3   OH249440   3.948   6.468   3.384  0.3852 -0.3048 -0.0896
 9342TIP3    H149441   3.988   6.540   3.435 -1.7900  0.6163  0.3595
 9342TIP3    H249442   3.940   6.503   3.295 -3.1783  1.0990  0.6958
 9343TIP3   OH249443   4.265   2.570  10.267 -0.3223 -0.0247  0.3179
 9343TIP3    H149444   4.208   2.559  10.191 -1.5505  0.3194  1.1607
 9343TIP3    H249445   4.286   2.481  10.294  1.3886 -0.1503 -1.3261
 9344TIP3   OH249446   2.773   1.942   2.453 -0.3890 -0.5137 -0.3077
 9344TIP3    H149447   2.780   1.847   2.458 -2.1935 -0.7125 -1.2600
 9344TIP3    H249448   2.679   1.960   2.457 -0.1493  1.1452 -1.4746
 9345TIP3   OH249449   2.655   2.022  16.330  0.4037 -0.3995 -0.0665
 9345TIP3    H149450   2.736   2.071  16.314  0.8969 -1.5791 -1.2785
 9345TIP3    H249451   2.585   2.083  16.309  0.9447  0.9409  1.8777
 9346TIP3   OH249452   0.563   0.880  15.283  0.4292  0.1257  0.7235
 9346TIP3    H149453   0.471   0.858  15.271  0.2686  0.5549  1.1626
 9346TIP3    H249454   0.571   0.900  15.376  0.6655  1.5181  0.4162
 9347TIP3   OH249455   4.894   5.428  16.520 -0.2371 -0.3380  0.8107
 9347TIP3    H149456   4.938   5.343  16.517  1.4440  0.5351 -0.5272
 9347TIP3    H249457   4.924   5.468  16.601 -0.8592 -0.9125  1.3319
 9348TIP3   OH249458   0.814   2.374   2.111  0.4437 -0.2165 -0.0521
 9348TIP3    H149459   0.769   2.416   2.038  0.8680 -0.9054 -0.7080
 9348TIP3    H249460   0.904   2.362   2.081  0.8624  0.3469  0.9253
 9349TIP3   OH249461   6.339   5.304   1.351 -0.5209 -0.4782  0.0970
 9349TIP3    H149462   6.275   5.301   1.280 -1.2644 -1.9095  0.7955
 9349TIP3    H249463   6.316   5.229   1.407  1.2966 -0.5645  0.7628
 9350TIP3   OH249464   5.650   4.754  12.265 -0.0215 -0.2856 -0.1676
 9350TIP3    H149465   5.616   4.835  12.302  1.1242  0.1025  0.0251
 9350TIP3    H249466   5.638   4.689  12.335  2.1323  0.4448  0.9008
 9351TIP3   OH249467   6.678   6.160  16.260  0.0809  0.2826  0.0731
 9351TIP3    H149468   6.735   6.148  16.184 -0.3907 -1.8435  0.0265
 9351TIP3    H249469   6.737   6.186  16.330  1.0107 -1.2003 -0.1526
 9352TIP3   OH249470   4.977   4.897  17.060 -0.2024 -0.1353 -0.3472
 9352TIP3    H149471   5.061   4.941  17.076  0.1274 -1.0120  0.3730
 9352TIP3    H249472   5.000   4.806  17.045 -1.1355 -0.6337  1.1711
 9353TIP3   OH249473   0.273   0.042   0.369 -0.0258 -0.3620  0.3383
 9353TIP3    H149474   0.294  -0.012   0.445  2.5843 -1.2377 -0.9550
 9353TIP3    H249475   0.347   0.102   0.360 -1.3084  1.1656 -0.2702
 9354TIP3   OH249476   4.745   4.532   5.654 -0.1959  0.0037  0.5666
 9354TIP3    H149477   4.771   4.570   5.739  0.8447  0.5536  0.0154
 9354TIP3    H249478   4.800   4.453   5.646  0.6521  0.6612 -0.1811
 9355TIP3   OH249479   0.523   2.703   0.680 -0.1587  0.2638  0.2154
 9355TIP3    H149480   0.557   2.719   0.768 -0.5369  2.1138  0.0484
 9355TIP3    H249481   0.595   2.724   0.622  0.0563 -0.8555  0.0626
 9356TIP3   OH249482   5.710   1.790   5.058 -0.1401 -0.6053 -0.7419
 9356TIP3    H149483   5.621   1.776   5.092  0.2652 -0.4414  0.4130
 9356TIP3    H249484   5.726   1.884   5.072  0.2373 -0.6479 -0.8981
 9357TIP3   OH249485   3.255   6.302  14.073 -0.2445  0.0219 -0.0813
 9357TIP3    H149486   3.204   6.376  14.105 -1.2092 -0.4790 -0.4455
 9357TIP3    H249487   3.256   6.240  14.146  0.6177  0.4121  0.2463
 9358TIP3   OH249488   0.532   0.711   6.234  0.6264  0.6659  0.0657
 9358TIP3    H149489   0.511   0.792   6.187 -0.5708 -0.4806 -1.4143
 9358TIP3    H249490   0.591   0.663   6.174  3.0425  1.3431  1.8154
 9359TIP3   OH249491   1.069   1.618  17.165 -0.0636  0.1183 -0.9486
 9359TIP3    H149492   1.034   1.529  17.171  0.8264 -0.2024 -0.4715
 9359TIP3    H249493   1.158   1.607  17.133  0.4986  0.7450  0.3597
 9360TIP3   OH249494   3.976   2.345   5.629 -0.1569 -0.0797  0.3329
 9360TIP3    H149495   3.962   2.328   5.722 -0.1091  0.3131  0.4124
 9360TIP3    H249496   3.922   2.280   5.584  1.7834 -1.9635  0.6154
 9361TIP3   OH249497   5.237   0.179   2.580  0.1080  0.2660  0.1991
 9361TIP3    H149498   5.255   0.154   2.670  1.5229  1.9004  0.3913
 9361TIP3    H249499   5.303   0.245   2.559  0.4808 -0.8629 -2.4037
 9362TIP3   OH249500   3.997   4.972  14.939 -0.4082  0.2731  0.0856
 9362TIP3    H149501   3.946   4.937  15.012  0.3305  0.3975  0.6635
 9362TIP3    H249502   3.947   5.048  14.909 -1.2696 -0.4027 -0.2430
 9363TIP3   OH249503   3.224   0.830   1.930  0.6009 -0.7657  0.1816
 9363TIP3    H149504   3.260   0.918   1.930 -0.1221 -0.4598 -0.3411
 9363TIP3    H249505   3.230   0.801   1.839  0.6557 -1.1788  0.3141
 9364TIP3   OH249506   0.982   0.073   4.240 -0.1146 -0.1000  0.1183
 9364TIP3    H149507   1.072   0.043   4.249  0.0357  0.4403  0.4528
 9364TIP3    H249508   0.935  -0.002   4.204  0.1858 -0.8382  1.2263
 9365TIP3   OH249509   4.032   3.548   2.907 -0.1490  0.0180 -0.5213
 9365TIP3    H149510   4.056   3.518   2.994 -1.0024  1.7622  0.3345
 9365TIP3    H249511   4.089   3.499   2.848 -0.7797 -2.4891  0.8844
 9366TIP3   OH249512   5.701   3.856  15.825 -0.0348 -0.2112 -0.0490
 9366TIP3    H149513   5.704   3.861  15.730 -2.2729 -2.1671 -0.2507
 9366TIP3    H249514   5.663   3.770  15.844 -2.7183  1.4548  2.5610
 9367TIP3   OH249515   1.743   2.744   0.918 -0.1245 -1.1987  0.2301
 9367TIP3    H149516   1.760   2.651   0.931  0.3381 -0.7221  3.2485
 9367TIP3    H249517   1.828   2.786   0.931 -0.9815 -0.0587  2.2927
 9368TIP3   OH249518   0.034   2.287   2.809 -0.1823  0.0914 -0.4987
 9368TIP3    H149519  -0.012   2.304   2.891 -0.3326  0.7143 -0.7109
 9368TIP3    H249520   0.114   2.338   2.815 -0.2302  0.1998 -0.7720
 9369TIP3   OH249521   2.517   3.871  11.840 -0.6254 -0.3946 -0.1225
 9369TIP3    H149522   2.535   3.963  11.859 -0.4750 -0.8704  2.1243
 9369TIP3    H249523   2.552   3.858  11.752  1.5182  1.1055  0.4747
 9370TIP3   OH249524   4.200   3.610   5.743 -0.0323  0.5753 -0.0264
 9370TIP3    H149525   4.292   3.588   5.733  0.3215  1.2054  1.7320
 9370TIP3    H249526   4.156   3.527   5.758  0.1746  0.2265 -1.2823
 9371TIP3   OH249527   0.503   3.522   4.150  0.4112 -0.5073 -0.1527
 9371TIP3    H149528   0.542   3.441   4.118  0.7236 -0.8540  1.0634
 9371TIP3    H249529   0.438   3.546   4.084  0.5169 -1.5949 -0.6602
 9372TIP3   OH249530   0.558   3.494  15.667  0.2246 -0.6199  0.8155
 9372TIP3    H149531   0.504   3.416  15.683  0.0823 -0.9674 -1.2880
 9372TIP3    H249532   0.497   3.567  15.668  0.1455 -0.6893  1.3082
 9373TIP3   OH249533   0.400   2.454  11.240  0.3393  0.1764  0.0065
 9373TIP3    H149534   0.403   2.376  11.184  0.6498  0.2030 -0.0186
 9373TIP3    H249535   0.411   2.528  11.179  0.4283  0.2172  0.0711
 9374TIP3   OH249536   4.205   2.144  15.544  0.1439  0.0040 -0.0277
 9374TIP3    H149537   4.215   2.075  15.610 -0.7615 -0.3923 -0.2991
 9374TIP3    H249538   4.127   2.193  15.573  0.5864  0.7106 -0.0192
 9375TIP3   OH249539   3.342   3.125   4.254  0.3178  0.0327  0.1754
 9375TIP3    H149540   3.402   3.199   4.254  0.9063 -0.4352  1.1050
 9375TIP3    H249541   3.295   3.132   4.171  2.7733 -0.5184 -1.2929
 9376TIP3   OH249542   6.213   0.135  15.206  0.2848  0.8952  0.1473
 9376TIP3    H149543   6.162   0.111  15.128 -1.6221  1.2947  1.2345
 9376TIP3    H249544   6.273   0.203  15.176 -0.8723  1.4989 -0.8466
 9377TIP3   OH249545   5.029   6.523  16.513  0.7072 -0.1576 -0.0862
 9377TIP3    H149546   5.074   6.521  16.429  1.7608  0.9951  0.4246
 9377TIP3    H249547   4.940   6.551  16.492  0.6128 -1.0747 -0.9448
 9378TIP3   OH249548   6.774   3.464   4.701 -0.0919  0.1992 -0.5640
 9378TIP3    H149549   6.749   3.460   4.794  1.8247 -0.3304 -0.0260
 9378TIP3    H249550   6.701   3.506   4.657 -0.6508  1.2849  1.3497
 9379TIP3   OH249551   4.718   1.700  13.618  0.4428 -0.5961  0.0545
 9379TIP3    H149552   4.765   1.722  13.537  0.6245 -0.0411  0.3088
 9379TIP3    H249553   4.785   1.668  13.677  0.0821 -2.5305 -0.5446
 9380TIP3   OH249554   1.643   3.689  13.608  0.4071  0.4948 -0.7755
 9380TIP3    H149555   1.604   3.714  13.524  1.3754  0.7189 -1.1645
 9380TIP3    H249556   1.717   3.748  13.619  1.3857 -0.7217 -0.6469
 9381TIP3   OH249557   5.594   0.848   2.415 -0.4428 -0.3718  0.3438
 9381TIP3    H149558   5.643   0.844   2.497 -0.3708 -1.9818  0.2274
 9381TIP3    H249559   5.513   0.800   2.432 -1.2981  0.9439  0.0530
 9382TIP3   OH249560   3.222   6.529   0.014  0.1247 -0.2316  0.0439
 9382TIP3    H149561   3.136   6.558  -0.017  0.5670 -0.0312 -1.0150
 9382TIP3    H249562   3.268   6.503  -0.065  1.4426  0.7239  0.4992
 9383TIP3   OH249563   3.300   5.177   5.679  0.1851  0.1428  0.5621
 9383TIP3    H149564   3.314   5.196   5.586 -0.4610 -0.2196  0.3878
 9383TIP3    H249565   3.373   5.119   5.702 -0.1363 -0.4761  0.0517
 9384TIP3   OH249566   1.237   5.099  15.473 -0.2925  0.1735 -0.2698
 9384TIP3    H149567   1.243   5.013  15.431  1.6004  0.2537 -0.1833
 9384TIP3    H249568   1.326   5.118  15.503 -1.0693  1.3103  1.4213
 9385TIP3   OH249569   6.725   2.711   0.861  0.5091 -0.1623  0.3406
 9385TIP3    H149570   6.661   2.782   0.854  0.4745 -0.1791  0.4934
 9385TIP3    H249571   6.712   2.660   0.781  0.6065  0.0653  0.1808
 9386TIP3   OH249572   1.721   2.920  15.873  0.5057 -0.1061  0.0854
 9386TIP3    H149573   1.766   2.913  15.789  0.2344  0.8521 -0.1550
 9386TIP3    H249574   1.676   3.005  15.869 -0.4030 -0.5367  0.7621
 9387TIP3   OH249575   1.345   2.446   1.424 -0.0638 -0.2049  0.1047
 9387TIP3    H149576   1.425   2.395   1.434  0.0537  0.3228  2.0794
 9387TIP3    H249577   1.318   2.466   1.514 -1.9245  0.3692 -0.5588
 9388TIP3   OH249578   6.043   5.851  11.693  0.2535 -0.2623 -0.0910
 9388TIP3    H149579   6.087   5.773  11.661  2.8707  0.7827  0.8683
 9388TIP3    H249580   6.033   5.837  11.787 -1.0933 -0.2737 -0.2129
 9389TIP3   OH249581   2.236   3.511  12.972  0.5212  0.6303 -0.4503
 9389TIP3    H149582   2.229   3.467  13.057 -1.6196  1.3237 -0.2328
 9389TIP3    H249583   2.329   3.525  12.960  1.0436 -1.6812  0.6502
 9390TIP3   OH249584   0.144   0.726   0.191 -0.6021  0.8156  0.2210
 9390TIP3    H149585   0.176   0.739   0.102 -0.5571 -0.0141  0.1150
 9390TIP3    H249586   0.218   0.746   0.247  0.0479 -0.8327 -0.0126
 9391TIP3   OH249587   2.749   0.066  11.024 -0.3935 -0.2781  0.1483
 9391TIP3    H149588   2.676   0.111  11.066 -1.5346 -2.4452  0.6092
 9391TIP3    H249589   2.753   0.103  10.936  0.2048  2.3134  1.2320
 9392TIP3   OH249590   3.167   3.163   4.918 -0.0299 -0.2123  0.4451
 9392TIP3    H149591   3.154   3.166   4.823 -0.7559 -0.3009  0.5412
 9392TIP3    H249592   3.262   3.165   4.929  0.0992 -1.6290 -0.3272
 9393TIP3   OH249593   3.730   3.362  16.103  0.6214 -0.5443 -0.0182
 9393TIP3    H149594   3.694   3.451  16.097  1.8644  0.0440  0.8364
 9393TIP3    H249595   3.680   3.311  16.040 -1.0025  0.4676  0.4287
 9394TIP3   OH249596   2.171   2.084   3.727 -0.3357  0.1595  0.2562
 9394TIP3    H149597   2.135   2.168   3.757 -0.9975  0.1601 -0.5257
 9394TIP3    H249598   2.120   2.019   3.775 -0.9962  0.1722 -0.4238
 9395TIP3   OH249599   3.630   3.437  11.968  0.5272 -0.3967 -0.5668
 9395TIP3    H149600   3.570   3.465  11.898  1.3885  0.4532 -0.9767
 9395TIP3    H249601   3.574   3.420  12.043 -0.2395  0.2637 -0.9907
 9396TIP3   OH249602   5.045   3.586  15.195  0.0986 -0.0333 -0.0314
 9396TIP3    H149603   4.952   3.591  15.217  0.0614  1.1360 -0.4164
 9396TIP3    H249604   5.047   3.542  15.110 -0.3165  2.2783 -1.2898
 9397TIP3   OH249605   3.997   5.133  12.152 -0.0202  0.6150  0.0940
 9397TIP3    H149606   3.992   5.038  12.164  0.0314  0.6739  0.5916
 9397TIP3    H249607   4.032   5.166  12.235  2.2678  0.8431 -0.9203
 9398TIP3   OH249608   6.102   0.761  15.335 -0.5726  0.2794  0.3765
 9398TIP3    H149609   6.156   0.782  15.411  0.0564  0.6145 -0.1524
 9398TIP3    H249610   6.042   0.693  15.365  0.2399 -0.1955  0.9332
 9399TIP3   OH249611   4.723   3.440  13.906  0.7334 -0.3318  0.3056
 9399TIP3    H149612   4.724   3.415  13.998  0.4937  1.0580  0.7060
 9399TIP3    H249613   4.797   3.500  13.896  0.2620  0.1744 -0.2028
 9400TIP3   OH249614   6.115   1.755   6.427  0.4463  0.0498 -0.2742
 9400TIP3    H149615   6.142   1.711   6.508  0.1446 -1.7506 -1.1496
 9400TIP3    H249616   6.025   1.726   6.413 -0.2128  1.9734 -0.1691
 9401TIP3   OH249617   2.228   4.249   2.392  0.2912  0.0583  0.7375
 9401TIP3    H149618   2.159   4.305   2.429  0.6896  0.4180  0.9357
 9401TIP3    H249619   2.304   4.306   2.386  0.4518 -0.2221  0.1051
 9402TIP3   OH249620   4.723   0.970   5.043  0.6090  0.4226  0.0649
 9402TIP3    H149621   4.703   0.946   5.133 -0.3945 -0.0560 -0.2748
 9402TIP3    H249622   4.665   1.043   5.023  1.2141  0.8848 -0.0216
 9403TIP3   OH249623   2.742   6.101   3.236 -0.0540  0.2230 -0.2422
 9403TIP3    H149624   2.723   6.124   3.327  0.2229 -1.7673  0.3309
 9403TIP3    H249625   2.777   6.182   3.199  0.4208  0.8903  1.5864
 9404TIP3   OH249626   1.035   6.225  16.141  1.0164 -0.5564 -0.1340
 9404TIP3    H149627   1.032   6.153  16.204  1.7863  1.4502  2.2710
 9404TIP3    H249628   1.072   6.298  16.190  0.4923  1.4262 -2.5995
 9405TIP3   OH249629   2.632   4.827  11.756  0.0889  0.4425 -0.1898
 9405TIP3    H149630   2.589   4.821  11.841  0.1557  1.6601 -0.0575
 9405TIP3    H249631   2.719   4.861  11.775 -0.0972  1.2857 -0.7896
 9406TIP3   OH249632   0.773   5.783  15.868  0.1606  0.7973 -0.0923
 9406TIP3    H149633   0.767   5.709  15.929  0.3751 -0.7704 -1.9236
 9406TIP3    H249634   0.864   5.812  15.874 -0.3671  2.1462  1.9966
 9407TIP3   OH249635   2.822   0.302  16.108  0.2731 -0.0158 -0.0205
 9407TIP3    H149636   2.908   0.262  16.125  0.8569  1.3412  0.3287
 9407TIP3    H249637   2.840   0.396  16.108 -0.9444  0.2293 -1.5465
 9408TIP3   OH249638   6.781   4.664  15.839 -0.3552  0.3319 -0.1174
 9408TIP3    H149639   6.781   4.690  15.931  1.4893 -0.9427  0.2706
 9408TIP3    H249640   6.819   4.577  15.839  0.1539  0.5321 -2.1511
 9409TIP3   OH249641   1.287   6.022   1.128  0.2919  0.0853 -0.1164
 9409TIP3    H149642   1.303   6.028   1.034  1.2588  0.4429  0.0695
 9409TIP3    H249643   1.320   6.104   1.163  1.6945 -0.8365  0.7765
 9410TIP3   OH249644   2.217   2.486  15.898  0.4854 -0.4506 -0.2054
 9410TIP3    H149645   2.292   2.447  15.854 -0.7174 -1.1149 -1.7292
 9410TIP3    H249646   2.247   2.502  15.987  2.7514  0.2573 -1.0657
 9411TIP3   OH249647   6.110   2.896   0.516  0.5800  0.2997 -0.1274
 9411TIP3    H149648   6.039   2.867   0.572 -0.1239  2.0820 -0.0745
 9411TIP3    H249649   6.146   2.972   0.560  1.8883  0.0000 -0.6542
 9412TIP3   OH249650   5.495   0.546   2.385  0.2918 -1.0563  0.7281
 9412TIP3    H149651   5.423   0.607   2.370  0.9030 -0.4292  0.2906
 9412TIP3    H249652   5.464   0.463   2.350  0.5570 -0.3029 -1.3832
 9413TIP3   OH249653   2.786   3.815   5.879  0.0176 -0.5444  0.0395
 9413TIP3    H149654   2.844   3.742   5.898  1.9845  0.8857 -0.2527
 9413TIP3    H249655   2.698   3.778   5.881  0.6750 -2.1176  3.8596
 9414TIP3   OH249656   2.316   0.262  13.707 -0.8435  0.2516  0.1166
 9414TIP3    H149657   2.262   0.192  13.671 -1.3219 -0.4468  2.1015
 9414TIP3    H249658   2.397   0.258  13.656 -0.6281 -2.1333  0.5674
 9415TIP3   OH249659   5.435   1.606   2.516 -0.5843  0.3882 -0.4774
 9415TIP3    H149660   5.403   1.629   2.428 -0.9798  0.6455 -0.2663
 9415TIP3    H249661   5.399   1.518   2.532 -0.4146  0.2925 -0.6220
 9416TIP3   OH249662   3.477   0.877  15.494  0.6598  0.3546  0.0385
 9416TIP3    H149663   3.533   0.803  15.469 -2.1494 -1.1786 -2.0392
 9416TIP3    H249664   3.501   0.947  15.434  1.4767  0.2254  0.2185
 9417TIP3   OH249665   6.639   6.194  11.005  0.1641  0.0860 -0.3834
 9417TIP3    H149666   6.676   6.275  10.971 -0.4085  0.2588 -0.5916
 9417TIP3    H249667   6.545   6.200  10.988  0.2494 -1.0796 -1.3379
 9418TIP3   OH249668   5.985   4.570   6.543  0.0870  0.0078 -0.3573
 9418TIP3    H149669   6.006   4.620   6.465  1.9257  1.6067  1.1144
 9418TIP3    H249670   6.027   4.485   6.529  0.4734  0.3109 -1.0707
 9419TIP3   OH249671   1.590   4.952  13.948  0.2482  0.9984  0.3326
 9419TIP3    H149672   1.547   4.869  13.968  0.9170  0.5918  0.0874
 9419TIP3    H249673   1.625   4.982  14.032  0.1909  0.9322  0.3804
 9420TIP3   OH249674   6.512   0.053   1.776  0.0133 -0.3731  0.6428
 9420TIP3    H149675   6.428   0.097   1.770  0.4084  0.2437 -0.5993
 9420TIP3    H249676   6.531   0.024   1.687  0.6408 -1.4111  1.0988
 9421TIP3   OH249677   3.131   3.247   5.378 -0.0537 -0.7290 -0.0654
 9421TIP3    H149678   3.074   3.323   5.363  1.6804  0.2545 -1.8624
 9421TIP3    H249679   3.100   3.211   5.461  0.2899  3.0738  1.8405
 9422TIP3   OH249680   1.936   0.561  11.941  0.5669 -0.1506  0.1995
 9422TIP3    H149681   1.995   0.515  11.881 -0.2667 -1.7629  0.5849
 9422TIP3    H249682   1.886   0.491  11.984 -2.8777  1.2131 -1.4022
 9423TIP3   OH249683   5.131   1.000  16.498 -0.0515 -0.2996 -0.7397
 9423TIP3    H149684   5.038   1.017  16.485 -0.2485 -0.0622  0.9151
 9423TIP3    H249685   5.169   1.085  16.516  0.4046 -0.4632 -0.9290
 9424TIP3   OH249686   4.812   5.532   1.303  0.1773 -0.5633  0.7471
 9424TIP3    H149687   4.793   5.579   1.222  2.0494 -1.2060 -0.0826
 9424TIP3    H249688   4.760   5.578   1.370  0.3173  1.3398 -0.4151
 9425TIP3   OH249689   4.653   5.628  16.762 -0.1152  0.1368  0.4223
 9425TIP3    H149690   4.722   5.694  16.773  0.1763 -0.1862  0.5167
 9425TIP3    H249691   4.605   5.657  16.685 -0.5569  0.9699  0.9966
 9426TIP3   OH249692   4.841   3.657  11.482 -0.5112  0.2270  0.7523
 9426TIP3    H149693   4.823   3.750  11.468 -1.4227  0.2279  1.8130
 9426TIP3    H249694   4.827   3.616  11.397  1.4820  1.2809 -0.1314
 9427TIP3   OH249695   6.063   1.586   6.115  0.0098  0.0110 -0.3138
 9427TIP3    H149696   6.030   1.525   6.181 -1.3936  0.1478 -0.8719
 9427TIP3    H249697   6.152   1.555   6.097 -0.7513 -2.0558 -0.7544
 9428TIP3   OH249698   1.899   5.629  16.322 -0.1717  0.1579  0.7900
 9428TIP3    H149699   1.876   5.597  16.235  1.6389 -1.2667  0.8133
 9428TIP3    H249700   1.821   5.615  16.374 -0.7039 -0.5784 -0.1861
 9429TIP3   OH249701   1.227   6.390   3.191  0.5786  0.5675 -0.3618
 9429TIP3    H149702   1.156   6.339   3.228  0.8640 -0.2774 -0.9573
 9429TIP3    H249703   1.186   6.472   3.164 -0.4660 -0.4484 -1.9663
 9430TIP3   OH249704   4.647   2.430   4.548 -0.0159  0.4163  0.7547
 9430TIP3    H149705   4.631   2.340   4.519 -0.0866  0.8067 -0.4730
 9430TIP3    H249706   4.738   2.430   4.578  0.0718 -0.0028  0.4953
 9431TIP3   OH249707   1.202   5.425   2.363 -0.2191 -0.1912  0.1883
 9431TIP3    H149708   1.124   5.381   2.328  0.4568 -0.7752 -0.6085
 9431TIP3    H249709   1.225   5.490   2.297  1.7347 -2.0622 -1.0541
 9432TIP3   OH249710   1.967   1.763   1.133  0.7326  0.5534 -0.0125
 9432TIP3    H149711   2.038   1.819   1.100  0.3750  0.5801 -0.7406
 9432TIP3    H249712   2.012   1.696   1.185  1.4513 -0.4706 -1.9060
 9433TIP3   OH249713   1.356   2.473  13.169 -0.0372  0.3901 -0.1890
 9433TIP3    H149714   1.287   2.463  13.235  1.3780 -1.4409  1.0466
 9433TIP3    H249715   1.414   2.540  13.205 -0.3366  0.8247 -0.5122
 9434TIP3   OH249716   2.415   5.759  14.954  0.0584  0.2200 -0.5706
 9434TIP3    H149717   2.376   5.808  14.881 -0.1338  0.2412 -0.4546
 9434TIP3    H249718   2.419   5.822  15.026  0.2690  0.2055 -0.5710
 9435TIP3   OH249719   2.486   0.193  16.028  0.2095 -0.2561  0.8308
 9435TIP3    H149720   2.399   0.209  15.989  0.1198 -0.3966  0.9729
 9435TIP3    H249721   2.548   0.226  15.962  0.0194  0.9122  1.2173
 9436TIP3   OH249722   2.734   1.354   0.248  0.1665  0.7595  0.3048
 9436TIP3    H149723   2.660   1.366   0.308 -0.6718  0.5408 -0.6819
 9436TIP3    H249724   2.766   1.265   0.266  0.8974  1.2455  1.4983
 9437TIP3   OH249725   6.726   6.296   3.204 -0.1911 -0.1542  0.0088
 9437TIP3    H149726   6.684   6.370   3.161  0.9108 -0.0608 -0.9266
 9437TIP3    H249727   6.762   6.244   3.133 -0.2559 -1.1670  0.7074
 9438TIP3   OH249728   6.226   3.897   2.557  0.2198  0.2283  0.0471
 9438TIP3    H149729   6.223   3.856   2.470  2.7634  1.4177 -0.6377
 9438TIP3    H249730   6.286   3.841   2.607  0.5424  0.8359  0.3383
 9439TIP3   OH249731   0.029   6.091   2.082 -0.0461 -0.1152 -0.1105
 9439TIP3    H149732   0.081   6.144   2.142 -1.8730  0.7690  0.7331
 9439TIP3    H249733  -0.002   6.153   2.016 -0.2944 -0.5742 -0.4301
 9440TIP3   OH249734   0.784   0.486  16.604 -0.0655  0.1320 -0.4205
 9440TIP3    H149735   0.769   0.420  16.537  1.6550  0.0317 -0.7269
 9440TIP3    H249736   0.786   0.437  16.686 -1.6522  0.1876 -0.3371
 9441TIP3   OH249737   4.960   1.690   5.204  0.4733  0.0479 -0.6859
 9441TIP3    H149738   4.935   1.767   5.255  0.2295 -0.5048  0.0441
 9441TIP3    H249739   4.890   1.627   5.220  1.9599 -1.2659  0.8239
 9442TIP3   OH249740   1.291   3.699  13.333 -0.0255  0.1276 -0.3727
 9442TIP3    H149741   1.294   3.616  13.381 -0.0554 -0.6375 -1.6575
 9442TIP3    H249742   1.313   3.675  13.243 -0.4118  1.4656 -0.8360
 9443TIP3   OH249743   1.409   2.047  14.658 -0.5226  0.3198  0.6984
 9443TIP3    H149744   1.322   2.043  14.697  0.0641 -0.0176  1.9871
 9443TIP3    H249745   1.406   2.125  14.602 -1.6381  0.3218  0.7417
 9444TIP3   OH249746   2.712   1.115   4.441  0.1098  0.1592 -0.0460
 9444TIP3    H149747   2.797   1.093   4.478 -0.4452 -1.1559  0.4782
 9444TIP3    H249748   2.696   1.205   4.468  0.9692  0.1391  0.5276
 9445TIP3   OH249749   1.337   4.208  14.686 -0.6153  0.7234  0.2905
 9445TIP3    H149750   1.242   4.206  14.699 -0.6373  1.0763  0.2020
 9445TIP3    H249751   1.354   4.143  14.619 -0.7325  0.2651  0.7050
 9446TIP3   OH249752   2.289   4.735  13.117 -0.0606  0.4260  0.6736
 9446TIP3    H149753   2.323   4.730  13.206  1.9207  0.9455 -0.0418
 9446TIP3    H249754   2.336   4.809  13.077 -0.4691 -0.2003 -0.9942
 9447TIP3   OH249755   4.765   5.914  11.519  0.0862 -0.2154  0.2201
 9447TIP3    H149756   4.765   6.003  11.483 -0.2333  1.1535  3.4117
 9447TIP3    H249757   4.672   5.893  11.527  0.1413 -0.1423  1.0622
 9448TIP3   OH249758   3.091   3.512  13.103 -0.1429 -0.1937 -0.5148
 9448TIP3    H149759   3.158   3.536  13.167 -0.9203  0.7914 -0.0621
 9448TIP3    H249760   3.046   3.437  13.144 -0.2653  0.0696 -0.1664
 9449TIP3   OH249761   0.739   0.031  16.814  0.0044 -0.5592 -0.4545
 9449TIP3    H149762   0.733   0.126  16.806 -0.1919 -0.6402 -1.2498
 9449TIP3    H249763   0.833   0.014  16.823 -0.0241 -0.2254  0.5831
 9450TIP3   OH249764   6.326   4.203  12.708 -0.2488 -0.3454 -0.0864
 9450TIP3    H149765   6.265   4.220  12.780  1.1936 -0.8036  1.2584
 9450TIP3    H249766   6.361   4.116  12.726 -0.1030 -0.5938 -1.5161
 9451TIP3   OH249767   3.572   4.040   1.398  0.0928 -0.5502 -0.1920
 9451TIP3    H149768   3.489   4.072   1.364 -0.7974 -2.3118  0.2345
 9451TIP3    H249769   3.559   4.038   1.493  1.6659  1.9425  0.1153
 9452TIP3   OH249770   3.262   4.604   2.613  0.4609 -0.1406 -0.1024
 9452TIP3    H149771   3.250   4.510   2.628  1.3399 -0.4329 -1.0901
 9452TIP3    H249772   3.342   4.609   2.560  0.9196  1.2300  0.6898
 9453TIP3   OH249773   0.310   0.594   3.404 -0.3108  0.6545 -0.1165
 9453TIP3    H149774   0.275   0.683   3.409  0.3831  1.0573 -2.1170
 9453TIP3    H249775   0.255   0.549   3.340  0.6760  0.2931 -0.7254
 9454TIP3   OH249776   0.617   5.365  13.820  0.4209  0.4582  0.6703
 9454TIP3    H149777   0.625   5.455  13.852  1.3161  0.9104 -0.7729
 9454TIP3    H249778   0.675   5.361  13.744 -0.8224 -0.8867 -0.2377
 9455TIP3   OH249779   6.521   5.385  12.871 -0.0054 -0.5720  0.3015
 9455TIP3    H149780   6.513   5.301  12.825 -3.4926 -0.0554 -0.1066
 9455TIP3    H249781   6.453   5.383  12.938 -0.5809  2.2065 -0.1474
 9456TIP3   OH249782   2.873   2.101   2.651  0.4951  0.1569 -0.4517
 9456TIP3    H149783   2.859   2.042   2.725 -0.0959  0.2534 -0.4822
 9456TIP3    H249784   2.884   2.043   2.576 -0.4014  0.0848 -0.5358
 9457TIP3   OH249785   2.947   6.695  12.186  0.4743 -0.1281  0.9700
 9457TIP3    H149786   2.958   6.675  12.279  1.2278  1.2989  1.2139
 9457TIP3    H249787   3.036   6.711  12.154  0.5052 -3.3014 -0.6641
 9458TIP3   OH249788   5.184   1.835   2.517  0.2438 -0.0769 -0.0238
 9458TIP3    H149789   5.098   1.799   2.496  0.3179  0.0677 -0.5790
 9458TIP3    H249790   5.237   1.820   2.438  1.5363 -2.6484  1.2867
 9459TIP3   OH249791   2.873   4.230  13.581 -0.2694  0.6555 -0.4280
 9459TIP3    H149792   2.928   4.307  13.588  0.6079  0.0377 -0.4086
 9459TIP3    H249793   2.932   4.161  13.551 -0.6901 -0.3794  1.0371
 9460TIP3   OH249794   2.278   6.322   6.537 -0.5489 -0.5587  0.0628
 9460TIP3    H149795   2.359   6.273   6.549  0.7309  1.8539  1.5343
 9460TIP3    H249796   2.274   6.382   6.612 -2.4848  1.0307 -1.2555
 9461TIP3   OH249797   5.075   1.007   4.180 -0.3948 -0.5188  0.0492
 9461TIP3    H149798   5.138   1.037   4.115  0.5872 -0.5347  0.9821
 9461TIP3    H249799   5.025   1.085   4.203  1.5866  0.2746  1.8499
 9462TIP3   OH249800   5.302   1.952  17.124 -0.0399 -0.1702  0.5270
 9462TIP3    H149801   5.355   1.878  17.153 -0.3953 -0.2307  1.0367
 9462TIP3    H249802   5.246   1.917  17.055 -1.4285 -0.8145  1.9383
 9463TIP3   OH249803   0.829   1.386  11.500  0.3921  0.4721  0.3111
 9463TIP3    H149804   0.756   1.333  11.466 -0.2840  0.8428  1.1577
 9463TIP3    H249805   0.865   1.333  11.571  0.1549  0.8371  0.7046
 9464TIP3   OH249806   4.018   6.226   0.655  0.4145  0.5153 -0.3959
 9464TIP3    H149807   3.955   6.174   0.704  1.2898 -0.5868 -0.4184
 9464TIP3    H249808   4.045   6.295   0.715  2.3417 -1.4839  1.1517
 9465TIP3   OH249809   6.555   4.490   2.981  0.2461  0.2882  0.4913
 9465TIP3    H149810   6.502   4.428   3.031 -0.0153  1.0715  1.2236
 9465TIP3    H249811   6.494   4.561   2.959  1.0937  1.4872  1.8572
 9466TIP3   OH249812   4.367   0.549   5.707  0.5620 -0.6470 -0.1759
 9466TIP3    H149813   4.392   0.508   5.624  0.5422 -1.3070  0.1414
 9466TIP3    H249814   4.315   0.483   5.752  0.3393 -0.1894  0.2447
 9467TIP3   OH249815   4.110   2.289  12.844 -0.4839 -0.0400 -0.4751
 9467TIP3    H149816   4.184   2.350  12.849 -1.1654  0.7677 -0.2225
 9467TIP3    H249817   4.151   2.205  12.826  0.5913  0.2015  0.7502
 9468TIP3   OH249818   0.501   2.576  15.530 -0.6004 -0.1778 -0.1922
 9468TIP3    H149819   0.504   2.545  15.621  2.6997 -0.3030 -0.2738
 9468TIP3    H249820   0.408   2.578  15.508 -1.3324 -2.1673  2.4956
 9469TIP3   OH249821   2.915   2.263   2.405  0.4827 -0.4207  0.0048
 9469TIP3    H149822   2.996   2.267   2.355  0.6533 -0.1448  0.3026
 9469TIP3    H249823   2.941   2.230   2.491 -0.1683 -3.2595 -0.8338
 9470TIP3   OH249824   0.108   1.404  10.957  0.7634 -0.1246  0.3458
 9470TIP3    H149825   0.110   1.310  10.972  0.9634 -0.1386  0.2282
 9470TIP3    H249826   0.192   1.424  10.915  0.3655 -0.0165 -0.3872
 9471TIP3   OH249827   4.515   1.114  16.610  0.2371  0.1077  0.2453
 9471TIP3    H149828   4.510   1.041  16.671 -0.4003 -0.8682 -0.9655
 9471TIP3    H249829   4.451   1.177  16.643 -0.5756 -0.6967  0.2156
 9472TIP3   OH249830   3.528   4.735   2.855  1.0344  0.0463 -0.3873
 9472TIP3    H149831   3.456   4.672   2.862  0.3807  0.9515  1.2709
 9472TIP3    H249832   3.512   4.781   2.773  0.2319 -0.3633 -0.4619
 9473TIP3   OH249833   5.742   2.100   5.513  0.2641 -0.1954 -0.6710
 9473TIP3    H149834   5.805   2.172   5.523  1.1969 -1.1279  0.2790
 9473TIP3    H249835   5.681   2.112   5.585  1.1850 -1.1103  0.2714
 9474TIP3   OH249836   4.760   4.267   2.130  0.7609 -0.3974  0.1728
 9474TIP3    H149837   4.802   4.264   2.216  0.7447 -4.1297  0.1675
 9474TIP3    H249838   4.670   4.296   2.148  0.6996 -1.3197  1.4886
 9475TIP3   OH249839   6.642   5.538   4.948  0.4093 -0.4725  0.1507
 9475TIP3    H149840   6.643   5.630   4.976 -1.6497  0.3202 -2.1262
 9475TIP3    H249841   6.734   5.514   4.938  0.9636  1.6171 -0.0066
 9476TIP3   OH249842   5.861   6.541  12.833 -0.0540  0.1261  0.2723
 9476TIP3    H149843   5.868   6.475  12.764 -0.9876  1.8982 -1.5890
 9476TIP3    H249844   5.934   6.522  12.892  0.3774 -1.8455 -0.8452
 9477TIP3   OH249845   6.612   0.384  12.184 -0.2853  0.2483  0.3385
 9477TIP3    H149846   6.585   0.476  12.187  0.2868  0.3858  2.4893
 9477TIP3    H249847   6.546   0.338  12.237  1.3869 -0.0196  2.2494
 9478TIP3   OH249848   5.907   2.842  14.208 -0.0830  0.0269 -0.4473
 9478TIP3    H149849   5.906   2.815  14.116  0.2048  0.6373 -0.6292
 9478TIP3    H249850   5.995   2.876  14.222 -0.3000  0.4398 -0.0888
 9479TIP3   OH249851   4.654   6.383  11.481  0.3280  0.2050 -0.1359
 9479TIP3    H149852   4.608   6.464  11.461  1.2387  1.0010  0.9256
 9479TIP3    H249853   4.591   6.331  11.531  0.1135  0.6938  0.0987
 9480TIP3   OH249854   0.763   3.698  14.023  0.1806 -0.0305  0.7934
 9480TIP3    H149855   0.845   3.705  14.073 -0.8252 -1.6348  2.7303
 9480TIP3    H249856   0.729   3.611  14.045 -1.6547  0.3137 -0.6129
 9481TIP3   OH249857   2.855   3.670   5.550 -0.4885  0.3739  0.5133
 9481TIP3    H149858   2.783   3.633   5.601 -1.0642  0.5128 -0.1966
 9481TIP3    H249859   2.828   3.661   5.459 -0.4877  2.2253  0.3073
 9482TIP3   OH249860   1.427   1.241  15.032 -0.2295 -0.5222 -0.7696
 9482TIP3    H149861   1.382   1.294  15.097  0.1351 -0.1103 -0.8542
 9482TIP3    H249862   1.446   1.158  15.077 -0.2556 -0.3552 -0.4532
 9483TIP3   OH249863   3.684   3.311   3.305  0.6417  0.0243 -0.3670
 9483TIP3    H149864   3.591   3.300   3.285  0.0885 -1.2955  2.6525
 9483TIP3    H249865   3.729   3.267   3.233 -1.0593  0.4767 -1.7540
 9484TIP3   OH249866   0.852   1.391  13.817  0.1843  0.2253 -0.4438
 9484TIP3    H149867   0.915   1.339  13.767 -0.0290  0.8452 -1.3543
 9484TIP3    H249868   0.906   1.437  13.882  0.6665  0.6652 -1.1479
 9485TIP3   OH249869   3.503   3.220   2.579 -0.2401 -0.1217 -0.1797
 9485TIP3    H149870   3.468   3.200   2.492 -0.3606 -2.6437  0.4126
 9485TIP3    H249871   3.439   3.184   2.640  1.0876 -0.6554  0.9430
 9486TIP3   OH249872   4.681   5.521   3.167 -0.2440  0.3576 -0.7150
 9486TIP3    H149873   4.694   5.511   3.262 -4.2355  1.2471  0.0077
 9486TIP3    H249874   4.693   5.433   3.132  0.7823 -0.0778  0.6583
 9487TIP3   OH249875   4.272   1.476   2.212  0.1530 -0.1911 -0.0789
 9487TIP3    H149876   4.246   1.395   2.167 -0.4942 -0.5019  0.8247
 9487TIP3    H249877   4.212   1.542   2.178 -0.2699 -0.4047  0.2404
 9488TIP3   OH249878   5.693   3.366   3.631 -0.2045  0.1711  0.3537
 9488TIP3    H149879   5.655   3.279   3.626  0.4243  0.0068 -2.0514
 9488TIP3    H249880   5.710   3.391   3.540  0.4648  2.4342  1.0474
 9489TIP3   OH249881   4.273   3.017   4.509  0.0668 -0.3216 -0.8565
 9489TIP3    H149882   4.343   3.069   4.549  0.3186  0.0411 -1.7435
 9489TIP3    H249883   4.309   2.929   4.503  0.5728 -0.0751 -1.5749
 9490TIP3   OH249884   6.006   0.966   2.555  0.0619 -0.1631 -0.1891
 9490TIP3    H149885   6.048   1.034   2.608  1.4897  1.0319 -2.7784
 9490TIP3    H249886   6.001   0.890   2.614  1.4792  1.1471  1.6929
 9491TIP3   OH249887   0.210   3.203   0.004 -0.2636 -0.3224  0.2194
 9491TIP3    H149888   0.298   3.172  -0.014 -0.1938 -0.4090  0.7058
 9491TIP3    H249889   0.153   3.145  -0.046  0.0290  0.6506 -1.2791
 9492TIP3   OH249890   4.884   0.762   4.951 -0.3691 -0.4175 -0.2415
 9492TIP3    H149891   4.873   0.707   5.029  0.3115  0.1902  0.2934
 9492TIP3    H249892   4.816   0.829   4.959 -2.5321 -2.3459 -1.9397
 9493TIP3   OH249893   1.162   5.172   5.115  0.3835 -0.2101 -0.7494
 9493TIP3    H149894   1.176   5.230   5.041  1.5738  1.1414  0.5048
 9493TIP3    H249895   1.229   5.104   5.107  0.1428 -0.3883 -1.2279
 9494TIP3   OH249896   0.465   6.654  14.637 -0.4149  0.4344  0.4397
 9494TIP3    H149897   0.479   6.740  14.678  4.0670 -0.0185  0.1334
 9494TIP3    H249898   0.427   6.601  14.706 -0.7216  1.9596  1.4709
 9495TIP3   OH249899   5.712   1.367   1.371  0.0497 -0.2561 -0.0280
 9495TIP3    H149900   5.739   1.278   1.392 -0.0495  0.2918  2.6289
 9495TIP3    H249901   5.751   1.384   1.285 -0.5068 -3.0652 -0.8775
 9496TIP3   OH249902   0.057   0.646  16.796  0.0516 -0.0315 -0.0882
 9496TIP3    H149903   0.020   0.583  16.733  0.8754 -0.9120  0.2841
 9496TIP3    H249904   0.152   0.634  16.788  0.1976  0.7865  0.3841
 9497TIP3   OH249905   5.644   1.648   2.698 -0.0333 -0.5928  0.0107
 9497TIP3    H149906   5.579   1.646   2.627 -0.1973 -1.4400  0.1790
 9497TIP3    H249907   5.596   1.621   2.776  0.1951  0.1461  0.4142
 9498TIP3   OH249908   2.861   0.960  13.964 -0.2582 -0.0961 -0.1510
 9498TIP3    H149909   2.849   0.931  14.054 -0.2161  0.8060  0.1497
 9498TIP3    H249910   2.773   0.954  13.926 -0.6142  1.1549  0.4474
 9499TIP3   OH249911   5.195   2.606  17.001 -0.5997 -0.3855 -0.4279
 9499TIP3    H149912   5.265   2.670  16.989  0.8280 -1.9871 -0.7820
 9499TIP3    H249913   5.131   2.628  16.934  0.0713  0.4115 -0.8190
 9500TIP3   OH249914   0.122   3.856  16.105 -0.1921  0.3219  0.1481
 9500TIP3    H149915   0.112   3.829  16.196 -3.0616  0.3221 -0.1327
 9500TIP3    H249916   0.118   3.952  16.107 -1.4071  0.2850 -0.0802
 9501TIP3   OH249917   2.318   6.126  15.404 -0.9448  0.3833 -0.1351
 9501TIP3    H149918   2.317   6.058  15.471  0.7496 -0.7365 -1.2069
 9501TIP3    H249919   2.231   6.125  15.366 -0.7032 -1.7505 -0.6698
 9502TIP3   OH249920   5.790   6.202  15.636  0.2697 -0.2171 -0.1989
 9502TIP3    H149921   5.702   6.167  15.627 -0.7157  2.5922 -2.2417
 9502TIP3    H249922   5.783   6.268  15.705  0.6419  0.4471 -0.7947
 9503TIP3   OH249923   6.761   2.219  14.202 -0.5185  0.2320 -0.3472
 9503TIP3    H149924   6.692   2.275  14.237 -0.3468  0.2356 -0.0150
 9503TIP3    H249925   6.837   2.238  14.256 -0.8970 -1.5391  0.8615
 9504TIP3   OH249926   5.872   2.099   3.237  0.0053 -0.1592  0.0439
 9504TIP3    H149927   5.808   2.170   3.228  0.5373  0.6921  2.6798
 9504TIP3    H249928   5.952   2.142   3.266  1.7287 -1.2823 -2.8177
 9505TIP3   OH249929   2.542   5.951   4.403  0.0538  0.2968  0.7689
 9505TIP3    H149930   2.611   5.928   4.342  0.5275  0.4693  1.2327
 9505TIP3    H249931   2.561   6.041   4.428  0.5324 -0.1407  2.0384
 9506TIP3   OH249932   2.968   6.201  13.822 -0.2555  0.0505  0.2220
 9506TIP3    H149933   3.017   6.249  13.756 -0.5784  1.5341  1.0397
 9506TIP3    H249934   3.011   6.115  13.826  1.6622  0.9800  0.2238
 9507TIP3   OH249935   6.455   1.163  16.493  0.1166 -0.2680  0.2475
 9507TIP3    H149936   6.449   1.068  16.485 -0.4066 -0.4111  2.2431
 9507TIP3    H249937   6.521   1.188  16.429 -0.7271 -1.8157 -1.2886
 9508TIP3   OH249938   1.593   3.752  17.224 -0.0148 -0.2028  0.5374
 9508TIP3    H149939   1.646   3.726  17.299  0.0563  1.0606  0.9264
 9508TIP3    H249940   1.505   3.766  17.260  0.2002  1.1849  0.5382
 9509TIP3   OH249941   1.052   0.118   5.397  0.6853  0.3630 -0.3463
 9509TIP3    H149942   1.040   0.213   5.394  0.1968  0.2757 -1.3600
 9509TIP3    H249943   1.046   0.090   5.305  0.7481 -0.6536 -0.0457
 9510TIP3   OH249944   1.823   2.646   2.078  0.2468 -0.3980 -0.4208
 9510TIP3    H149945   1.792   2.640   1.988 -1.5115 -1.0738  0.1991
 9510TIP3    H249946   1.751   2.690   2.125  0.3107 -1.8019  1.0315
 9511TIP3   OH249947   4.180   1.966  17.178 -0.3332  0.5811  0.1992
 9511TIP3    H149948   4.232   1.886  17.170  0.6710  1.1631  0.8055
 9511TIP3    H249949   4.125   1.951  17.255 -0.7196  0.1535 -0.1631
 9512TIP3   OH249950   4.718   5.639   5.824 -0.3865 -0.1751  0.0589
 9512TIP3    H149951   4.772   5.570   5.785 -0.1439 -0.5496  1.0468
 9512TIP3    H249952   4.781   5.705   5.854 -0.6465  0.8084 -1.4632
 9513TIP3   OH249953   5.817   5.069  14.709  0.0528 -0.4572  0.1917
 9513TIP3    H149954   5.739   5.075  14.654  1.2426  1.6678 -1.3360
 9513TIP3    H249955   5.783   5.058  14.798 -1.9496 -1.0008 -0.6170
 9514TIP3   OH249956   5.510   6.547   4.567 -0.3511 -0.2448  0.0208
 9514TIP3    H149957   5.606   6.551   4.573 -0.2705 -1.8347  0.1548
 9514TIP3    H249958   5.479   6.585   4.649  0.2293 -1.5860  0.8810
 9515TIP3   OH249959   4.391   5.497  12.128  0.5026  0.5095  0.4528
 9515TIP3    H149960   4.326   5.567  12.125 -0.1907 -0.0887  1.1770
 9515TIP3    H249961   4.350   5.424  12.080  1.3812  0.7219 -0.6489
 9516TIP3   OH249962   5.322   3.147   2.718  0.0921 -0.1589  0.3147
 9516TIP3    H149963   5.284   3.212   2.659 -1.6694 -2.4753 -1.1853
 9516TIP3    H249964   5.377   3.092   2.662 -1.9289 -2.6346  0.6859
 9517TIP3   OH249965   1.237   6.730  16.568  0.6540 -0.3564 -0.1907
 9517TIP3    H149966   1.324   6.752  16.602  0.3510 -1.6657  1.5098
 9517TIP3    H249967   1.186   6.706  16.645 -0.6476 -1.5264 -1.3678
 9518TIP3   OH249968   1.241   5.647   0.657  0.8828 -0.0188 -0.0281
 9518TIP3    H149969   1.237   5.664   0.751  0.9915 -0.1970  0.0098
 9518TIP3    H249970   1.325   5.603   0.645  0.2585 -1.2385 -0.0110
 9519TIP3   OH249971   3.475   5.009   1.993  0.4565 -0.2081  0.0652
 9519TIP3    H149972   3.463   4.973   1.905 -2.3794 -0.4462  0.5322
 9519TIP3    H249973   3.524   4.941   2.040 -0.6933 -1.4023 -0.4412
 9520TIP3   OH249974   4.411   1.260  12.787 -0.3064  0.1811 -0.5507
 9520TIP3    H149975   4.349   1.265  12.714 -1.5282 -1.0196  0.3885
 9520TIP3    H249976   4.453   1.174  12.777  1.3610  1.0524 -1.2801
 9521TIP3   OH249977   5.714   6.200   2.102  0.4850 -0.0449 -1.2777
 9521TIP3    H149978   5.628   6.159   2.112  0.8113 -0.2042  1.2177
 9521TIP3    H249979   5.695   6.292   2.085 -0.2144  0.1548  0.4192
 9522TIP3   OH249980   6.049   1.496  15.958 -0.4735  0.0064 -0.3787
 9522TIP3    H149981   6.004   1.570  15.998  1.9741  0.6893  1.2723
 9522TIP3    H249982   6.044   1.426  16.024  1.5362  0.3591  0.1823
 9523TIP3   OH249983   1.651   4.531  15.721 -0.1250 -0.0039  0.2351
 9523TIP3    H149984   1.682   4.526  15.630 -1.2504  0.4326 -0.1838
 9523TIP3    H249985   1.576   4.590  15.717 -1.7768 -2.0196  1.0199
 9524TIP3   OH249986   4.729   4.896   4.070  0.0277  0.0146  0.3557
 9524TIP3    H149987   4.733   4.941   4.154  0.6625  0.5485  0.0372
 9524TIP3    H249988   4.813   4.849   4.063 -0.4139 -0.8022  0.4526
 9525TIP3   OH249989   5.676   6.553   1.823  0.2691 -0.2087  0.2227
 9525TIP3    H149990   5.721   6.609   1.886 -0.6058  1.2297 -0.4084
 9525TIP3    H249991   5.724   6.565   1.741 -1.0804  1.1259 -0.3874
 9526TIP3   OH249992   4.708   3.189  16.336 -0.3044 -0.4471  0.1692
 9526TIP3    H149993   4.715   3.283  16.320 -0.9018 -0.2899  0.8292
 9526TIP3    H249994   4.687   3.152  16.250 -2.6715  0.3097  0.3871
 9527TIP3   OH249995   0.088   3.960   5.129 -0.0956  0.1727 -0.0431
 9527TIP3    H149996   0.068   3.948   5.222  0.6470 -0.7554  0.0075
 9527TIP3    H249997   0.171   4.007   5.127  0.0241 -0.0450 -0.2346
 9528TIP3   OH249998   2.657   2.651   3.302  0.3440  0.0466  0.7422
 9528TIP3    H149999   2.619   2.703   3.232  0.5785 -0.7172  0.0407
 9528TIP3    H250000   2.582   2.606   3.342 -0.0033  1.7653  2.0786
 9529TIP3   OH250001   3.912   5.254   3.805 -0.3606  0.0964 -0.2794
 9529TIP3    H150002   3.837   5.286   3.856 -1.5476 -0.4330 -1.6410
 9529TIP3    H250003   3.924   5.163   3.833 -0.3307  0.1351 -0.1684
 9530TIP3   OH250004   2.666   0.738  11.953 -0.1631 -0.2181  0.3453
 9530TIP3    H150005   2.688   0.651  11.986 -2.0071 -1.5681 -1.7875
 9530TIP3    H250006   2.595   0.768  12.010 -1.7593 -1.5486 -0.8943
 9531TIP3   OH250007   2.342   4.703  16.315  0.2930 -0.2860 -0.3625
 9531TIP3    H150008   2.283   4.778  16.310  1.2490  0.3988 -1.6592
 9531TIP3    H250009   2.295   4.639  16.368 -1.0252  0.7781 -0.2220
 9532TIP3   OH250010   1.605   5.834   3.017  0.0744  0.4345 -0.1184
 9532TIP3    H150011   1.651   5.777   3.079 -1.7159 -0.3587  0.5029
 9532TIP3    H250012   1.513   5.826   3.041 -0.4348  1.6813 -1.6155
 9533TIP3   OH250013   3.821   1.198  14.023 -0.1507  0.3780  0.2463
 9533TIP3    H150014   3.754   1.213  13.957 -0.7534 -1.8469  0.3270
 9533TIP3    H250015   3.830   1.282  14.068 -1.9048  1.0616 -0.6555
 9534TIP3   OH250016   1.258   0.773  14.524  0.1840 -0.7890  0.1861
 9534TIP3    H150017   1.204   0.836  14.573  1.7927  0.7425  0.0418
 9534TIP3    H250018   1.288   0.711  14.590  0.4632 -0.0619  0.7484
 9535TIP3   OH250019   0.994   5.124  12.564 -0.2841 -0.4978 -0.1309
 9535TIP3    H150020   0.958   5.035  12.569 -1.0042 -0.4029 -2.6517
 9535TIP3    H250021   0.920   5.181  12.585  0.0860 -0.4730  1.1290
 9536TIP3   OH250022   4.137   4.608   1.469 -0.1394  0.4419 -0.4907
 9536TIP3    H150023   4.063   4.602   1.409 -1.5533 -0.0330  1.2541
 9536TIP3    H250024   4.153   4.517   1.496 -0.8830  0.8681  1.4555
 9537TIP3   OH250025   5.899   2.204   5.895 -0.1591 -0.2246 -0.2176
 9537TIP3    H150026   5.804   2.201   5.907  0.0801 -1.4289  1.4900
 9537TIP3    H250027   5.930   2.121   5.932  1.9321  1.7476  2.6217
 9538TIP3   OH250028   0.219   0.330  16.997 -0.1320  0.1331 -0.4574
 9538TIP3    H150029   0.258   0.255  17.043 -0.7239 -0.3295 -0.7066
 9538TIP3    H250030   0.221   0.305  16.905 -3.0778 -0.8801 -0.2929
 9539TIP3   OH250031   2.039   6.561   2.174  0.2569  0.1414 -0.0600
 9539TIP3    H150032   2.131   6.588   2.180 -0.0867  1.1290  1.0081
 9539TIP3    H250033   2.041   6.466   2.182  1.3393 -0.0062 -1.9067
 9540TIP3   OH250034   0.408   5.520   5.145 -0.7491 -0.3124 -0.0060
 9540TIP3    H150035   0.388   5.596   5.090 -0.1000 -0.2922 -0.2151
 9540TIP3    H250036   0.478   5.474   5.098  0.1296 -0.0450  1.0240
 9541TIP3   OH250037   4.050   2.422   0.939  0.2433 -0.0219  0.2138
 9541TIP3    H150038   4.018   2.332   0.930 -0.1492 -0.1221  2.3433
 9541TIP3    H250039   4.138   2.413   0.974  0.2606  0.4140  0.2854
 9542TIP3   OH250040   1.120   4.086   3.471  0.5190 -0.4702  0.0666
 9542TIP3    H150041   1.045   4.137   3.501  1.4217  0.4779  0.7454
 9542TIP3    H250042   1.139   4.027   3.544 -1.4662 -2.8813 -1.3007
 9543TIP3   OH250043   5.935   1.695  16.265  0.4186  0.1641 -0.0999
 9543TIP3    H150044   5.929   1.600  16.274 -0.4079  0.0475 -1.7365
 9543TIP3    H250045   5.964   1.725  16.351 -0.6927 -1.4516  0.8724
 9544TIP3   OH250046   6.381   2.635   2.861  0.1783  0.4384 -0.2834
 9544TIP3    H150047   6.389   2.694   2.786  2.2104  0.1463 -0.3292
 9544TIP3    H250048   6.433   2.558   2.836 -1.3199 -0.7866  0.3413
 9545TIP3   OH250049   6.073   3.047  16.345 -0.0403 -0.0193 -0.1457
 9545TIP3    H150050   6.019   2.971  16.367  0.5611 -0.3813  0.0856
 9545TIP3    H250051   6.022   3.095  16.280 -0.9219 -0.0295  0.5309
 9546TIP3   OH250052   3.409   3.235   0.280 -0.0064 -0.4482  0.2439
 9546TIP3    H150053   3.461   3.155   0.279  0.6644 -0.0338 -2.1712
 9546TIP3    H250054   3.425   3.275   0.194  0.1854  2.6037  1.6207
 9547TIP3   OH250055   4.055   0.814   4.252  0.1527  0.3228  0.5768
 9547TIP3    H150056   4.140   0.855   4.263 -0.4984  1.4591  1.4857
 9547TIP3    H250057   4.045   0.757   4.328  0.4256 -0.4086  0.0717
 9548TIP3   OH250058   0.900   5.147   1.455  0.4360  0.9053  0.2260
 9548TIP3    H150059   0.917   5.242   1.457  1.0684  0.7852  1.6510
 9548TIP3    H250060   0.893   5.126   1.363 -0.3384  2.4625 -0.0903
 9549TIP3   OH250061   3.470   1.373  15.992  0.6610 -0.0810 -0.1174
 9549TIP3    H150062   3.502   1.432  15.925  0.3789  1.1121  0.7825
 9549TIP3    H250063   3.375   1.377  15.984  0.6486 -0.8311 -0.4015
 9550TIP3   OH250064   3.103   4.730   4.837 -0.3604  0.1042  0.3080
 9550TIP3    H150065   3.143   4.749   4.921 -1.4529 -0.0770  0.8799
 9550TIP3    H250066   3.100   4.814   4.792 -2.2975  0.7349  1.5667
 9551TIP3   OH250067   2.676   6.481   2.209 -0.0656  0.2280 -0.0859
 9551TIP3    H150068   2.619   6.558   2.205  0.6857  0.7874 -0.1821
 9551TIP3    H250069   2.763   6.517   2.223  0.2725 -0.6214  0.0138
 9552TIP3   OH250070   0.548   5.909   5.876 -0.4652  0.1686  0.4815
 9552TIP3    H150071   0.608   5.928   5.948 -1.0651  0.0134  1.0319
 9552TIP3    H250072   0.475   5.969   5.890 -0.0757  0.9260 -0.6542
 9553TIP3   OH250073   5.414   5.000   5.400  0.1184 -0.0084  0.4053
 9553TIP3    H150074   5.479   5.047   5.348 -1.8717  1.1084 -1.1199
 9553TIP3    H250075   5.397   4.920   5.350 -0.0511 -0.0762  0.5729
 9554TIP3   OH250076   3.879   0.476   1.416 -0.1222  0.2712  0.2904
 9554TIP3    H150077   3.807   0.536   1.394 -1.5724 -0.4121  2.9682
 9554TIP3    H250078   3.860   0.397   1.365 -0.1024  0.8242 -0.5928
 9555TIP3   OH250079   5.532   3.090   5.480 -0.0122 -0.3274 -0.5374
 9555TIP3    H150080   5.475   3.121   5.410 -1.6530 -0.6364  0.6486
 9555TIP3    H250081   5.533   2.995   5.469  1.5751 -0.2297 -1.5180
 9556TIP3   OH250082   3.845   2.103   4.052 -0.0629 -0.2816 -0.1958
 9556TIP3    H150083   3.927   2.056   4.068  0.7398  0.2051 -2.6927
 9556TIP3    H250084   3.855   2.140   3.965 -3.1529 -0.6376 -0.7674
 9557TIP3   OH250085   1.131   3.743   4.738 -0.1266 -0.3219 -0.3027
 9557TIP3    H150086   1.049   3.695   4.751 -0.7493  0.4379 -1.3613
 9557TIP3    H250087   1.129   3.768   4.646  0.0408  2.0305  0.3166
 9558TIP3   OH250088   4.239   0.967   4.727  0.0774  0.0842  0.1339
 9558TIP3    H150089   4.239   0.909   4.803  0.2872 -0.9123 -0.6250
 9558TIP3    H250090   4.331   0.977   4.704  0.0379  0.6701  0.2220
 9559TIP3   OH250091   1.513   3.431  14.014  0.0166 -0.0289 -0.6325
 9559TIP3    H150092   1.583   3.446  13.951  0.0642 -1.2567 -0.8937
 9559TIP3    H250093   1.541   3.352  14.062 -0.2462  0.6082  0.5943
 9560TIP3   OH250094   0.616   0.065  16.059  0.2219  0.1528  0.2564
 9560TIP3    H150095   0.525   0.053  16.031  0.0727 -0.4639  0.9890
 9560TIP3    H250096   0.661   0.094  15.980 -0.1287 -1.8551 -0.7217
 9561TIP3   OH250097   5.904   5.467   3.567 -0.0562  0.1897  0.8368
 9561TIP3    H150098   5.990   5.452   3.606 -0.3515 -0.6478  1.1812
 9561TIP3    H250099   5.865   5.380   3.560 -0.8189  0.5467  0.5469
 9562TIP3   OH250100   4.176   3.996   2.718 -0.2286 -0.5979 -0.0544
 9562TIP3    H150101   4.150   3.920   2.770 -2.5377  0.2574  0.0921
 9562TIP3    H250102   4.101   4.055   2.721  0.7511  0.8212 -1.8298
 9563TIP3   OH250103   0.212   5.115  14.544 -0.0398 -0.2989 -0.5649
 9563TIP3    H150104   0.207   5.171  14.467  0.9320  0.8268  0.1696
 9563TIP3    H250105   0.218   5.177  14.617 -1.5284 -1.3351  0.4622
 9564TIP3   OH250106   6.780   2.202  16.424  0.9039  0.2618  0.5119
 9564TIP3    H150107   6.703   2.183  16.371  1.7993  0.5702 -0.9567
 9564TIP3    H250108   6.801   2.120  16.468 -0.7096  0.3872  1.5523
 9565TIP3   OH250109   2.516   0.902  16.186 -0.0719  0.0104 -0.2703
 9565TIP3    H150110   2.503   0.997  16.187  0.0809  0.0470 -1.1922
 9565TIP3    H250111   2.537   0.882  16.094 -0.5870 -0.9751 -0.1777
 9566TIP3   OH250112   5.132   0.045  13.153 -0.9923 -0.3101 -0.3599
 9566TIP3    H150113   5.071  -0.015  13.110 -0.7299 -0.6154 -0.3100
 9566TIP3    H250114   5.219   0.007  13.136 -0.9874 -1.5518  2.1386
 9567TIP3   OH250115   4.211   5.033   4.944  0.0916 -0.3996 -0.1716
 9567TIP3    H150116   4.280   5.099   4.951  1.2330 -1.7980  2.6353
 9567TIP3    H250117   4.256   4.953   4.921 -0.4318 -1.5266  2.5742
 9568TIP3   OH250118   3.395   3.471  12.506 -0.2245  0.7023 -0.1618
 9568TIP3    H150119   3.444   3.442  12.429 -0.5492  1.3334 -0.6116
 9568TIP3    H250120   3.317   3.514  12.470 -0.1930  1.3353  0.5084
 9569TIP3   OH250121   6.120   3.249   3.755 -0.0196  0.2745  0.3077
 9569TIP3    H150122   6.081   3.249   3.842 -0.4263  0.7710  0.1251
 9569TIP3    H250123   6.200   3.198   3.765 -0.0751  0.3116  0.9668
 9570TIP3   OH250124   3.132   0.896  16.481  0.3526 -0.2640  0.1619
 9570TIP3    H150125   3.165   0.902  16.571 -3.0048 -3.5361  1.7587
 9570TIP3    H250126   3.084   0.978  16.468  0.7650  0.1791  1.3590
 9571TIP3   OH250127   3.541   5.902   3.073 -0.4642  0.2219  0.4461
 9571TIP3    H150128   3.532   5.875   2.982  0.5148 -1.2720  0.7709
 9571TIP3    H250129   3.599   5.836   3.112 -2.6771 -0.4451  2.7027
 9572TIP3   OH250130   6.003   4.522   3.299 -0.3443 -0.5293 -0.1124
 9572TIP3    H150131   5.992   4.453   3.234 -1.4027 -1.8737  1.4245
 9572TIP3    H250132   5.918   4.567   3.300 -0.0427  0.0406 -0.2826
 9573TIP3   OH250133   5.149   2.797   6.452  0.8278  0.4988 -0.6947
 9573TIP3    H150134   5.141   2.735   6.523  2.2439  0.4993 -0.5187
 9573TIP3    H250135   5.060   2.807   6.418  0.3054 -0.2184  0.4507
 9574TIP3   OH250136   0.870   2.956  14.874  0.1566 -0.3411  0.2518
 9574TIP3    H150137   0.814   2.881  14.894 -0.7167 -0.4103 -2.1994
 9574TIP3    H250138   0.928   2.925  14.805  0.0008  1.1178 -0.5722
 9575TIP3   OH250139   4.297   2.894  11.210 -0.6146  0.7368 -0.0609
 9575TIP3    H150140   4.257   2.910  11.124  1.0715 -0.7763 -1.1747
 9575TIP3    H250141   4.226   2.858  11.263 -1.5093  1.0470 -1.0204
 9576TIP3   OH250142   3.500   1.463  12.530 -0.3011  0.2801 -0.1948
 9576TIP3    H150143   3.514   1.414  12.449  1.0481  1.3611 -0.6334
 9576TIP3    H250144   3.489   1.553  12.502 -2.3950  0.3113  0.6454
 9577TIP3   OH250145   1.348   4.031  14.486  0.4895  0.0616  0.6766
 9577TIP3    H150146   1.317   3.969  14.553  2.2204 -0.7909  0.7291
 9577TIP3    H250147   1.372   3.975  14.412 -0.6207  0.9361 -0.3507
 9578TIP3   OH250148   4.354   2.314  10.343 -0.2439  0.2790 -0.6961
 9578TIP3    H150149   4.355   2.246  10.276  0.2939  0.7006 -1.1266
 9578TIP3    H250150   4.446   2.330  10.363 -0.4301 -0.5516  0.8844
 9579TIP3   OH250151   6.262   1.643   1.549  0.0608 -0.1092  0.4866
 9579TIP3    H150152   6.290   1.632   1.640 -1.0143 -1.1853  0.6948
 9579TIP3    H250153   6.167   1.638   1.552  0.0980 -2.8770 -1.0171
 9580TIP3   OH250154   4.879   2.763   3.350 -0.3999 -0.2986  0.3817
 9580TIP3    H150155   4.830   2.681   3.352 -0.2325 -0.4258 -0.6106
 9580TIP3    H250156   4.958   2.744   3.401 -0.5106 -0.6503  0.4265
 9581TIP3   OH250157   4.560   0.033  11.623 -0.1977  0.5397 -0.1889
 9581TIP3    H150158   4.622   0.106  11.619 -1.0196  1.1889 -1.2207
 9581TIP3    H250159   4.478   0.069  11.587 -0.7183 -0.7689 -0.3216
 9582TIP3   OH250160   3.135   1.903   6.428 -0.2609 -0.1799 -0.2673
 9582TIP3    H150161   3.224   1.931   6.451 -0.1809 -0.3651 -0.3463
 9582TIP3    H250162   3.088   1.900   6.512  0.1768 -1.3624 -0.0536
 9583TIP3   OH250163   0.832   2.946  13.229 -0.1774  0.7026  0.3704
 9583TIP3    H150164   0.922   2.917  13.245 -0.1155  0.9688  0.5129
 9583TIP3    H250165   0.824   3.028  13.278 -0.2016  1.1668 -0.3918
 9584TIP3   OH250166   5.233   3.151  16.463  0.1170 -0.0681 -0.0157
 9584TIP3    H150167   5.293   3.226  16.457 -0.5697  0.3557 -2.2705
 9584TIP3    H250168   5.224   3.121  16.372 -0.1052 -2.5096  0.7983
 9585TIP3   OH250169   5.581   1.542   4.182  0.0014  0.0389 -0.2706
 9585TIP3    H150170   5.648   1.484   4.146 -0.3703 -0.7393  0.2780
 9585TIP3    H250171   5.532   1.572   4.106  0.6398  0.1965 -0.6264
 9586TIP3   OH250172   6.633   2.992  13.915  0.1921  0.0634  0.4754
 9586TIP3    H150173   6.584   2.912  13.896  2.6190 -1.1400 -1.0509
 9586TIP3    H250174   6.630   3.043  13.834 -0.5376  1.0809  1.1375
 9587TIP3   OH250175   5.294   1.473   4.211 -0.3800  0.0797 -0.6211
 9587TIP3    H150176   5.273   1.458   4.303 -0.7738 -1.5040 -0.9440
 9587TIP3    H250177   5.325   1.388   4.179 -2.5386 -0.0494 -2.5419
 9588TIP3   OH250178   6.139   0.711  11.994  0.5192  0.5641 -0.5675
 9588TIP3    H150179   6.051   0.710  12.031  1.2821  1.1395  1.3707
 9588TIP3    H250180   6.137   0.646  11.924 -1.0582 -0.4327  0.3636
 9589TIP3   OH250181   1.585   6.632   6.254  0.1353  0.2886  0.6328
 9589TIP3    H150182   1.628   6.699   6.307  1.1708 -0.7886  1.1810
 9589TIP3    H250183   1.552   6.568   6.317 -1.7385  0.7673  0.1787
 9590TIP3   OH250184   4.521   2.468   2.780  0.3244 -0.2184 -0.8521
 9590TIP3    H150185   4.480   2.531   2.720  0.9236  0.8463 -0.1478
 9590TIP3    H250186   4.591   2.517   2.823 -1.5021 -0.2854  2.3961
 9591TIP3   OH250187   3.222   1.520  15.917  0.2057  0.2060  0.2237
 9591TIP3    H150188   3.204   1.489  16.005 -0.0471 -1.2616 -0.3269
 9591TIP3    H250189   3.165   1.467  15.861  0.3781  1.0997 -0.8235
 9592TIP3   OH250190   6.054   6.381   3.603 -0.6198  0.1465 -0.2882
 9592TIP3    H150191   5.962   6.405   3.590 -1.0422 -0.6498  1.0539
 9592TIP3    H250192   6.064   6.376   3.698  0.9893  0.8698 -0.4000
 9593TIP3   OH250193   0.327   1.095   3.305  0.7396  0.2610  0.5422
 9593TIP3    H150194   0.246   1.071   3.260  1.0896  0.3838 -0.1626
 9593TIP3    H250195   0.305   1.173   3.355  1.2211  2.2041 -2.1501
 9594TIP3   OH250196   2.993   2.448   3.256 -0.2443  0.7043  0.2210
 9594TIP3    H150197   2.998   2.487   3.169  1.8987 -0.8175 -0.3657
 9594TIP3    H250198   3.023   2.517   3.315 -0.5425  1.3291 -0.3535
 9595TIP3   OH250199   2.599   4.308  17.080 -0.2321  0.8132 -0.2258
 9595TIP3    H150200   2.581   4.300  17.174  1.1480  1.1800  0.0810
 9595TIP3    H250201   2.598   4.402  17.063  0.9149  0.8329 -0.2759
 9596TIP3   OH250202   3.184   0.050   0.545  0.2950 -0.2259  0.0516
 9596TIP3    H150203   3.237   0.032   0.467 -0.7901  1.8340 -1.1937
 9596TIP3    H250204   3.114  -0.016   0.542 -1.7234  1.9469 -2.6416
 9597TIP3   OH250205   6.001   6.453   0.705 -0.7310 -0.3243  0.9769
 9597TIP3    H150206   5.985   6.514   0.777  3.0896  0.9085  0.8948
 9597TIP3    H250207   6.075   6.399   0.736 -0.1262 -0.8730 -1.3517
 9598TIP3   OH250208   5.128   3.853   5.459  0.5494 -0.0577  0.2968
 9598TIP3    H150209   5.128   3.878   5.366 -1.3024 -0.4546  0.1591
 9598TIP3    H250210   5.048   3.893   5.494  0.3677 -1.2789  1.3091
 9599TIP3   OH250211   4.244   3.470  17.055 -0.5810 -0.1583 -0.0023
 9599TIP3    H150212   4.219   3.521  16.979  2.6039  1.0582 -0.3331
 9599TIP3    H250213   4.284   3.391  17.018  1.8148  0.8588  0.3434
 9600TIP3   OH250214   0.860   4.407   5.654  0.1696 -0.1419  0.0571
 9600TIP3    H150215   0.775   4.381   5.691 -0.0315  1.9929  1.1983
 9600TIP3    H250216   0.842   4.490   5.610  1.3549 -0.4894 -1.0924
 9601TIP3   OH250217   2.754   2.002  15.782 -0.1071  0.4139 -0.6203
 9601TIP3    H150218   2.660   2.018  15.784 -0.6213 -2.5050  0.3086
 9601TIP3    H250219   2.769   1.953  15.701  0.3039 -0.8766  0.2287
 9602TIP3   OH250220   5.911   2.689  12.176 -0.0831  0.2297  0.8344
 9602TIP3    H150221   5.922   2.615  12.117 -0.6697 -0.0738  1.1082
 9602TIP3    H250222   5.855   2.751  12.128  1.1149  0.8856  0.2554
 9603TIP3   OH250223   3.245   3.855  12.641  0.0056  0.5895 -0.7291
 9603TIP3    H150224   3.245   3.861  12.546  2.0499 -0.9524 -0.8670
 9603TIP3    H250225   3.198   3.933  12.671  0.2559  1.6118 -2.9565
 9604TIP3   OH250226   2.614   1.776   0.788 -0.0662 -0.9166 -0.1493
 9604TIP3    H150227   2.523   1.800   0.802 -0.0504 -1.4463  0.9744
 9604TIP3    H250228   2.610   1.687   0.752 -0.0303 -0.4926 -1.1966
 9605TIP3   OH250229   3.197   2.797   4.297 -0.0514 -0.0361  0.2089
 9605TIP3    H150230   3.258   2.731   4.264 -0.2877 -0.0357 -0.2323
 9605TIP3    H250231   3.119   2.785   4.244 -0.8319 -0.7542  1.4905
 9606TIP3   OH250232   5.828   1.631  13.744  0.3274  0.1534 -0.0276
 9606TIP3    H150233   5.855   1.574  13.671  2.3746 -0.3490  1.0757
 9606TIP3    H250234   5.822   1.718  13.704 -1.7447 -0.6302 -1.4875
 9607TIP3   OH250235   0.340   0.939  14.248 -0.6222 -0.7540  0.3012
 9607TIP3    H150236   0.425   0.928  14.290 -0.1258 -1.2779 -0.8061
 9607TIP3    H250237   0.280   0.886  14.300 -0.5557  0.7651  1.9389
 9608TIP3   OH250238   1.742   4.074  14.357 -0.4741 -0.0961 -0.7582
 9608TIP3    H150239   1.814   4.098  14.298 -0.8759 -3.0782 -2.5920
 9608TIP3    H250240   1.668   4.057  14.298 -0.8335 -3.3322  0.5399
 9609TIP3   OH250241   3.684   0.505  13.409  0.9546 -0.0726  0.0990
 9609TIP3    H150242   3.598   0.475  13.442  1.7742 -2.0796  0.5037
 9609TIP3    H250243   3.741   0.430  13.422  2.3011  0.5476 -2.1119
 9610TIP3   OH250244   5.459   6.697   1.699 -0.5694 -0.5716  0.2231
 9610TIP3    H150245   5.500   6.771   1.653 -0.3621  1.1870  3.1430
 9610TIP3    H250246   5.529   6.661   1.754 -1.3690 -1.3424  0.7507
 9611TIP3   OH250247   2.783   0.972   2.803  0.2390 -0.3381 -0.7162
 9611TIP3    H150248   2.781   0.878   2.818  1.5170  0.0511  2.3059
 9611TIP3    H250249   2.722   1.008   2.868  0.9472  1.0237 -0.7808
 9612TIP3   OH250250   1.740   2.396  13.712 -0.3039 -0.0020 -0.0897
 9612TIP3    H150251   1.659   2.346  13.701  0.2231 -1.0332  0.7205
 9612TIP3    H250252   1.808   2.342  13.673  0.3234 -0.0884  1.1049
 9613TIP3   OH250253   2.869   3.102  14.776 -0.3068 -0.2205 -0.2439
 9613TIP3    H150254   2.962   3.122  14.769  0.0133 -1.7141 -0.4265
 9613TIP3    H250255   2.852   3.042  14.703 -2.1890  2.7470 -2.3878
 9614TIP3   OH250256   1.752   6.261   3.689  0.4476 -0.4972  0.1501
 9614TIP3    H150257   1.749   6.224   3.600  0.5004  1.1323 -0.5433
 9614TIP3    H250258   1.674   6.226   3.732 -0.0149 -0.6665 -0.8066
 9615TIP3   OH250259   2.442   5.751   1.860  0.0578  0.0285  0.5582
 9615TIP3    H150260   2.349   5.752   1.881 -0.4264  0.4926 -1.5502
 9615TIP3    H250261   2.464   5.842   1.842  0.3548 -0.4042 -1.3471
 9616TIP3   OH250262   4.483   6.033  15.632  0.2592 -0.1790 -0.4533
 9616TIP3    H150263   4.415   6.024  15.566 -0.3532 -0.1561  0.1601
 9616TIP3    H250264   4.465   5.963  15.694  0.1319  0.4889  0.2830
 9617TIP3   OH250265   1.419   2.777  16.513 -0.5932 -0.1286  0.0716
 9617TIP3    H150266   1.365   2.723  16.456  0.4387  0.3208 -1.3588
 9617TIP3    H250267   1.411   2.737  16.600 -3.0419 -0.1842 -0.1552
 9618TIP3   OH250268   5.831   2.038  15.976  0.1683  0.1945 -0.5120
 9618TIP3    H150269   5.787   2.016  16.058  3.8851 -0.8083  1.3018
 9618TIP3    H250270   5.794   1.978  15.912  0.4957 -2.1754  1.4503
 9619TIP3   OH250271   0.055   2.784   1.916  0.0745  0.8632 -0.1092
 9619TIP3    H150272   0.048   2.854   1.852  1.2651  2.6730  1.6715
 9619TIP3    H250273   0.150   2.775   1.931 -0.2134  0.9554  1.8901
 9620TIP3   OH250274   4.544   4.288   1.607  0.1584  0.0324 -0.0027
 9620TIP3    H150275   4.606   4.358   1.630 -1.6686  0.6592  3.4368
 9620TIP3    H250276   4.575   4.212   1.655 -0.4356 -0.2559 -0.0745
 9621TIP3   OH250277   3.008   5.211   2.359 -0.4294 -0.1254 -0.3702
 9621TIP3    H150278   2.947   5.198   2.431 -1.6024  1.4487 -1.0242
 9621TIP3    H250279   2.995   5.303   2.334  1.7318  0.0401 -0.9710
 9622TIP3   OH250280   0.643   4.777   4.286  0.3119 -0.2045  0.4545
 9622TIP3    H150281   0.728   4.808   4.317  0.9473 -1.4619 -0.0078
 9622TIP3    H250282   0.597   4.857   4.260  1.2054  0.5196  1.0309
 9623TIP3   OH250283   4.680   2.594  12.888 -0.3784  0.0116 -0.3867
 9623TIP3    H150284   4.629   2.670  12.859 -0.7515 -0.7553 -1.7881
 9623TIP3    H250285   4.718   2.621  12.971 -2.6525  0.8028  0.4477
 9624TIP3   OH250286   0.780   5.816  15.568  0.4682 -0.5618 -0.3132
 9624TIP3    H150287   0.729   5.766  15.505 -1.9539 -0.0931  1.2386
 9624TIP3    H250288   0.748   5.787  15.654  0.2926  2.3063  0.6369
 9625TIP3   OH250289   0.425   4.111  13.882 -0.3819  0.4912  0.3978
 9625TIP3    H150290   0.449   4.076  13.968 -0.0326  0.1904  0.1786
 9625TIP3    H250291   0.442   4.039  13.822 -2.7606 -0.0903  0.3591
 9626TIP3   OH250292   2.087   3.264   3.841  0.3538  0.3063  0.2873
 9626TIP3    H150293   2.083   3.281   3.935 -1.0247 -1.3596  0.5708
 9626TIP3    H250294   2.045   3.340   3.801  0.9524  1.0261  1.0190
 9627TIP3   OH250295   2.208   6.388  15.455 -0.3282 -0.5240  0.0209
 9627TIP3    H150296   2.259   6.319  15.412  1.8475 -0.0859  1.7920
 9627TIP3    H250297   2.152   6.341  15.516  1.3505 -0.7524  1.4263
 9628TIP3   OH250298   3.794   1.019   0.585 -0.3813 -0.1291  0.4289
 9628TIP3    H150299   3.806   0.926   0.567  0.5264 -0.0326  0.4978
 9628TIP3    H250300   3.865   1.062   0.537 -0.3889  0.4672  0.9418
 9629TIP3   OH250301   1.016   0.832   4.125 -0.1948  0.1237 -0.1352
 9629TIP3    H150302   0.963   0.760   4.158  0.6232  0.7089  2.6028
 9629TIP3    H250303   0.954   0.891   4.083 -1.2446 -0.8042  0.0999
 9630TIP3   OH250304   0.342   0.530   0.643  0.3814 -0.5057  0.3663
 9630TIP3    H150305   0.310   0.455   0.593 -0.1521  1.5978 -2.5916
 9630TIP3    H250306   0.408   0.571   0.586  3.2096 -0.6664  3.3709
 9631TIP3   OH250307   2.402   4.523  16.126  0.1956 -0.0314 -0.0588
 9631TIP3    H150308   2.427   4.452  16.185 -1.2899 -0.2108  0.3681
 9631TIP3    H250309   2.361   4.588  16.183 -1.8462 -0.4933 -0.9475
 9632TIP3   OH250310   1.313   0.878  17.198 -0.1175 -0.0998  0.4426
 9632TIP3    H150311   1.313   0.936  17.274 -0.6344 -0.3904  0.6712
 9632TIP3    H250312   1.274   0.797  17.230  1.6506 -0.9753  0.4170
 9633TIP3   OH250313   4.917   3.758   6.169  0.3982 -0.2178  0.1121
 9633TIP3    H150314   4.872   3.735   6.251 -2.3843 -0.7372 -1.4984
 9633TIP3    H250315   4.945   3.848   6.181 -2.7085  0.7425  0.5225
 9634TIP3   OH250316   2.546   1.698   5.165 -0.0680  0.3918 -0.9413
 9634TIP3    H150317   2.562   1.715   5.072  2.0587 -0.8750 -0.8460
 9634TIP3    H250318   2.561   1.604   5.176  0.0609  0.5813  0.7409
 9635TIP3   OH250319   0.867   1.032  14.164  0.0429  0.1821  0.2564
 9635TIP3    H150320   0.869   0.997  14.252 -1.1086 -0.6365 -0.0466
 9635TIP3    H250321   0.938   1.097  14.163 -1.3250  1.7950  2.4284
 9636TIP3   OH250322   6.233   1.295   1.723  0.0881  0.3177  0.6358
 9636TIP3    H150323   6.264   1.314   1.635  0.6380  1.4749  1.0696
 9636TIP3    H250324   6.293   1.343   1.781  0.0627 -0.8549  1.6620
 9637TIP3   OH250325   2.860   6.344   3.952 -0.0769 -0.2109  0.0211
 9637TIP3    H150326   2.885   6.256   3.981  0.4525 -0.4088 -1.0449
 9637TIP3    H250327   2.778   6.361   3.999  1.0122 -0.3300  2.0292
 9638TIP3   OH250328   2.912   1.274   6.828 -0.1043  0.0369  0.6703
 9638TIP3    H150329   2.945   1.230   6.749  1.9705  0.4006  1.3041
 9638TIP3    H250330   2.830   1.315   6.800  0.6680  0.2675 -1.3438
 9639TIP3   OH250331   3.119   2.485   3.582  0.0983 -0.3187  0.0677
 9639TIP3    H150332   3.038   2.453   3.622  0.8512 -0.3491  1.6264
 9639TIP3    H250333   3.116   2.580   3.595  0.5191 -0.3673  0.5380
 9640TIP3   OH250334   5.914   3.231   1.914 -0.6470 -0.0003  0.5570
 9640TIP3    H150335   5.904   3.202   1.823  0.1297  0.6121  0.2719
 9640TIP3    H250336   5.859   3.171   1.964  0.1830 -1.3777 -0.1334
 9641TIP3   OH250337   4.900   1.557  15.909  0.1650 -0.4046  0.4526
 9641TIP3    H150338   4.932   1.472  15.943 -0.1536 -1.2641 -1.3706
 9641TIP3    H250339   4.819   1.573  15.957 -0.1881 -1.5270  0.2419
 9642TIP3   OH250340   1.089   4.538  15.161  0.0193 -0.2609 -0.2275
 9642TIP3    H150341   1.075   4.544  15.255 -0.0473 -3.0163 -0.0149
 9642TIP3    H250342   1.138   4.617  15.138  0.7151  0.0380  2.2472
 9643TIP3   OH250343   1.737   0.125   1.539  0.0151 -0.2936 -0.2554
 9643TIP3    H150344   1.737   0.211   1.581 -2.4008 -0.7568  0.7850
 9643TIP3    H250345   1.722   0.144   1.447  1.0010  0.4774 -0.2726
 9644TIP3   OH250346   4.603   6.085   3.475 -0.0172 -0.3598  0.5136
 9644TIP3    H150347   4.569   6.016   3.419 -0.5954 -0.8320  1.4244
 9644TIP3    H250348   4.618   6.159   3.416  0.8359 -1.3365 -0.5006
 9645TIP3   OH250349   4.432   0.030   5.095  0.0754  0.3932  0.1002
 9645TIP3    H150350   4.348   0.050   5.136  0.3832 -1.7733  1.8609
 9645TIP3    H250351   4.492   0.017   5.168  1.3712 -0.5171 -1.1012
 9646TIP3   OH250352   5.825   3.255   1.186 -0.1210  0.0416  0.9219
 9646TIP3    H150353   5.885   3.243   1.261  1.5120 -0.4512 -0.4285
 9646TIP3    H250354   5.882   3.285   1.115 -1.2165 -1.9149 -0.8313
 9647TIP3   OH250355   5.637   2.282   4.922 -0.4356 -0.6053  0.5448
 9647TIP3    H150356   5.705   2.230   4.965  0.1726 -0.7807 -0.6237
 9647TIP3    H250357   5.637   2.252   4.831  0.1038  1.6014 -0.2136
 9648TIP3   OH250358   3.191   6.532  14.226  0.0489 -0.5680 -0.7222
 9648TIP3    H150359   3.171   6.529  14.319  1.9036  0.3578 -0.2721
 9648TIP3    H250360   3.133   6.599  14.190  1.4895  1.2901  0.3524
 9649TIP3   OH250361   3.243   2.436   0.567  0.1914 -0.2461  0.5071
 9649TIP3    H150362   3.324   2.396   0.598 -0.5254 -1.2223  1.1652
 9649TIP3    H250363   3.176   2.368   0.580 -0.3851 -0.1891 -1.9080
 9650TIP3   OH250364   4.471   3.979  13.817  0.2667  0.6807 -0.2312
 9650TIP3    H150365   4.486   3.928  13.738 -0.4437  1.6458 -1.0194
 9650TIP3    H250366   4.549   4.034  13.825  0.2744  0.6889 -0.3524
 9651TIP3   OH250367   6.345   2.831   3.828 -0.0654 -0.0711  0.3608
 9651TIP3    H150368   6.282   2.773   3.785  0.1712  0.1722 -0.3234
 9651TIP3    H250369   6.406   2.772   3.872  0.8212 -0.3898 -1.2435
 9652TIP3   OH250370   1.534   1.272   5.303 -0.1466 -0.0316 -0.6011
 9652TIP3    H150371   1.601   1.204   5.296  1.0070  0.9586  0.6512
 9652TIP3    H250372   1.486   1.250   5.384 -0.9762 -0.4058 -1.1832
 9653TIP3   OH250373   2.639   1.207   1.201 -0.0633 -0.1155  0.0104
 9653TIP3    H150374   2.675   1.173   1.119 -0.2135 -2.5167  0.8939
 9653TIP3    H250375   2.710   1.194   1.264 -0.0954  1.3413  0.3529
 9654TIP3   OH250376   3.912   2.108  15.197  0.4826  0.0554 -0.2574
 9654TIP3    H150377   3.897   2.094  15.290 -1.5270  0.7288 -0.4611
 9654TIP3    H250378   3.971   2.036  15.171 -0.1560 -1.0125  1.1966
 9655TIP3   OH250379   4.452   4.039  17.202  0.1603  0.4145  0.0914
 9655TIP3    H150380   4.526   3.979  17.200  0.3491  0.4777  2.8514
 9655TIP3    H250381   4.458   4.089  17.121  2.1590 -0.7182 -0.4735
 9656TIP3   OH250382   5.842   2.076  12.306  0.2816 -0.2339 -0.3903
 9656TIP3    H150383   5.778   2.005  12.304 -1.6236  1.4021  0.1202
 9656TIP3    H250384   5.896   2.062  12.229 -2.3992 -0.1914 -2.3676
 9657TIP3   OH250385   0.109   4.021  15.802 -0.0071  0.2923 -0.0309
 9657TIP3    H150386   0.156   4.074  15.737  0.7379  0.5448  0.7041
 9657TIP3    H250387   0.070   4.084  15.861 -0.3859  0.0511 -0.0207
 9658TIP3   OH250388   4.141   0.368   1.240 -0.4240  0.2036 -0.1903
 9658TIP3    H150389   4.142   0.314   1.161 -2.5131 -0.2949  0.0793
 9658TIP3    H250390   4.112   0.308   1.309 -1.0156  1.2213  0.4600
 9659TIP3   OH250391   4.714   0.597   2.567 -0.1378 -0.0922  0.2281
 9659TIP3    H150392   4.701   0.615   2.660  2.4645 -0.6838  0.7364
 9659TIP3    H250393   4.743   0.681   2.530  0.6816 -0.3220  0.3367
 9660TIP3   OH250394   1.665   1.509   6.041 -0.2929  1.3573  0.2906
 9660TIP3    H150395   1.587   1.501   5.986  0.0297 -1.8682  0.1773
 9660TIP3    H250396   1.648   1.449   6.114  2.4126 -0.0349 -0.1662
 9661TIP3   OH250397   2.369   3.637  15.892  0.1224  0.2277 -0.0729
 9661TIP3    H150398   2.380   3.616  15.799  0.0199 -1.6389  0.3118
 9661TIP3    H250399   2.430   3.578  15.937  0.8354  1.7510  1.0055
 9662TIP3   OH250400   6.148   3.920   6.440 -0.7423  0.5347  0.2261
 9662TIP3    H150401   6.241   3.936   6.457 -0.3199 -0.2272 -1.1648
 9662TIP3    H250402   6.104   4.000   6.465  0.3488  1.0537  0.5189
 9663TIP3   OH250403   0.942   1.238  14.553  0.1625 -0.4465  0.4977
 9663TIP3    H150404   0.861   1.250  14.504  0.4503 -0.1553  0.0888
 9663TIP3    H250405   1.011   1.264  14.492  0.6297 -1.7184  0.4863
 9664TIP3   OH250406   5.486   3.253  16.203 -0.2037 -0.3882  0.3368
 9664TIP3    H150407   5.452   3.275  16.116 -1.7118  0.4543  1.1242
 9664TIP3    H250408   5.540   3.175  16.188  2.0892  1.5310 -1.8701
 9665TIP3   OH250409   5.355   3.194   5.320  0.2300  0.2230 -0.2213
 9665TIP3    H150410   5.368   3.217   5.228 -1.6816  1.7572 -0.1335
 9665TIP3    H250411   5.284   3.131   5.319  0.2328  0.2118  0.2096
 9666TIP3   OH250412   2.867   0.479   1.472  0.1068 -0.0701 -0.2683
 9666TIP3    H150413   2.835   0.398   1.433  0.9190  0.3171 -1.7831
 9666TIP3    H250414   2.820   0.486   1.555  0.0578 -2.1103 -0.0963
 9667TIP3   OH250415   2.839   1.074   0.029  0.0300  0.4999  0.3159
 9667TIP3    H150416   2.903   1.115   0.087  0.4412 -0.7938  0.8139
 9667TIP3    H250417   2.784   1.022   0.088  0.0689 -0.3472 -0.3872
 9668TIP3   OH250418   4.163   1.954  14.542  0.0440  0.3837 -0.2682
 9668TIP3    H150419   4.141   1.864  14.516  0.3846  0.7420 -1.8704
 9668TIP3    H250420   4.080   1.992  14.569 -0.6511  0.4939 -2.4574
 9669TIP3   OH250421   2.379   1.363   1.249  0.1671  0.3685  0.1057
 9669TIP3    H150422   2.449   1.298   1.258  0.2315  0.4897  0.4887
 9669TIP3    H250423   2.343   1.371   1.337 -2.7322 -2.3795 -0.7543
 9670TIP3   OH250424   2.318   4.828   0.549 -0.2320  0.4046  0.4848
 9670TIP3    H150425   2.280   4.889   0.486 -2.0259  0.0562  1.2275
 9670TIP3    H250426   2.365   4.884   0.611 -1.7882  1.0242  1.1098
 9671TIP3   OH250427   4.425   5.354  13.442  0.0581  0.6602 -0.5627
 9671TIP3    H150428   4.372   5.276  13.427 -1.4506  1.8322 -1.4393
 9671TIP3    H250429   4.515   5.323  13.438 -0.5233 -1.2494  0.3057
 9672TIP3   OH250430   3.118   5.008   4.863 -0.2715 -0.2888  0.1159
 9672TIP3    H150431   3.133   5.065   4.938  1.0349  0.0567 -0.3858
 9672TIP3    H250432   3.024   5.015   4.845 -0.3670  0.5904  0.9357
 9673TIP3   OH250433   4.372   2.320   0.166 -0.5979 -0.2002 -0.5938
 9673TIP3    H150434   4.425   2.400   0.171 -1.3976  0.3317 -0.5498
 9673TIP3    H250435   4.396   2.271   0.245 -0.9004  0.5036 -0.0554
 9674TIP3   OH250436   4.120   1.044  11.438 -0.2198 -0.5812  0.0035
 9674TIP3    H150437   4.160   0.973  11.387 -2.6725 -1.3337 -0.9561
 9674TIP3    H250438   4.072   1.000  11.508 -0.6819  0.1960  0.1828
 9675TIP3   OH250439   3.380   0.130  14.249 -0.0122  0.6167 -0.9075
 9675TIP3    H150440   3.462   0.081  14.241 -0.6522 -0.7749  0.8218
 9675TIP3    H250441   3.318   0.081  14.195 -1.1976 -1.7771  2.4977
 9676TIP3   OH250442   0.864   2.295   0.212 -0.0061 -0.5112  0.4230
 9676TIP3    H150443   0.874   2.390   0.223 -1.6186 -0.5273  2.2034
 9676TIP3    H250444   0.909   2.257   0.287  2.0599 -1.2594 -1.1395
 9677TIP3   OH250445   3.994   0.531  11.046  0.5461 -0.5225 -0.1113
 9677TIP3    H150446   3.904   0.499  11.040  0.5380 -0.7254  1.0417
 9677TIP3    H250447   4.048   0.453  11.030  0.5397 -0.1343 -2.2190
 9678TIP3   OH250448   1.897   1.246   6.524  0.8082  0.3607  0.0291
 9678TIP3    H150449   1.850   1.304   6.583  1.7398  2.6074 -1.3613
 9678TIP3    H250450   1.830   1.187   6.489 -0.2735  1.0298  0.9655
 9679TIP3   OH250451   1.790   6.308   0.908  0.2070 -0.1135 -0.7409
 9679TIP3    H150452   1.770   6.281   0.818  0.7768 -1.1963 -0.5497
 9679TIP3    H250453   1.719   6.271   0.960 -1.0728  1.9798 -0.9480
 9680TIP3   OH250454   2.666   6.576   2.992  0.2864 -0.5051  0.5132
 9680TIP3    H150455   2.599   6.544   2.931 -0.6603 -0.1109  1.3486
 9680TIP3    H250456   2.675   6.506   3.057  0.6533 -0.5274  0.4419
 9681TIP3   OH250457   2.694   4.053   5.131  0.4056 -0.0652  0.0792
 9681TIP3    H150458   2.675   4.018   5.044  0.7353  2.1451 -0.9150
 9681TIP3    H250459   2.610   4.055   5.176  0.3851 -2.0975  0.1640
 9682TIP3   OH250460   2.330   4.114  11.978  0.0694 -0.4510  0.2415
 9682TIP3    H150461   2.265   4.166  11.931  0.1158 -0.1880  0.4669
 9682TIP3    H250462   2.403   4.108  11.916 -0.3918 -1.2281 -0.2263
 9683TIP3   OH250463   3.229   5.199   3.023  0.0812  0.4186  0.2882
 9683TIP3    H150464   3.285   5.262   3.069  0.3606 -0.4110  1.0754
 9683TIP3    H250465   3.290   5.137   2.984 -0.2755 -0.3928  1.0088
 9684TIP3   OH250466   3.177   3.353  10.882  0.0322 -0.0556  0.3271
 9684TIP3    H150467   3.145   3.443  10.874  1.8425  0.4397 -2.1613
 9684TIP3    H250468   3.207   3.331  10.793  2.5414 -1.9518  1.5955
 9685TIP3   OH250469   3.469   5.062  15.760 -0.4946 -0.1429  0.5544
 9685TIP3    H150470   3.454   4.968  15.774 -1.2291  0.0456  1.0381
 9685TIP3    H250471   3.416   5.083  15.683  1.4324 -0.6000 -0.9406
 9686TIP3   OH250472   5.900   3.352  16.543 -0.7128 -0.4272 -0.1943
 9686TIP3    H150473   5.816   3.319  16.574 -0.5418 -0.7853 -0.0996
 9686TIP3    H250474   5.891   3.447  16.545 -0.1726 -0.3857  2.5066
 9687TIP3   OH250475   6.009   6.666   0.509 -0.8738  0.2628 -0.7341
 9687TIP3    H150476   6.099   6.677   0.477 -0.5366 -0.7955 -0.1980
 9687TIP3    H250477   6.020   6.614   0.589 -1.9684  0.1408 -0.6678
 9688TIP3   OH250478   2.409   0.499   3.441 -0.1434  0.5263  0.0390
 9688TIP3    H150479   2.367   0.561   3.382 -2.1307 -0.3604  0.4762
 9688TIP3    H250480   2.356   0.501   3.521 -0.5983 -2.0956 -0.1326
 9689TIP3   OH250481   4.870   5.032  14.665 -0.9841  0.0026  0.2323
 9689TIP3    H150482   4.886   4.948  14.709  0.4479 -0.4035 -1.0408
 9689TIP3    H250483   4.950   5.083  14.679 -1.8338  1.1615  0.9724
 9690TIP3   OH250484   5.050   1.337   5.284  0.3938 -0.0217  0.5753
 9690TIP3    H150485   5.049   1.344   5.189  2.4522 -1.3835  0.4300
 9690TIP3    H250486   4.992   1.263   5.303  2.3778 -1.7179  0.1579
 9691TIP3   OH250487   0.447   2.939  10.985 -0.1602  0.8384 -0.1491
 9691TIP3    H150488   0.509   2.898  10.925  1.0132  1.3785  0.6629
 9691TIP3    H250489   0.415   3.015  10.939 -0.1449  0.6048 -0.5462
 9692TIP3   OH250490   0.164   5.922   4.006  0.5443 -0.0981  0.3874
 9692TIP3    H150491   0.240   5.919   3.947  0.4263  0.4155  0.1989
 9692TIP3    H250492   0.117   5.841   3.990 -0.5116  0.8676 -1.6256
 9693TIP3   OH250493   0.662   2.944  13.545 -0.0726  0.0031  0.2199
 9693TIP3    H150494   0.698   3.023  13.505  0.0848 -0.7272 -1.0976
 9693TIP3    H250495   0.725   2.921  13.613  0.6229  0.2004 -0.3509
 9694TIP3   OH250496   2.952   4.107  11.025  0.3219 -0.0037  0.0062
 9694TIP3    H150497   3.034   4.067  10.996  1.1635  1.5768  0.1722
 9694TIP3    H250498   2.924   4.161  10.951 -0.0586  0.2224  0.3143
 9695TIP3   OH250499   6.046   4.982  15.955  0.4364  0.1725 -0.1289
 9695TIP3    H150500   6.133   5.015  15.976  0.7157 -0.8989  0.4330
 9695TIP3    H250501   6.047   4.891  15.985 -0.8905  0.1643 -0.0767
 9696TIP3   OH250502   5.510   2.696  16.073  0.1702 -0.1704  0.4146
 9696TIP3    H150503   5.583   2.751  16.044  0.1233 -0.1272  0.3825
 9696TIP3    H250504   5.472   2.662  15.992  0.2916 -0.3732  0.4399
 9697TIP3   OH250505   6.221   6.052  15.203  0.4241  0.2669  0.4541
 9697TIP3    H150506   6.203   5.983  15.266 -0.9591 -0.5963 -0.8359
 9697TIP3    H250507   6.314   6.044  15.183  0.2765 -1.2252  0.3379
 9698TIP3   OH250508   4.518   3.659  12.728  0.4671 -0.2579  0.7495
 9698TIP3    H150509   4.594   3.689  12.778  0.2753 -0.6403  1.2826
 9698TIP3    H250510   4.456   3.630  12.795 -0.4873  0.8382  0.3528
 9699TIP3   OH250511   0.572   1.442  13.283 -0.2358 -0.1816 -0.5776
 9699TIP3    H150512   0.637   1.480  13.224  0.5528  1.8903  1.5364
 9699TIP3    H250513   0.551   1.357  13.245  0.4090  0.9920 -3.7003
 9700TIP3   OH250514   2.515   4.976  11.238  0.4218  0.3024  0.3247
 9700TIP3    H150515   2.591   4.960  11.182  1.2740  0.1450  1.5048
 9700TIP3    H250516   2.443   4.995  11.177  1.1697 -0.5441 -0.8296
 9701TIP3   OH250517   4.605   3.139  12.059  0.1463  0.3026 -0.4967
 9701TIP3    H150518   4.563   3.159  12.143  0.5754 -2.3218  0.3943
 9701TIP3    H250519   4.532   3.129  11.998 -0.1521  2.5335 -0.5185
 9702TIP3   OH250520   4.910   4.320   3.881  0.7401 -0.6959 -0.4404
 9702TIP3    H150521   4.907   4.416   3.872 -2.0822 -0.7748 -0.7650
 9702TIP3    H250522   4.858   4.303   3.960  2.7295 -1.8826  0.6590
 9703TIP3   OH250523   5.771   4.783   0.407  0.6488  0.0211  0.3340
 9703TIP3    H150524   5.853   4.734   0.409  1.0449  0.6988  1.0781
 9703TIP3    H250525   5.753   4.796   0.314  0.8248 -1.0558  0.1509
 9704TIP3   OH250526   5.519   2.657  15.193 -0.2817 -0.0098 -0.6607
 9704TIP3    H150527   5.512   2.640  15.287  0.6253 -0.9012 -0.7495
 9704TIP3    H250528   5.476   2.582  15.152 -1.8149  0.9998 -0.9508
 9705TIP3   OH250529   2.837   6.648   6.151  0.4389  0.7094  0.5352
 9705TIP3    H150530   2.763   6.633   6.093  1.8946  0.6517 -1.3641
 9705TIP3    H250531   2.812   6.723   6.204 -1.8440 -0.6616  1.4303
 9706TIP3   OH250532   3.590   3.280  15.067 -0.5761 -1.1727  0.0767
 9706TIP3    H150533   3.648   3.336  15.015 -0.8677 -0.6620  0.2890
 9706TIP3    H250534   3.608   3.306  15.158 -1.3788 -0.7645  0.1269
 9707TIP3   OH250535   4.314   2.751   2.848  0.5645  0.6411  0.5238
 9707TIP3    H150536   4.232   2.709   2.822  1.5778 -1.5020  0.6571
 9707TIP3    H250537   4.371   2.739   2.772  0.1768  3.8551 -0.3383
 9708TIP3   OH250538   6.630   4.333   5.342 -0.2431  0.1075  0.6480
 9708TIP3    H150539   6.553   4.298   5.297 -0.6684 -0.6165  1.9195
 9708TIP3    H250540   6.648   4.270   5.412  1.5355  0.2389  0.3439
 9709TIP3   OH250541   2.101   3.694  15.694  0.1078 -0.2197  0.3228
 9709TIP3    H150542   2.059   3.772  15.658 -1.1845 -1.4252 -0.8857
 9709TIP3    H250543   2.029   3.643  15.731  0.7431 -1.4584 -0.1133
 9710TIP3   OH250544   6.749   4.939   4.750  0.0451  0.1277 -0.5268
 9710TIP3    H150545   6.654   4.934   4.752  0.1296 -1.5075  0.2094
 9710TIP3    H250546   6.774   4.973   4.836  0.2039 -1.3813  0.0444
 9711TIP3   OH250547   2.329   1.209  12.053  0.4824 -0.2983  0.5290
 9711TIP3    H150548   2.385   1.135  12.028 -0.0749 -0.8550  0.8940
 9711TIP3    H250549   2.374   1.250  12.127 -0.6214 -2.0339  2.2165
 9712TIP3   OH250550   0.449   0.000   3.781  0.5080 -0.2576 -0.3037
 9712TIP3    H150551   0.358  -0.015   3.755 -0.0693  1.6192  0.4560
 9712TIP3    H250552   0.466  -0.065   3.849 -0.1872 -0.7945 -0.6427
 9713TIP3   OH250553   2.407   2.959   4.730  0.0437  0.2652 -0.2637
 9713TIP3    H150554   2.467   2.927   4.662 -1.1045  0.4112 -1.3642
 9713TIP3    H250555   2.454   2.944   4.812 -0.2398 -3.9765 -0.7226
 9714TIP3   OH250556   6.547   2.612   3.722 -0.0172 -0.1972 -0.2560
 9714TIP3    H150557   6.512   2.527   3.694  0.0206 -0.3225  0.0764
 9714TIP3    H250558   6.485   2.676   3.686 -1.1832 -0.4735  1.1990
 9715TIP3   OH250559   4.775   0.830  13.139  0.1866  0.1244  0.2555
 9715TIP3    H150560   4.725   0.893  13.087  0.0912 -1.1759 -1.2343
 9715TIP3    H250561   4.734   0.833  13.226 -1.9311 -0.2844 -0.6940
 9716TIP3   OH250562   4.334   3.651   4.190 -0.2539  0.3286  0.3041
 9716TIP3    H150563   4.287   3.732   4.174  0.5656  0.8590  0.5633
 9716TIP3    H250564   4.395   3.671   4.261  1.1138 -0.0346 -0.7425
 9717TIP3   OH250565   1.044   2.227  12.584  0.8348  0.6650  0.2273
 9717TIP3    H150566   1.085   2.308  12.612 -0.6873  1.8937 -1.0494
 9717TIP3    H250567   1.102   2.193  12.516  2.4924 -0.3576  2.0763
 9718TIP3   OH250568   5.320   0.844  15.011 -0.0747  0.1652  0.1555
 9718TIP3    H150569   5.391   0.793  14.971 -0.4552 -0.8806  0.7879
 9718TIP3    H250570   5.314   0.810  15.100  0.5496  2.2571  1.0102
 9719TIP3   OH250571   5.401   6.347  11.106  0.0193  0.4027 -0.3817
 9719TIP3    H150572   5.452   6.386  11.035  1.5520  0.7517  0.8866
 9719TIP3    H250573   5.466   6.305  11.162 -1.2689 -0.7356  0.2757
 9720TIP3   OH250574   2.030   2.982  14.021 -0.2038 -0.5603 -0.2385
 9720TIP3    H150575   1.989   2.911  14.070 -0.2030  0.0667  0.6877
 9720TIP3    H250576   2.124   2.963  14.026 -0.3486 -1.8470 -2.1265
 9721TIP3   OH250577   0.172   6.306   3.603  0.4395 -0.0144 -0.7111
 9721TIP3    H150578   0.130   6.267   3.526 -1.7809  0.3677  0.2382
 9721TIP3    H250579   0.189   6.397   3.577  0.9772 -0.2529 -1.2105
 9722TIP3   OH250580   4.044   0.201  16.137 -0.1729  0.3189  0.4248
 9722TIP3    H150581   4.065   0.131  16.076  1.6871 -1.7189  3.2432
 9722TIP3    H250582   3.950   0.215  16.127 -0.1713 -1.0528 -1.7148
 9723TIP3   OH250583   6.662   1.896   1.910 -0.0607 -0.4885 -0.6017
 9723TIP3    H150584   6.743   1.934   1.945 -0.0583 -0.7731 -0.2952
 9723TIP3    H250585   6.687   1.859   1.826  0.5715 -2.2723  0.3414
 9724TIP3   OH250586   4.512   5.023  13.357 -0.2080 -0.1095 -0.3799
 9724TIP3    H150587   4.592   4.973  13.347  1.7235  3.1020 -1.8777
 9724TIP3    H250588   4.492   5.056  13.269 -1.1498  2.0675  0.5964
 9725TIP3   OH250589   6.765   4.816  11.916 -0.1006 -0.1383  0.2496
 9725TIP3    H150590   6.752   4.903  11.953 -0.0159  0.1729 -0.4300
 9725TIP3    H250591   6.712   4.758  11.970 -0.9323  0.4863  0.1129
 9726TIP3   OH250592   3.333   0.074   2.861  0.0109 -0.2683  0.1986
 9726TIP3    H150593   3.346   0.161   2.897  0.3494 -0.5829  0.8479
 9726TIP3    H250594   3.363   0.014   2.931 -0.1296 -0.8943 -0.2714
 9727TIP3   OH250595   2.229   2.091   2.687 -0.1702  0.2249 -0.1398
 9727TIP3    H150596   2.306   2.051   2.727 -1.2681 -1.6843  0.1780
 9727TIP3    H250597   2.190   2.019   2.636 -1.4334  1.3093 -0.7197
 9728TIP3   OH250598   1.715   1.533  11.684 -0.2941 -0.1451 -0.1368
 9728TIP3    H150599   1.803   1.559  11.711 -1.2035  1.9151  0.8771
 9728TIP3    H250600   1.697   1.454  11.735  0.2827  0.4158  0.9413
 9729TIP3   OH250601   5.426   3.471   5.278 -0.1606  0.3106  0.6374
 9729TIP3    H150602   5.365   3.543   5.259  0.3586  0.8321  0.9015
 9729TIP3    H250603   5.379   3.416   5.341 -0.3818  0.6822  0.8019
 9730TIP3   OH250604   1.608   0.953   2.065  0.0643  0.0098  0.5017
 9730TIP3    H150605   1.591   0.882   2.127  0.7572 -1.1081 -0.5819
 9730TIP3    H250606   1.683   1.000   2.102 -0.2689  0.0717  1.1121
 9731TIP3   OH250607   0.470   3.328  16.750  0.4499 -0.2717  0.2785
 9731TIP3    H150608   0.547   3.365  16.794  0.2418  0.0534  0.3774
 9731TIP3    H250609   0.476   3.234  16.767 -0.1386 -0.0449  1.8314
 9732TIP3   OH250610   3.648   4.514   3.455 -0.4478 -0.4711 -0.0590
 9732TIP3    H150611   3.678   4.428   3.426 -0.4797 -0.2062 -0.8703
 9732TIP3    H250612   3.598   4.548   3.382 -0.4476  0.2403  0.2715
 9733TIP3   OH250613   5.250   3.228  15.467 -0.2140 -0.0983  0.1452
 9733TIP3    H150614   5.308   3.202  15.538 -0.3589 -1.5764 -0.2647
 9733TIP3    H250615   5.231   3.320  15.484  1.3704  0.1106  0.8931
 9734TIP3   OH250616   1.915   3.583   1.193 -0.0178 -0.7099  0.6213
 9734TIP3    H150617   1.975   3.561   1.263 -0.7881  0.9242  1.8171
 9734TIP3    H250618   1.879   3.499   1.165  1.8645 -1.5706  0.7238
 9735TIP3   OH250619   5.207   6.356  15.923 -0.1719  0.0827  0.0556
 9735TIP3    H150620   5.273   6.338  15.990  1.0012  0.7285 -0.9034
 9735TIP3    H250621   5.224   6.446  15.897 -0.9098 -0.0198 -0.7910
 9736TIP3   OH250622   2.822   5.769   5.856 -0.2849 -0.3990 -0.4903
 9736TIP3    H150623   2.788   5.812   5.934 -0.4358 -2.8712  0.8512
 9736TIP3    H250624   2.756   5.705   5.832  0.8331 -1.2977 -1.2546
 9737TIP3   OH250625   1.049   6.460  15.942 -0.6318  0.0563 -0.4583
 9737TIP3    H150626   1.027   6.455  15.848 -0.0791 -0.6222 -0.5557
 9737TIP3    H250627   1.012   6.380  15.979  0.8567 -0.6574 -0.4610
 9738TIP3   OH250628   1.030   3.860   2.579 -0.4908 -0.5880 -0.6322
 9738TIP3    H150629   1.012   3.789   2.516 -0.6021 -0.8861 -0.2641
 9738TIP3    H250630   0.990   3.830   2.661 -1.6452  0.4707 -0.7935
 9739TIP3   OH250631   2.972   1.687  13.207  0.0051  0.1391  0.1602
 9739TIP3    H150632   3.025   1.707  13.130 -0.7644 -2.5308 -1.1408
 9739TIP3    H250633   3.020   1.617  13.251 -1.0578 -0.4068  0.4625
 9740TIP3   OH250634   5.774   6.202   1.121  0.2563  0.1287  0.0694
 9740TIP3    H150635   5.796   6.294   1.107 -0.0068  0.7480  3.2723
 9740TIP3    H250636   5.692   6.189   1.073  0.6251  1.3999 -0.9124
 9741TIP3   OH250637   2.500   0.643   3.086  0.5260  0.4447  0.1872
 9741TIP3    H150638   2.484   0.562   3.037 -0.2403  2.1410 -2.5033
 9741TIP3    H250639   2.594   0.658   3.076  0.5121  0.3578 -0.0937
 9742TIP3   OH250640   4.187   6.591   1.759  0.0012  0.0603  0.0893
 9742TIP3    H150641   4.184   6.510   1.708  1.1948  0.1517 -0.1453
 9742TIP3    H250642   4.152   6.658   1.700 -1.1990 -0.3199  0.3632
 9743TIP3   OH250643   1.178   2.404   3.653 -0.2306  1.2300  0.2240
 9743TIP3    H150644   1.175   2.415   3.748 -0.5412 -2.3349  0.6637
 9743TIP3    H250645   1.256   2.350   3.638 -1.8336 -0.7258 -1.2542
 9744TIP3   OH250646   0.287   5.956  12.332  0.0080 -0.0016 -0.3748
 9744TIP3    H150647   0.239   5.975  12.251 -0.3647 -1.1614 -0.4458
 9744TIP3    H250648   0.254   6.019  12.395  0.0991  0.7368 -1.0493
 9745TIP3   OH250649   4.439   6.443   1.768  0.1062  0.1930  0.3354
 9745TIP3    H150650   4.475   6.529   1.788 -3.7318  1.4462  2.4618
 9745TIP3    H250651   4.358   6.462   1.719 -0.3641 -2.2136  0.1191
 9746TIP3   OH250652   4.906   1.165  12.849 -0.2661 -0.0659  0.5138
 9746TIP3    H150653   4.948   1.248  12.826 -2.6748  0.8884 -0.5077
 9746TIP3    H250654   4.971   1.120  12.904  2.0646  1.3789 -0.9887
 9747TIP3   OH250655   3.215   0.614  11.760  0.0699  0.2271 -0.9151
 9747TIP3    H150656   3.164   0.696  11.760  2.5710  1.9274  3.4175
 9747TIP3    H250657   3.291   0.634  11.706  0.6841  0.7691  0.1478
 9748TIP3   OH250658   0.810   3.404   1.770 -0.5521 -0.0827  0.1901
 9748TIP3    H150659   0.902   3.414   1.748 -0.2951  0.3800  1.4279
 9748TIP3    H250660   0.763   3.445   1.698  0.2905  1.9892  0.7924
 9749TIP3   OH250661   0.382   3.507  13.239  0.0704 -0.2504  0.5883
 9749TIP3    H150662   0.411   3.462  13.160 -1.9105 -0.9310  0.2002
 9749TIP3    H250663   0.457   3.505  13.298  1.3770 -0.2647 -1.0408
 9750TIP3   OH250664   4.311   4.639  16.409 -0.2506 -0.4772  0.2181
 9750TIP3    H150665   4.257   4.710  16.375 -0.5754 -1.1207 -0.6167
 9750TIP3    H250666   4.368   4.681  16.473 -1.4516  0.2725  0.8087
 9751TIP3   OH250667   1.771   3.553  10.797  0.4695  0.2933  0.0140
 9751TIP3    H150668   1.722   3.565  10.878 -2.5354 -1.1071 -1.5270
 9751TIP3    H250669   1.811   3.639  10.780 -0.6104  1.1718  1.8375
 9752TIP3   OH250670   1.766   2.894  15.596 -0.2336 -0.3777  0.0856
 9752TIP3    H150671   1.842   2.840  15.616  1.0300  0.8102 -1.4000
 9752TIP3    H250672   1.802   2.972  15.554 -2.1525  0.9038  0.7438
 9753TIP3   OH250673   5.314   5.091   1.623  0.6587 -0.3533  0.0307
 9753TIP3    H150674   5.398   5.128   1.597  0.6789 -0.9975 -0.8273
 9753TIP3    H250675   5.336   5.015   1.677  0.6169  0.8108  1.7492
 9754TIP3   OH250676   6.309   6.158   3.210  0.0410  0.5305  0.1612
 9754TIP3    H150677   6.332   6.202   3.291 -0.6400 -0.1953  0.7664
 9754TIP3    H250678   6.312   6.065   3.231 -2.2961  0.3779 -0.0161
 9755TIP3   OH250679   1.445   5.256   5.561  0.4377  0.0839 -0.1415
 9755TIP3    H150680   1.467   5.296   5.477 -2.5868  0.0580 -1.0171
 9755TIP3    H250681   1.363   5.299   5.587 -0.6592 -2.5676  0.9449
 9756TIP3   OH250682   5.083   3.847   2.873 -0.1812  0.6453  0.0141
 9756TIP3    H150683   5.121   3.768   2.836 -0.7978  0.3174  0.0870
 9756TIP3    H250684   5.158   3.904   2.888  0.3049 -0.0662  0.3059
 9757TIP3   OH250685   1.521   6.379  16.009 -0.2263 -0.5838  0.0695
 9757TIP3    H150686   1.563   6.397  16.093 -0.3264  2.5182 -0.4653
 9757TIP3    H250687   1.442   6.433  16.009 -0.7672 -1.3158 -1.6066
 9758TIP3   OH250688   4.196   3.339   3.841 -0.6010 -0.0400  0.1678
 9758TIP3    H150689   4.259   3.381   3.901 -0.6052  0.4221 -0.1478
 9758TIP3    H250690   4.198   3.394   3.763 -0.2385 -0.9184 -0.4425
 9759TIP3   OH250691   1.096   1.716  11.875 -0.4564 -0.5532  0.4512
 9759TIP3    H150692   1.177   1.739  11.922  2.2750 -1.7635 -3.4395
 9759TIP3    H250693   1.054   1.800  11.857  1.0073  0.2447  0.7114
 9760TIP3   OH250694   2.774   4.831  13.028 -0.3090 -1.0329  0.5225
 9760TIP3    H150695   2.740   4.903  12.975 -2.3452 -1.4694  1.1765
 9760TIP3    H250696   2.869   4.834  13.016 -0.4673  1.0435 -0.3549
 9761TIP3   OH250697   5.039   3.864  16.465  0.1871  0.0224  0.1441
 9761TIP3    H150698   5.099   3.793  16.489  0.5415 -0.3178 -1.6457
 9761TIP3    H250699   4.953   3.824  16.463  0.4784 -0.5331 -1.5499
 9762TIP3   OH250700   1.273   3.722  15.436 -0.3371  0.2919 -0.3888
 9762TIP3    H150701   1.328   3.682  15.368  1.0783  1.4825  0.0357
 9762TIP3    H250702   1.195   3.752  15.389  0.9917  1.8557 -1.6442
 9763TIP3   OH250703   5.319   3.664  16.664 -0.1622 -0.5417  0.3277
 9763TIP3    H150704   5.413   3.684  16.664 -0.3981  0.6754 -0.7844
 9763TIP3    H250705   5.296   3.655  16.756  0.4967  2.0342  0.7941
 9764TIP3   OH250706   4.045   3.702   5.493 -0.3508 -0.2358 -0.6472
 9764TIP3    H150707   4.072   3.620   5.536 -0.9710 -0.0331  0.1438
 9764TIP3    H250708   3.979   3.739   5.552 -0.9620  0.2271 -1.6065
 9765TIP3   OH250709   3.560   2.306   3.595  0.5075 -0.5343  0.0762
 9765TIP3    H150710   3.511   2.372   3.645 -1.0329  0.3788 -2.5546
 9765TIP3    H250711   3.505   2.228   3.598  0.9919 -0.8585  0.7871
 9766TIP3   OH250712   6.598   5.444  16.213  0.1216  0.2003 -0.0008
 9766TIP3    H150713   6.588   5.363  16.163  1.5694 -0.8548  1.3679
 9766TIP3    H250714   6.692   5.460  16.215 -0.0714  1.3358  0.6746
 9767TIP3   OH250715   5.182   6.759  11.156  0.3190 -0.1622 -0.4142
 9767TIP3    H150716   5.198   6.790  11.066 -0.9813  1.0133 -0.2542
 9767TIP3    H250717   5.266   6.721  11.183  1.4080  1.4990 -1.3263
 9768TIP3   OH250718   0.391   2.438  16.393  0.1328 -0.1623 -0.2379
 9768TIP3    H150719   0.466   2.463  16.446 -0.7976  0.7178  0.6642
 9768TIP3    H250720   0.328   2.508  16.405 -1.4585 -1.6403  0.2369
 9769TIP3   OH250721   6.667   3.752   2.753 -0.2955 -0.0567 -0.0401
 9769TIP3    H150722   6.708   3.696   2.819  1.2909 -1.8390 -2.4195
 9769TIP3    H250723   6.585   3.780   2.792  0.1754 -1.7984  2.3105
 9770TIP3   OH250724   5.463   3.152   3.655 -0.2003  0.6962 -0.2642
 9770TIP3    H150725   5.531   3.110   3.707  0.0505  1.3425 -0.0669
 9770TIP3    H250726   5.458   3.099   3.575  1.1397  1.1488 -0.6573
 9771TIP3   OH250727   2.345   2.500  16.129 -0.4247  0.5787  0.0211
 9771TIP3    H150728   2.388   2.432  16.181 -0.3620  1.0678  0.6250
 9771TIP3    H250729   2.417   2.555  16.098 -0.4267  0.0452 -0.9508
 9772TIP3   OH250730   4.078   5.543   3.861  0.1101 -0.2447 -0.3951
 9772TIP3    H150731   4.109   5.467   3.909  1.0544 -0.6773 -1.6639
 9772TIP3    H250732   4.003   5.511   3.810  0.0265 -0.1437 -0.3350
 9773TIP3   OH250733   3.393   3.340  11.077  0.1773 -0.2516  0.2100
 9773TIP3    H150734   3.330   3.308  11.012  1.5041  1.3521 -1.8985
 9773TIP3    H250735   3.338   3.367  11.151 -1.4985 -0.5217 -0.8869
 9774TIP3   OH250736   5.861   5.994   5.177 -0.6474 -0.3857 -0.5724
 9774TIP3    H150737   5.847   6.081   5.214 -1.7053 -0.9113  0.3043
 9774TIP3    H250738   5.858   5.935   5.253 -3.0351 -1.5191 -1.4892
 9775TIP3   OH250739   2.434   0.619  13.090 -0.0754  0.4427  0.2867
 9775TIP3    H150740   2.362   0.678  13.067 -0.9131 -0.0772  1.5071
 9775TIP3    H250741   2.461   0.580  13.007 -1.1679  0.6814 -0.1878
 9776TIP3   OH250742   4.925   3.022   5.043 -0.5911  0.2085 -0.1455
 9776TIP3    H150743   4.849   3.075   5.018  0.1193  0.7030 -1.2881
 9776TIP3    H250744   4.888   2.942   5.079 -1.6558  0.4061 -0.7882
 9777TIP3   OH250745   3.626   0.229   1.152  0.1800 -0.0881 -0.1762
 9777TIP3    H150746   3.630   0.318   1.187 -0.1545  0.1354 -0.7110
 9777TIP3    H250747   3.576   0.237   1.071 -0.2249 -0.8320 -0.0018
 9778TIP3   OH250748   0.005   2.647  14.443 -0.6627 -0.0466  0.2214
 9778TIP3    H150749   0.049   2.622  14.524  1.3578  1.1580 -0.4433
 9778TIP3    H250750  -0.025   2.737  14.458  0.1075  0.3424 -0.5023
 9779TIP3   OH250751   3.735   3.015   0.085 -0.0665 -0.5675  0.6553
 9779TIP3    H150752   3.786   3.017   0.004 -1.3376 -1.4798 -0.1812
 9779TIP3    H250753   3.760   3.096   0.131  1.5681 -0.6456 -0.0722
 9780TIP3   OH250754   5.056   4.550   4.286 -0.0357 -0.2425 -0.0027
 9780TIP3    H150755   5.024   4.465   4.316  0.5293  0.3197  2.3496
 9780TIP3    H250756   5.152   4.541   4.291  0.0237  0.4675  0.0978
 9781TIP3   OH250757   4.574   2.663   5.065 -0.2833 -0.6467 -0.5105
 9781TIP3    H150758   4.606   2.585   5.019 -1.3262  0.1909 -2.6911
 9781TIP3    H250759   4.479   2.659   5.055 -0.3774  0.6071 -0.1361
 9782TIP3   OH250760   4.155   2.020  16.887 -0.4250  0.4212  0.1355
 9782TIP3    H150761   4.239   1.977  16.869 -1.1383 -0.9206 -0.0590
 9782TIP3    H250762   4.154   2.096  16.829 -0.0548 -0.4641 -1.0398
 9783TIP3   OH250763   2.025   3.978   2.284 -0.6319  0.1730  0.4640
 9783TIP3    H150764   1.980   3.912   2.231 -2.0192 -0.0209  1.8335
 9783TIP3    H250765   2.104   4.000   2.235 -0.2648 -2.3584 -0.1235
 9784TIP3   OH250766   0.494   0.626   1.296  0.3829  0.1686 -0.1818
 9784TIP3    H150767   0.410   0.662   1.266  0.6102  1.2538  0.4442
 9784TIP3    H250768   0.538   0.598   1.215  0.1131  1.1509 -0.6783
 9785TIP3   OH250769   5.709   5.930   2.507 -0.1550  0.1591  0.1471
 9785TIP3    H150770   5.741   6.008   2.462 -1.8236  0.5516 -0.3844
 9785TIP3    H250771   5.751   5.857   2.462  0.1743  0.6724 -0.3815
 9786TIP3   OH250772   3.363   0.547  14.556 -0.3219 -0.3577  0.5286
 9786TIP3    H150773   3.449   0.508  14.543  0.2947  0.4672  1.9480
 9786TIP3    H250774   3.378   0.641  14.551 -1.1823 -0.2126  0.5284
 9787TIP3   OH250775   0.053   1.772   4.807 -0.4508  0.2666 -0.1052
 9787TIP3    H150776  -0.024   1.774   4.864 -1.6658  1.5657 -1.7592
 9787TIP3    H250777   0.058   1.859   4.769  0.5501 -0.4652 -1.7101
 9788TIP3   OH250778   4.387   1.415  11.150 -0.6192  0.4241 -0.1074
 9788TIP3    H150779   4.356   1.326  11.131  0.3107  0.0230  0.2294
 9788TIP3    H250780   4.478   1.403  11.179 -0.9528  1.3342  1.3581
 9789TIP3   OH250781   3.919   5.922  16.374 -0.1847 -0.5375 -0.3771
 9789TIP3    H150782   3.902   5.979  16.299  0.0775 -0.6443 -0.5152
 9789TIP3    H250783   3.998   5.873  16.351 -0.3866 -0.9327 -0.2414
 9790TIP3   OH250784   2.782   5.127  16.337 -0.2214  0.3301 -0.3028
 9790TIP3    H150785   2.752   5.198  16.280 -2.0346  0.7285  1.1103
 9790TIP3    H250786   2.738   5.049  16.304  1.9572 -0.2437 -2.0064
 9791TIP3   OH250787   0.617   3.654   2.321  0.1431  0.4989  0.3834
 9791TIP3    H150788   0.661   3.693   2.246  1.5047  1.5269  1.6688
 9791TIP3    H250789   0.611   3.561   2.300  1.0149  0.6861 -0.7493
 9792TIP3   OH250790   1.211   6.491  11.704  0.0044  0.2318  0.3441
 9792TIP3    H150791   1.279   6.525  11.762 -0.1655  1.6037 -0.2385
 9792TIP3    H250792   1.199   6.559  11.638 -1.0719 -0.5260 -0.2698
 9793TIP3   OH250793   2.867   0.116   4.093 -0.0027  0.3287 -0.0533
 9793TIP3    H150794   2.854   0.162   4.176  1.1395 -0.9816  0.8742
 9793TIP3    H250795   2.936   0.052   4.111  0.9635  0.6935 -2.2792
 9794TIP3   OH250796   6.351   6.554  12.647  0.1413  0.2339 -0.1512
 9794TIP3    H150797   6.355   6.477  12.591 -2.5583 -0.3946  0.4354
 9794TIP3    H250798   6.396   6.528  12.727  0.9551 -0.0436 -0.6888
 9795TIP3   OH250799   5.517   0.455   4.781  0.4125 -0.5653 -0.4487
 9795TIP3    H150800   5.472   0.530   4.744 -2.3172 -2.2818 -0.7222
 9795TIP3    H250801   5.559   0.413   4.706 -1.1009 -1.3412 -0.8724
 9796TIP3   OH250802   6.682   1.422   4.357  0.3454  0.1449 -0.1721
 9796TIP3    H150803   6.648   1.335   4.379  0.0686 -0.1043 -1.5181
 9796TIP3    H250804   6.615   1.460   4.300 -0.1581  1.7753  1.4883
 9797TIP3   OH250805   3.127   6.010   0.796  0.0672  0.0764  0.3281
 9797TIP3    H150806   3.062   6.046   0.735  0.8223  1.9508  0.6031
 9797TIP3    H250807   3.077   5.990   0.875 -0.5859 -0.6774 -0.2599
 9798TIP3   OH250808   5.144   2.245  16.787 -0.1608 -0.4360 -0.2282
 9798TIP3    H150809   5.148   2.212  16.876 -0.8393 -1.6034 -0.6224
 9798TIP3    H250810   5.123   2.338  16.797  0.6070 -0.3722  0.8478
 9799TIP3   OH250811   1.551   0.282  14.564  0.1861 -0.1300  0.2115
 9799TIP3    H150812   1.496   0.333  14.504  1.7288  0.0272 -1.0938
 9799TIP3    H250813   1.530   0.191  14.545 -0.8700 -0.0383  0.9176
 9800TIP3   OH250814   0.342   4.563  16.127  0.9456  0.0783 -0.3241
 9800TIP3    H150815   0.249   4.584  16.139  0.4847 -1.5458 -0.9368
 9800TIP3    H250816   0.384   4.597  16.206 -0.1238  1.1062 -0.1744
 9801TIP3   OH250817   5.230   3.276   0.703 -0.3394  0.5855 -0.0366
 9801TIP3    H150818   5.270   3.305   0.784 -1.5808  0.1612  0.7396
 9801TIP3    H250819   5.167   3.208   0.729 -0.1212 -0.1868 -1.4354
 9802TIP3   OH250820   0.142   1.421   5.500  0.6716  0.2271 -0.0007
 9802TIP3    H150821   0.132   1.415   5.595  1.6640  0.2316  0.1125
 9802TIP3    H250822   0.067   1.472   5.471 -0.0797 -0.4711  0.6902
 9803TIP3   OH250823   4.252   5.093   4.579 -0.0190 -0.7485 -0.1022
 9803TIP3    H150824   4.346   5.078   4.576 -0.1208 -1.4773  0.2163
 9803TIP3    H250825   4.240   5.183   4.548  0.6998 -0.9522 -0.9573
 9804TIP3   OH250826   2.835   4.446   5.197 -0.4688  0.0174  0.8457
 9804TIP3    H150827   2.869   4.535   5.210  0.1444  0.1725 -1.5745
 9804TIP3    H250828   2.750   4.459   5.156  0.9709 -0.4791 -2.5143
 9805TIP3   OH250829   2.246   6.322  13.429 -0.1084 -0.9487 -0.4441
 9805TIP3    H150830   2.220   6.230  13.438 -1.0322 -0.8318 -1.7770
 9805TIP3    H250831   2.298   6.324  13.348  0.4776 -0.4088 -0.0605
 9806TIP3   OH250832   0.881   1.978   3.398  0.1305  0.3678  0.4548
 9806TIP3    H150833   0.935   1.912   3.442 -0.8077 -1.8673 -1.5913
 9806TIP3    H250834   0.932   2.059   3.405  3.2220 -1.3946 -0.3565
 9807TIP3   OH250835   0.958   1.793   4.030  0.0123  0.4544 -0.2519
 9807TIP3    H150836   0.892   1.724   4.044 -0.8445  1.1754 -0.6827
 9807TIP3    H250837   0.969   1.833   4.116 -0.5302  0.7012 -0.2972
 9808TIP3   OH250838   1.013   3.984  12.447  0.2104  0.6727  0.5320
 9808TIP3    H150839   1.096   3.945  12.420 -0.5553 -1.3801  1.0777
 9808TIP3    H250840   0.999   4.056  12.385  1.8106  0.2999 -0.2831
 9809TIP3   OH250841   3.579   5.059  16.271  0.3265  0.1319  0.4469
 9809TIP3    H150842   3.513   5.067  16.202  1.8375  2.3400 -0.7961
 9809TIP3    H250843   3.638   5.132  16.256  3.1129 -1.8345  1.5073
 9810TIP3   OH250844   4.463   1.352  12.200 -0.2462 -0.2902 -0.2217
 9810TIP3    H150845   4.464   1.276  12.259  0.2801  0.2430  0.4678
 9810TIP3    H250846   4.387   1.337  12.144 -0.6470 -0.9089  0.4648
 9811TIP3   OH250847   0.758   0.694  11.669 -0.4631 -0.0459 -0.1254
 9811TIP3    H150848   0.769   0.759  11.600 -0.6369  0.2593  0.1329
 9811TIP3    H250849   0.791   0.737  11.748  0.8636 -0.8320 -0.2431
 9812TIP3   OH250850   5.991   6.387  14.697 -0.2084 -0.0677 -0.0650
 9812TIP3    H150851   5.908   6.344  14.680 -1.2239  2.2822 -1.3220
 9812TIP3    H250852   6.017   6.357  14.784  0.1588 -4.7269 -1.6790
 9813TIP3   OH250853   5.834   3.544   1.280 -0.2433 -0.5846 -0.4967
 9813TIP3    H150854   5.744   3.559   1.309 -0.2071  0.9608 -1.1123
 9813TIP3    H250855   5.868   3.477   1.339 -0.9243  0.8133  1.5477
 9814TIP3   OH250856   2.619   2.075   1.053 -0.1568 -0.2059 -0.4275
 9814TIP3    H150857   2.697   2.020   1.059 -0.1716 -0.0627  1.1998
 9814TIP3    H250858   2.593   2.090   1.144 -0.2428  2.3675 -0.8301
 9815TIP3   OH250859   0.709   3.158  14.717  0.1215 -0.0492 -0.3765
 9815TIP3    H150860   0.744   3.102  14.648  1.3415  0.3022 -0.0622
 9815TIP3    H250861   0.721   3.108  14.798  0.8190  0.4732 -0.1481
 9816TIP3   OH250862   2.521   5.286   1.075  0.3862  0.5548  0.0937
 9816TIP3    H150863   2.613   5.271   1.096  0.0933 -2.0267 -0.3711
 9816TIP3    H250864   2.473   5.256   1.152 -0.1217  1.0266 -0.0311
 9817TIP3   OH250865   5.480   0.876  17.224  0.4277 -0.8374  0.2411
 9817TIP3    H150866   5.570   0.902  17.245 -1.0756  2.1871  3.3994
 9817TIP3    H250867   5.472   0.787  17.259  2.4672 -1.5888 -1.0966
 9818TIP3   OH250868   1.677   2.442  14.473 -0.0195  0.2829 -0.8675
 9818TIP3    H150869   1.731   2.495  14.414 -0.7854 -1.0837 -2.8461
 9818TIP3    H250870   1.705   2.352  14.458  0.6588  0.0129  1.8304
 9819TIP3   OH250871   5.457   2.114   3.272  0.4538  0.5870 -0.2607
 9819TIP3    H150872   5.446   2.207   3.289 -3.7867  0.0454  0.6863
 9819TIP3    H250873   5.433   2.102   3.180  0.8418  0.4196 -0.3408
 9820TIP3   OH250874   0.243   6.033   3.669  0.3234  0.0631 -0.4873
 9820TIP3    H150875   0.329   6.018   3.708  2.1273  2.0443 -3.5057
 9820TIP3    H250876   0.227   6.127   3.680 -1.5339 -0.3002  0.1493
 9821TIP3   OH250877   5.903   2.665   1.289  0.2358 -0.4074  0.0589
 9821TIP3    H150878   5.951   2.649   1.208 -0.4657 -3.5493  0.1863
 9821TIP3    H250879   5.820   2.705   1.261  1.3822  1.6753 -0.4461
 9822TIP3   OH250880   2.343   1.121  11.195  0.1555 -0.0993  0.0064
 9822TIP3    H150881   2.417   1.106  11.137 -0.6050 -2.4616 -0.4040
 9822TIP3    H250882   2.269   1.079  11.152 -0.8688 -0.1095  1.6945
 9823TIP3   OH250883   0.202   2.107  12.390 -0.2497 -0.3633  0.8333
 9823TIP3    H150884   0.165   2.166  12.455  1.8917  2.2451 -0.1760
 9823TIP3    H250885   0.283   2.075  12.430  0.0649 -0.3014  0.2655
 9824TIP3   OH250886   0.995   5.378  15.067 -0.3470  0.2942  0.6118
 9824TIP3    H150887   1.019   5.405  14.978  2.6725  1.0861  1.6193
 9824TIP3    H250888   0.968   5.459  15.110 -0.9027  0.0561  0.7236
 9825TIP3   OH250889   0.937   5.051  15.025  0.6264 -0.0285  0.4246
 9825TIP3    H150890   0.943   5.135  15.070  2.1549  1.1647 -1.8838
 9825TIP3    H250891   0.987   5.064  14.944 -0.9284 -2.4797 -0.9961
 9826TIP3   OH250892   5.055   4.251   6.676 -0.3995  0.4560 -0.1692
 9826TIP3    H150893   4.968   4.214   6.692  0.7102 -0.8147  3.4417
 9826TIP3    H250894   5.113   4.174   6.671  0.6851  1.3375 -1.4780
 9827TIP3   OH250895   2.660   1.884  15.529 -0.4702  0.1310 -0.5651
 9827TIP3    H150896   2.699   1.890  15.442 -0.7379 -0.6077 -0.7356
 9827TIP3    H250897   2.661   1.791  15.550  1.3953  0.4708  1.0531
 9828TIP3   OH250898   2.098   2.676  11.823 -0.7952 -0.1545 -0.5995
 9828TIP3    H150899   2.190   2.702  11.821  0.9309 -5.5638  0.4266
 9828TIP3    H250900   2.076   2.660  11.731 -0.3333 -0.1369 -0.7158
 9829TIP3   OH250901   5.050   3.462   5.068 -0.1494 -0.1001  0.2796
 9829TIP3    H150902   5.088   3.414   5.141 -0.1925 -1.1518 -0.3845
 9829TIP3    H250903   5.072   3.411   4.991  0.9009  1.6090 -0.5942
 9830TIP3   OH250904   5.964   4.320   2.483 -0.2978  0.0493 -0.0022
 9830TIP3    H150905   5.969   4.259   2.410  2.7530  1.2887 -0.9259
 9830TIP3    H250906   5.873   4.348   2.486 -0.9779 -1.8937 -1.7568
 9831TIP3   OH250907   0.241   1.288   1.435  0.2368  0.8429  0.0411
 9831TIP3    H150908   0.334   1.286   1.458  0.3139  3.4766  0.0805
 9831TIP3    H250909   0.198   1.241   1.507  1.5811 -1.0300 -0.3502
 9832TIP3   OH250910   0.481   1.768   5.221 -0.2098 -0.2932 -0.1778
 9832TIP3    H150911   0.429   1.729   5.291 -0.3876  0.3104  0.0292
 9832TIP3    H250912   0.417   1.787   5.152 -0.2427  0.2778  0.0033
 9833TIP3   OH250913   4.750   6.462   4.596  0.5112 -0.0645  0.2023
 9833TIP3    H150914   4.672   6.503   4.635  0.8650  0.4912  0.3282
 9833TIP3    H250915   4.752   6.494   4.506 -0.9721 -2.2776 -0.6603
 9834TIP3   OH250916   3.926   2.764  16.926 -0.6932  0.3976  0.1524
 9834TIP3    H150917   3.972   2.680  16.919 -0.1723  0.6702  0.2210
 9834TIP3    H250918   3.917   2.779  17.020 -0.1905  0.7276  0.1535
 9835TIP3   OH250919   3.519   6.690  15.630 -0.5059  0.7937  0.1059
 9835TIP3    H150920   3.499   6.783  15.620  0.3845  1.2097  2.0957
 9835TIP3    H250921   3.476   6.665  15.711  0.8144 -0.0891  0.5416
 9836TIP3   OH250922   0.033   4.305  14.653  0.4634 -0.5502 -0.0890
 9836TIP3    H150923   0.004   4.393  14.675  0.9644  0.0391 -1.7609
 9836TIP3    H250924   0.127   4.305  14.672  0.4635 -0.7362 -0.0826
 9837TIP3   OH250925   2.167   2.882  11.024  0.1266  0.4854  0.1234
 9837TIP3    H150926   2.216   2.960  11.048 -0.5020  1.0331 -0.3808
 9837TIP3    H250927   2.083   2.891  11.068 -0.0500  0.2233 -0.1561
 9838TIP3   OH250928   4.203   4.617  12.837  0.4688  0.7591  0.1710
 9838TIP3    H150929   4.135   4.550  12.832 -0.8867  2.1794 -1.2929
 9838TIP3    H250930   4.278   4.574  12.878 -0.9649 -1.1352  0.8188
 9839TIP3   OH250931   1.049   0.694  16.654 -0.0959  0.0670  0.4307
 9839TIP3    H150932   1.023   0.603  16.662 -0.1093 -0.0208 -0.5117
 9839TIP3    H250933   1.130   0.701  16.705 -0.5025 -0.2909  1.1249
 9840TIP3   OH250934   6.058   6.123  14.973  0.2260 -0.1497  0.0201
 9840TIP3    H150935   6.051   6.218  14.977  0.3140 -0.1053 -0.8758
 9840TIP3    H250936   6.093   6.098  15.058  1.4622  0.7327 -0.2234
 9841TIP3   OH250937   4.220   0.896   1.709  0.1411  0.2450  0.2892
 9841TIP3    H150938   4.305   0.921   1.674 -0.4706 -0.8855 -2.0687
 9841TIP3    H250939   4.157   0.930   1.646 -0.9459 -2.5110 -0.1552
 9842TIP3   OH250940   5.934   3.869   3.958 -0.3352  0.1925  0.6763
 9842TIP3    H150941   6.008   3.928   3.943 -1.1722  0.8019 -1.1858
 9842TIP3    H250942   5.973   3.792   3.999  1.0977  1.1262  1.1102
 9843TIP3   OH250943   0.587   0.503   2.445 -0.3697 -0.1142 -0.2611
 9843TIP3    H150944   0.550   0.471   2.528 -1.5323  0.7596 -0.4464
 9843TIP3    H250945   0.563   0.436   2.381  0.2573 -0.6312  0.0307
 9844TIP3   OH250946   0.730   2.193  17.112 -0.2194 -0.5886  0.3009
 9844TIP3    H150947   0.649   2.244  17.118 -0.1323 -0.5497  1.2202
 9844TIP3    H250948   0.707   2.120  17.055 -0.1820  0.7783 -1.5211
 9845TIP3   OH250949   1.961   3.349  12.246 -0.1075 -0.6985  0.6181
 9845TIP3    H150950   2.019   3.328  12.320 -0.3901 -0.4200  0.9202
 9845TIP3    H250951   1.883   3.295  12.261  0.1140 -1.1529  0.1532
 9846TIP3   OH250952   0.621   1.543   5.450 -0.7116 -0.8714 -0.2322
 9846TIP3    H150953   0.556   1.522   5.517  0.9365 -0.9376  1.3642
 9846TIP3    H250954   0.652   1.630   5.473  0.8895 -1.4682 -0.0747
 9847TIP3   OH250955   4.381   2.483  14.169  0.3957  0.3786  0.1465
 9847TIP3    H150956   4.397   2.555  14.108 -1.9802  0.5937 -0.2864
 9847TIP3    H250957   4.322   2.520  14.235  1.4986 -0.3688  1.5799
 9848TIP3   OH250958   3.456   1.735   1.982 -0.2789  0.2981  0.1033
 9848TIP3    H150959   3.498   1.805   1.931 -0.0016  0.3510  0.4082
 9848TIP3    H250960   3.513   1.722   2.058  0.7889 -1.7252 -1.0038
 9849TIP3   OH250961   0.389   3.124  13.119 -0.2432  0.3955 -0.3852
 9849TIP3    H150962   0.368   3.149  13.209  0.8044  0.7972 -0.2463
 9849TIP3    H250963   0.423   3.204  13.080 -0.7237  0.2277 -1.1521
 9850TIP3   OH250964   0.521   6.526   0.643  0.4614 -0.6944  0.2565
 9850TIP3    H150965   0.514   6.458   0.710 -1.5704 -0.0170  0.7839
 9850TIP3    H250966   0.614   6.548   0.641  0.7014 -1.4100  2.1844
 9851TIP3   OH250967   5.121   4.000  11.963  0.1404 -0.4972 -0.3053
 9851TIP3    H150968   5.079   4.085  11.953  0.6574 -0.3261 -1.0239
 9851TIP3    H250969   5.095   3.971  12.051 -1.5714 -0.4594 -0.7848
 9852TIP3   OH250970   5.099   3.085   5.296 -0.1445  0.1305 -0.2583
 9852TIP3    H150971   5.039   3.045   5.358 -0.4989  0.0726 -0.6393
 9852TIP3    H250972   5.073   3.051   5.210  1.4833 -1.1745 -0.2467
 9853TIP3   OH250973   6.398   2.585   5.086 -0.3457 -0.7728  0.7031
 9853TIP3    H150974   6.433   2.568   4.998 -1.0129 -0.3780  0.3638
 9853TIP3    H250975   6.438   2.517   5.140  0.7497 -0.4921  0.2702
 9854TIP3   OH250976   1.545   1.774  16.338 -0.2070 -0.1219 -0.3006
 9854TIP3    H150977   1.562   1.862  16.370  1.4791 -0.5421 -0.0070
 9854TIP3    H250978   1.573   1.776  16.246 -0.0909 -0.3764 -0.2710
 9855TIP3   OH250979   2.422   3.812   6.400  0.4911  0.3159 -0.5471
 9855TIP3    H150980   2.504   3.835   6.443  0.3607  1.2010 -0.7695
 9855TIP3    H250981   2.373   3.762   6.466  1.3107 -0.4440 -0.5009
 9856TIP3   OH250982   4.598   4.630  12.418 -0.1361 -0.7774 -0.1804
 9856TIP3    H150983   4.619   4.548  12.372 -1.6092 -1.2639 -0.0379
 9856TIP3    H250984   4.668   4.690  12.393  0.6221 -1.8927 -0.8050
 9857TIP3   OH250985   1.823   0.296   0.086 -0.4294  0.0316  0.3535
 9857TIP3    H150986   1.838   0.214   0.133  2.4446 -0.0687 -0.6804
 9857TIP3    H250987   1.874   0.287   0.006 -0.5300  2.6279 -0.0178
 9858TIP3   OH250988   3.503   1.336  12.998 -0.0899 -0.4065 -0.2242
 9858TIP3    H150989   3.509   1.245  12.971  0.5886 -0.1734 -0.8611
 9858TIP3    H250990   3.584   1.351  13.048  0.6487  0.3293 -1.6037
 9859TIP3   OH250991   1.437   4.940   4.043  0.7476  0.7662  0.1751
 9859TIP3    H150992   1.473   4.905   3.961 -1.3978 -0.2228 -0.4040
 9859TIP3    H250993   1.352   4.976   4.017  0.2237  0.7985  1.9085
 9860TIP3   OH250994   1.897   1.745  15.270  0.2092 -0.3961 -0.3798
 9860TIP3    H150995   1.843   1.669  15.291 -0.5216 -0.2196 -1.5305
 9860TIP3    H250996   1.846   1.820  15.300 -1.9776  0.0294 -4.7193
 9861TIP3   OH250997   0.127   1.345   1.849 -0.4429  0.1451 -0.6303
 9861TIP3    H150998   0.170   1.291   1.782  0.7385 -1.1390  1.1202
 9861TIP3    H250999   0.132   1.293   1.929  2.3284  3.5452  1.5599
 9862TIP3   OH251000   3.521   4.334   6.250  0.8690  0.1994 -0.8447
 9862TIP3    H151001   3.572   4.301   6.176 -0.4062  0.0194 -1.6446
 9862TIP3    H251002   3.587   4.354   6.317  2.1083  1.1184 -2.3013
 9863TIP3   OH251003   2.309   2.710  15.205 -0.6961  0.4532 -0.2922
 9863TIP3    H151004   2.316   2.799  15.172  0.2684 -0.1412 -1.7577
 9863TIP3    H251005   2.223   2.680  15.177 -0.7759  0.7229 -0.3315
 9864TIP3   OH251006   6.435   4.416  14.470 -0.3805  0.2245  0.4569
 9864TIP3    H151007   6.506   4.478  14.454  0.2760 -0.4680  0.6394
 9864TIP3    H251008   6.363   4.470  14.501 -0.8093  1.2428 -2.2540
 9865TIP3   OH251009   5.449   5.079   0.327  0.4345  0.5413  0.1280
 9865TIP3    H151010   5.358   5.105   0.313  0.4848 -0.0078 -1.3523
 9865TIP3    H251011   5.449   5.033   0.411 -0.3791  1.7770  0.8266
 9866TIP3   OH251012   1.528   6.155  14.351  0.2647  0.4002  0.6015
 9866TIP3    H151013   1.573   6.082  14.394  0.3040  0.0834  0.0274
 9866TIP3    H251014   1.463   6.113  14.294  2.2198  0.6825 -1.9523
 9867TIP3   OH251015   1.565   3.116   6.837  0.4946 -0.0621  0.0263
 9867TIP3    H151016   1.649   3.094   6.797 -0.2950 -1.1070 -1.1027
 9867TIP3    H251017   1.519   3.032   6.844 -1.0444  0.6979 -0.7357
 9868TIP3   OH251018   0.509   5.074  14.516 -0.0521 -0.2742  0.1154
 9868TIP3    H151019   0.420   5.108  14.527 -0.9170 -2.0378 -1.1417
 9868TIP3    H251020   0.537   5.053  14.605 -1.5175 -1.2020  0.3743
 9869TIP3   OH251021   4.349   3.784   3.484 -0.5487 -0.1752 -0.3612
 9869TIP3    H151022   4.377   3.701   3.446 -0.6612 -0.8283  0.9536
 9869TIP3    H251023   4.364   3.848   3.414  0.9852 -1.0469 -0.8632
 9870TIP3   OH251024   3.337   5.032   3.742  0.2568 -0.5765  0.2903
 9870TIP3    H151025   3.391   4.980   3.682 -0.4363 -0.3310 -0.5461
 9870TIP3    H251026   3.261   5.057   3.691  0.7486  1.5828  0.5503
 9871TIP3   OH251027   4.616   1.599  16.731 -0.2842 -0.4673 -0.2674
 9871TIP3    H151028   4.627   1.597  16.827  0.7489 -2.2976 -0.3871
 9871TIP3    H251029   4.523   1.619  16.718 -0.3432  0.2364  1.1129
 9872TIP3   OH251030   3.994   1.294  14.375  0.1629 -0.1295 -0.7834
 9872TIP3    H151031   3.921   1.234  14.387 -0.2192  0.5850  0.5435
 9872TIP3    H251032   4.059   1.267  14.440 -0.9261  2.2611  1.3711
 9873TIP3   OH251033   5.043   4.926  13.665  0.0380  0.0342  0.7752
 9873TIP3    H151034   5.113   4.897  13.606 -0.6351  0.0468 -0.0478
 9873TIP3    H251035   5.067   4.890  13.750 -0.1771 -1.9578  0.0141
 9874TIP3   OH251036   3.838   0.573   4.182 -0.5578 -0.1153 -0.1119
 9874TIP3    H151037   3.869   0.579   4.272 -3.5116  0.8571  0.9036
 9874TIP3    H251038   3.800   0.485   4.175 -0.8706  0.0250 -0.2155
 9875TIP3   OH251039   4.835   4.695  13.924  0.3531  0.1742 -0.2997
 9875TIP3    H151040   4.790   4.612  13.907  0.5761 -0.0122  0.0214
 9875TIP3    H251041   4.768   4.750  13.966 -0.0562  0.4659 -1.3096
 9876TIP3   OH251042   3.449   6.421   1.327  0.3089 -0.3344  0.1040
 9876TIP3    H151043   3.500   6.501   1.345  0.4144 -0.3436 -0.1575
 9876TIP3    H251044   3.419   6.392   1.414  1.8614 -1.0728  0.4181
 9877TIP3   OH251045   0.453   6.034  14.113  1.0388  0.3908 -0.3813
 9877TIP3    H151046   0.477   6.022  14.021 -0.2961  2.4330 -1.0327
 9877TIP3    H251047   0.528   6.079  14.151  1.0723  0.6806 -0.7802
 9878TIP3   OH251048   6.421   6.413  10.906 -0.1207 -0.7057 -0.5858
 9878TIP3    H151049   6.338   6.451  10.876  0.2096  0.9934  0.5688
 9878TIP3    H251050   6.411   6.407  11.001  0.5328 -1.8542 -0.5857
 9879TIP3   OH251051   1.379   2.204  14.252  0.4539  0.2870 -0.5815
 9879TIP3    H151052   1.296   2.222  14.207  0.3792  0.6291 -0.3136
 9879TIP3    H251053   1.363   2.122  14.298 -0.0503  0.8160  0.2113
 9880TIP3   OH251054   4.624   5.101   6.217 -0.0323 -0.6038  0.0140
 9880TIP3    H151055   4.597   5.018   6.257  0.8319 -1.4696 -1.1732
 9880TIP3    H251056   4.660   5.152   6.289  0.8016 -1.8502  0.5012
 9881TIP3   OH251057   4.949   4.604  15.700  0.1668  0.1942  0.4947
 9881TIP3    H151058   4.890   4.530  15.708 -0.3132  0.6137  0.8984
 9881TIP3    H251059   5.036   4.568  15.716  0.0629 -0.4842 -0.4121
 9882TIP3   OH251060   5.489   4.927  14.320 -0.3216 -0.2225 -0.0247
 9882TIP3    H151061   5.467   4.999  14.260  0.8847 -0.9827 -1.4234
 9882TIP3    H251062   5.417   4.926  14.382 -1.7306  0.4800 -1.5823
 9883TIP3   OH251063   4.366   1.672   2.608  0.1181 -0.3958 -0.0044
 9883TIP3    H151064   4.336   1.602   2.551 -1.8471  0.7996 -0.5002
 9883TIP3    H251065   4.458   1.652   2.626 -0.1232 -2.4632 -1.0378
 9884TIP3   OH251066   4.140   5.198   3.645 -0.1414  0.2089 -0.3693
 9884TIP3    H151067   4.143   5.264   3.575 -1.0832 -0.4749 -1.0689
 9884TIP3    H251068   4.069   5.228   3.703  0.7276  0.8467  0.3757
 9885TIP3   OH251069   5.461   2.733  13.348 -0.1512 -0.0994 -0.1265
 9885TIP3    H151070   5.509   2.815  13.359  0.5506 -0.2317 -2.0447
 9885TIP3    H251071   5.377   2.758  13.311  0.6601 -0.3536 -2.1996
 9886TIP3   OH251072   1.071   3.639  11.688  0.2640 -0.0586 -0.3590
 9886TIP3    H151073   1.124   3.626  11.766 -0.5483  0.6533  0.3308
 9886TIP3    H251074   1.049   3.550  11.658 -0.8007 -0.3505  1.1965
 9887TIP3   OH251075   6.555   3.391  12.201 -0.6619 -0.1022 -0.1433
 9887TIP3    H151076   6.523   3.301  12.210  2.4422 -1.2234  0.5018
 9887TIP3    H251077   6.509   3.440  12.269 -1.2567 -1.5188  0.4901
 9888TIP3   OH251078   6.127   3.350  16.133 -0.1355 -0.5421  0.4547
 9888TIP3    H151079   6.199   3.406  16.103  0.0798  0.1681  2.2496
 9888TIP3    H251080   6.164   3.298  16.204 -1.0200 -1.1775  0.4646
 9889TIP3   OH251081   2.223   2.689   4.669 -0.2778 -0.3701  0.0102
 9889TIP3    H151082   2.132   2.721   4.665 -0.4054 -0.4890  1.8073
 9889TIP3    H251083   2.276   2.769   4.676 -0.2806 -0.3339 -0.3581
 9890TIP3   OH251084   2.842   3.426  12.371  0.0678  0.3314  0.1664
 9890TIP3    H151085   2.904   3.369  12.417  0.8820  0.5438 -0.6590
 9890TIP3    H251086   2.887   3.510  12.364 -0.9036  0.9304  0.8692
 9891TIP3   OH251087   2.636   3.266   4.846  0.3853  0.6652 -0.4266
 9891TIP3    H151088   2.695   3.207   4.894 -0.2014  1.2753  1.0568
 9891TIP3    H251089   2.549   3.226   4.855  0.2886  0.6945 -1.1485
 9892TIP3   OH251090   5.429   3.642   1.823 -0.7312  0.1918 -0.1774
 9892TIP3    H151091   5.344   3.600   1.810 -0.6697  0.1897 -0.5777
 9892TIP3    H251092   5.447   3.686   1.740 -1.0638  1.4942  0.4314
 9893TIP3   OH251093   3.623   1.693   2.228 -0.1278  0.0513  0.0319
 9893TIP3    H151094   3.623   1.616   2.171 -0.0146 -0.2363  0.4132
 9893TIP3    H251095   3.674   1.665   2.304 -0.0941  0.5033  0.1743
 9894TIP3   OH251096   3.159   2.877  16.534  0.8072  0.1579  0.1693
 9894TIP3    H151097   3.112   2.895  16.453  1.4504 -0.7552 -0.4179
 9894TIP3    H251098   3.095   2.893  16.603  0.0599  0.2931 -0.5432
 9895TIP3   OH251099   0.301   1.997   4.669  0.5626 -0.0934  0.4416
 9895TIP3    H151100   0.349   1.932   4.720  1.1209  0.3067  0.4364
 9895TIP3    H251101   0.355   2.011   4.591  1.7471  2.1903  1.6051
 9896TIP3   OH251102   5.495   3.202  13.716 -0.0668 -0.4292 -0.1165
 9896TIP3    H151103   5.550   3.180  13.641  1.3335  1.7404  0.2233
 9896TIP3    H251104   5.556   3.206  13.790 -0.5772  2.2782  0.2136
 9897TIP3   OH251105   4.703   0.460  16.589  0.0822 -0.8673 -0.0250
 9897TIP3    H151106   4.626   0.447  16.533  0.1168  1.1200 -0.5575
 9897TIP3    H251107   4.694   0.549  16.622  0.7385 -1.5891  2.1235
 9898TIP3   OH251108   3.465   0.921   4.538  0.6774 -0.0483 -0.2815
 9898TIP3    H151109   3.382   0.966   4.556  0.0153 -1.0174 -0.8122
 9898TIP3    H251110   3.531   0.990   4.541  0.4552  0.1295  4.2550
 9899TIP3   OH251111   2.376   2.118   4.790  0.5117  0.2314 -0.2633
 9899TIP3    H151112   2.356   2.180   4.721  1.6770  0.1996 -0.6399
 9899TIP3    H251113   2.355   2.032   4.753  0.7866  0.2436 -0.4476
 9900TIP3   OH251114   6.378   1.330   2.170 -0.1757 -0.1045  1.0589
 9900TIP3    H151115   6.323   1.405   2.190  0.1689  0.5421 -0.3719
 9900TIP3    H251116   6.320   1.254   2.179 -1.1027  0.5109  0.3119
 9901TIP3   OH251117   6.669   4.026   2.461 -0.0729  0.2700 -0.3355
 9901TIP3    H151118   6.738   3.980   2.509  0.3630  2.3510  1.1267
 9901TIP3    H251119   6.716   4.090   2.407 -0.7662  0.6124 -0.5374
 9902TIP3   OH251120   1.373   1.247  14.195  0.3751  0.4620  0.2210
 9902TIP3    H151121   1.342   1.261  14.284  0.1019  0.9025  0.0570
 9902TIP3    H251122   1.451   1.192  14.205 -0.1523 -0.2254  0.6721
 9903TIP3   OH251123   0.658   6.142  16.665 -0.0475  0.1490  0.9237
 9903TIP3    H151124   0.689   6.208  16.727  0.1915  0.3442  0.5915
 9903TIP3    H251125   0.619   6.074  16.721 -1.3718  1.1250  1.1994
 9904TIP3   OH251126   3.759   3.980   4.267  0.4949  0.0491  0.5688
 9904TIP3    H151127   3.686   4.004   4.324 -0.4150  1.4146 -1.1145
 9904TIP3    H251128   3.813   4.059   4.262  1.7944 -0.7717  1.3329
 9905TIP3   OH251129   6.146   5.311  10.875  0.3972  0.1212  0.5269
 9905TIP3    H151130   6.131   5.374  10.945  0.7237 -0.2959  0.9787
 9905TIP3    H251131   6.237   5.282  10.888  0.8514  0.9142 -0.7739
 9906TIP3   OH251132   2.202   2.365  12.999 -0.3608  0.4638  0.0450
 9906TIP3    H151133   2.164   2.305  12.935  0.5628 -0.2010  0.1068
 9906TIP3    H251134   2.296   2.347  12.996  0.0023  2.2738 -0.3074
 9907TIP3   OH251135   5.416   2.344  15.696  0.0879  0.1678  0.2632
 9907TIP3    H151136   5.403   2.254  15.726 -3.2187  0.1637 -0.9563
 9907TIP3    H251137   5.361   2.352  15.618  1.3709  2.8685 -0.4333
 9908TIP3   OH251138   6.785   6.543   1.252 -0.4244  0.2239 -0.0270
 9908TIP3    H151139   6.741   6.465   1.219 -3.5879  1.5518  0.8247
 9908TIP3    H251140   6.871   6.543   1.209  0.0175 -4.1759  0.6903
 9909TIP3   OH251141   3.227   3.940  14.271  0.1051  0.0383 -0.0040
 9909TIP3    H151142   3.299   3.894  14.227  0.4811  0.3010  0.3278
 9909TIP3    H251143   3.270   4.012  14.318 -0.4966  0.8511 -0.6705
 9910TIP3   OH251144   1.305   3.045  10.932  0.7967 -0.1417 -0.2014
 9910TIP3    H151145   1.341   3.131  10.913  2.4994 -0.5104  1.2094
 9910TIP3    H251146   1.304   2.999  10.848 -0.5855  1.3985 -1.0456
 9911TIP3   OH251147   5.542   5.933  10.678 -0.1282  0.8060  0.0583
 9911TIP3    H151148   5.570   6.014  10.636 -0.1896  1.6595  1.6251
 9911TIP3    H251149   5.460   5.957  10.722 -2.2696 -1.1049 -2.7178
 9912TIP3   OH251150   3.926   6.405  11.629 -0.0852  0.1137  0.6070
 9912TIP3    H151151   3.989   6.437  11.694 -0.4397  3.4904 -0.6314
 9912TIP3    H251152   3.844   6.396  11.678  0.0531  1.0081  1.0030
 9913TIP3   OH251153   6.109   1.752  17.100  0.2254 -0.6858  0.0892
 9913TIP3    H151154   6.082   1.748  17.009 -0.9810  1.6994  0.3085
 9913TIP3    H251155   6.176   1.684  17.108  0.9916 -0.3323 -2.7894
 9914TIP3   OH251156   1.199   3.647   3.256 -1.4910 -0.0528 -0.4871
 9914TIP3    H151157   1.230   3.559   3.235 -0.8492  0.3304 -1.1890
 9914TIP3    H251158   1.196   3.650   3.351 -1.1795 -0.7228 -0.4529
 9915TIP3   OH251159   5.335   0.790   1.001  0.1644  0.0364  0.6129
 9915TIP3    H151160   5.382   0.839   1.068 -0.8412 -0.3945  1.6465
 9915TIP3    H251161   5.291   0.719   1.048  0.5058 -1.0588 -0.6822
 9916TIP3   OH251162   0.237   4.633  14.980  0.2062  0.0673 -0.1511
 9916TIP3    H151163   0.331   4.652  14.981  0.0221  1.0967 -1.4271
 9916TIP3    H251164   0.196   4.716  14.957 -0.8078 -1.0873 -2.7099
 9917TIP3   OH251165   4.369   3.378  13.035 -0.6611 -0.4785  0.0158
 9917TIP3    H151166   4.379   3.351  12.944  2.1426  1.7688 -0.3910
 9917TIP3    H251167   4.376   3.473  13.034 -0.2916 -0.4279  2.6261
 9918TIP3   OH251168   5.744   5.222   3.632 -0.1747 -0.1523 -0.5906
 9918TIP3    H151169   5.789   5.167   3.696 -0.0731  0.0079 -0.5257
 9918TIP3    H251170   5.721   5.162   3.561 -0.2328 -0.3179 -0.4322
 9919TIP3   OH251171   0.968   6.776  10.783  0.4447  0.3250  0.5002
 9919TIP3    H151172   0.894   6.741  10.734  0.2818 -0.9169  1.6095
 9919TIP3    H251173   0.936   6.859  10.819  0.2317  0.7291 -0.6290
 9920TIP3   OH251174   3.405   4.337  12.618  0.6488  0.1983  0.0030
 9920TIP3    H151175   3.437   4.279  12.686  0.4665  0.6551  0.4780
 9920TIP3    H251176   3.474   4.403  12.607 -0.7609  2.0863  2.1132
 9921TIP3   OH251177   3.521   6.059  14.672 -0.6878  0.6506  0.7054
 9921TIP3    H151178   3.567   6.114  14.608  2.2017  0.2483  2.3647
 9921TIP3    H251179   3.589   6.005  14.711 -2.7749 -0.8071  2.4505
 9922TIP3   OH251180   4.592   4.074  14.528  0.9395 -0.2797 -0.0250
 9922TIP3    H151181   4.565   4.005  14.589 -1.6618  1.9895  1.4594
 9922TIP3    H251182   4.519   4.083  14.467  1.0126  1.5956  0.1537
 9923TIP3   OH251183   4.822   0.481   0.025 -0.4679 -0.1481  0.1406
 9923TIP3    H151184   4.852   0.440  -0.056 -0.0377  1.4975 -0.5490
 9923TIP3    H251185   4.742   0.433   0.047 -0.9281 -0.2179 -1.5946
 9924TIP3   OH251186   5.604   2.726  16.515  0.3912  0.1107  0.2582
 9924TIP3    H151187   5.634   2.662  16.450  1.0582 -0.5630  1.2138
 9924TIP3    H251188   5.621   2.811  16.474  0.4705 -0.3111 -0.5908
 9925TIP3   OH251189   3.856   5.595  12.680 -0.3266  0.0227 -0.2790
 9925TIP3    H151190   3.855   5.515  12.626  2.7623  0.1129 -0.5797
 9925TIP3    H251191   3.869   5.666  12.617 -2.1009  0.6696  0.0783
 9926TIP3   OH251192   6.089   1.703   3.490 -0.4692 -0.1473  0.4138
 9926TIP3    H151193   6.040   1.783   3.471  0.5494  0.1778 -0.8819
 9926TIP3    H251194   6.180   1.731   3.496 -0.0687 -1.2637 -0.3644
 9927TIP3   OH251195   2.426   5.612   0.607 -0.4951 -1.0545  0.4651
 9927TIP3    H151196   2.514   5.585   0.633 -0.1939 -0.6345 -0.1182
 9927TIP3    H251197   2.369   5.574   0.674  0.0005 -2.3511  0.1710
 9928TIP3   OH251198   0.749   0.694   5.433 -0.0762  0.0634 -0.6185
 9928TIP3    H151199   0.676   0.720   5.377 -0.9441  0.2840  0.5837
 9928TIP3    H251200   0.707   0.659   5.512  1.1109 -1.0141 -0.4466
 9929TIP3   OH251201   1.585   5.559   6.021 -0.2709  0.3181  0.7374
 9929TIP3    H151202   1.551   5.648   6.026 -0.4120  0.2744  0.5250
 9929TIP3    H251203   1.579   5.527   6.111 -2.5159 -0.3284  0.3806
 9930TIP3   OH251204   6.589   1.910  12.515  0.3115 -0.0585 -0.0936
 9930TIP3    H151205   6.660   1.885  12.456 -0.7407  0.7581 -1.7294
 9930TIP3    H251206   6.626   1.981  12.567  0.9171 -0.0997 -0.4577
 9931TIP3   OH251207   1.379   1.929  14.291  0.0455 -0.0207  0.0072
 9931TIP3    H151208   1.348   1.853  14.241  1.9063 -2.6408  2.6696
 9931TIP3    H251209   1.307   1.950  14.350 -0.8638  0.9849 -1.4169
 9932TIP3   OH251210   6.639   1.195   5.025  0.5670 -0.6151 -0.0934
 9932TIP3    H151211   6.614   1.267   5.084  0.5335  1.3069 -2.3719
 9932TIP3    H251212   6.697   1.140   5.078 -0.2101  0.5440  2.0188
 9933TIP3   OH251213   1.992   1.489   2.393 -0.1707 -0.3568 -0.2526
 9933TIP3    H151214   1.965   1.552   2.460 -2.2438  1.0332 -2.2984
 9933TIP3    H251215   2.055   1.537   2.339  0.0143 -0.8093 -0.4425
 9934TIP3   OH251216   4.246   1.733   4.223  0.3558  0.4532  0.6459
 9934TIP3    H151217   4.229   1.644   4.193  1.2446  1.3514 -2.7929
 9934TIP3    H251218   4.330   1.727   4.269 -0.7567 -0.8691  2.5889
 9935TIP3   OH251219   6.354   2.995   4.476 -0.1374 -0.3950 -0.2781
 9935TIP3    H151220   6.436   2.971   4.520  0.7137  2.0097 -0.4799
 9935TIP3    H251221   6.296   3.021   4.548 -0.5936 -1.6673 -0.1721
 9936TIP3   OH251222   6.547   4.898   3.682 -0.4496 -0.0346 -0.0789
 9936TIP3    H151223   6.562   4.830   3.617 -0.6518  0.1516 -0.3226
 9936TIP3    H251224   6.502   4.968   3.634 -3.6371 -1.2692  0.9768
 9937TIP3   OH251225   1.982   5.887   5.697 -0.3210  0.3335 -0.0913
 9937TIP3    H151226   2.075   5.878   5.717 -0.6207 -0.0048  1.2377
 9937TIP3    H251227   1.940   5.813   5.743 -1.0575 -0.5241 -2.0781
 9938TIP3   OH251228   0.077   0.138  14.745 -0.0850 -0.0831 -0.4309
 9938TIP3    H151229   0.013   0.078  14.706  0.4812  0.1837 -1.7906
 9938TIP3    H251230   0.076   0.214  14.688  0.9719  0.1966 -0.0862
 9939TIP3   OH251231   2.376   3.495   2.105  0.2518  0.6446  0.0328
 9939TIP3    H151232   2.417   3.581   2.117 -0.2824  0.6902  1.6359
 9939TIP3    H251233   2.448   3.438   2.076  1.0250  1.1989  0.8380
 9940TIP3   OH251234   2.808   4.011   3.955  0.3548  0.5474  0.0519
 9940TIP3    H151235   2.774   3.948   4.017  1.2345 -0.0949 -0.1035
 9940TIP3    H251236   2.788   3.974   3.869  0.5906  0.6402 -0.0439
 9941TIP3   OH251237   4.939   1.696   3.033  0.5219  0.2730  0.1831
 9941TIP3    H151238   5.008   1.700   2.967  1.1781  0.9494  0.8950
 9941TIP3    H251239   4.890   1.778   3.022  0.5553  0.3301  0.4511
 9942TIP3   OH251240   4.333   6.074  17.137  0.3950  0.3960  0.8127
 9942TIP3    H151241   4.401   6.141  17.144  0.7241 -0.0207  1.6863
 9942TIP3    H251242   4.258   6.112  17.185  1.0907 -0.4805  2.6666
 9943TIP3   OH251243   2.434   2.282  14.992  0.8095  0.2284  0.1903
 9943TIP3    H151244   2.351   2.269  14.945  0.2957 -2.2987  1.7054
 9943TIP3    H251245   2.501   2.245  14.934  0.8415  1.7796 -0.7908
 9944TIP3   OH251246   4.875   4.578   1.032 -0.7491  0.3294 -0.2376
 9944TIP3    H151247   4.812   4.582   1.103 -0.4057  0.5572  0.0574
 9944TIP3    H251248   4.884   4.485   1.013 -0.6886  0.2529  0.1581
 9945TIP3   OH251249   6.014   4.346   5.853  0.0948  0.4436 -1.0384
 9945TIP3    H151250   6.073   4.420   5.872 -0.0546 -0.0695  1.6664
 9945TIP3    H251251   6.072   4.269   5.854 -0.4156  0.0500  0.6524
 9946TIP3   OH251252   3.226   5.771   4.493  0.7161  0.3251  0.1488
 9946TIP3    H151253   3.275   5.822   4.556 -0.5903 -0.0038  1.4551
 9946TIP3    H251254   3.244   5.813   4.409  1.3078  1.6527  0.9236
 9947TIP3   OH251255   6.107   4.087   3.766  0.3300  0.2072 -0.1865
 9947TIP3    H151256   6.162   4.106   3.690  3.1615 -1.2592  1.4316
 9947TIP3    H251257   6.052   4.014   3.738  1.5352 -0.5023 -0.7383
 9948TIP3   OH251258   4.857   4.153   1.320  0.1202  0.1628 -0.4718
 9948TIP3    H151259   4.847   4.225   1.382 -1.7731 -0.6836  0.2465
 9948TIP3    H251260   4.944   4.117   1.338  0.2021  0.8937  0.6367
 9949TIP3   OH251261   4.144   5.089  13.628  0.3408  0.0043  0.2069
 9949TIP3    H151262   4.239   5.077  13.630  0.5776  1.3622 -1.2671
 9949TIP3    H251263   4.132   5.184  13.620 -1.1889 -0.0027  2.2391
 9950TIP3   OH251264   4.764   1.901   4.958 -0.2216  0.0423 -0.3458
 9950TIP3    H151265   4.705   1.875   4.887  1.2391 -0.2088 -1.5002
 9950TIP3    H251266   4.845   1.854   4.940  0.5702  0.9354  0.8130
 9951TIP3   OH251267   1.588   3.993  13.649 -0.2618 -0.3894 -0.4462
 9951TIP3    H151268   1.607   3.966  13.739 -0.2881  1.4572  0.1439
 9951TIP3    H251269   1.627   4.080  13.642  0.0118 -0.6627 -2.3309
 9952TIP3   OH251270   1.160   0.561  11.822 -0.2691 -0.0309  0.3683
 9952TIP3    H151271   1.113   0.491  11.867  0.7944 -0.3374  1.0274
 9952TIP3    H251272   1.216   0.599  11.890 -0.3273  0.9954 -0.1586
 9953TIP3   OH251273   5.100   6.478  14.290  0.4025  0.0122  0.1338
 9953TIP3    H151274   5.104   6.383  14.277  0.5390  0.1433 -0.8439
 9953TIP3    H251275   5.188   6.510  14.269  0.3679  0.3507  0.4923
 9954TIP3   OH251276   6.345   6.332   2.728  0.1262  0.6261  0.0419
 9954TIP3    H151277   6.396   6.408   2.754  0.8741  0.3769 -0.6865
 9954TIP3    H251278   6.330   6.344   2.634 -1.5780  0.9516  0.3370
 9955TIP3   OH251279   5.432   3.289   5.728 -0.0119  0.3766 -0.2931
 9955TIP3    H151280   5.378   3.219   5.763  3.1325 -1.6372  0.7057
 9955TIP3    H251281   5.459   3.340   5.804  1.6755 -0.2490 -0.4509
 9956TIP3   OH251282   0.055   4.430  11.509 -0.0398 -0.1072  0.3758
 9956TIP3    H151283   0.081   4.520  11.489 -1.0846  0.0955 -0.0828
 9956TIP3    H251284  -0.036   4.424  11.481  0.0107 -1.3013  0.4389
 9957TIP3   OH251285   3.903   1.880   5.856  0.2989  0.3504  0.2647
 9957TIP3    H151286   3.892   1.796   5.901  2.3150  0.1082  0.3641
 9957TIP3    H251287   3.908   1.944   5.927  2.0941  0.1321  0.3655
 9958TIP3   OH251288   4.052   3.543  15.150  0.4758 -0.1927 -0.4664
 9958TIP3    H151289   3.965   3.546  15.112  0.2012 -1.2647  0.0535
 9958TIP3    H251290   4.054   3.614  15.214  0.4652  0.7214 -1.4744
 9959TIP3   OH251291   3.132   2.349  14.562 -0.5780  0.3525  0.1462
 9959TIP3    H151292   3.168   2.290  14.496 -3.0547 -1.5181  0.4337
 9959TIP3    H251293   3.154   2.308  14.646  1.2970  1.9974  0.5267
 9960TIP3   OH251294   5.651   4.088   5.090  0.5846 -0.5171 -0.0848
 9960TIP3    H151295   5.722   4.095   5.026  1.2108  1.1091  0.7587
 9960TIP3    H251296   5.607   4.173   5.087  0.3414 -0.5841  1.3069
 9961TIP3   OH251297   1.940   6.081   5.501 -0.3139  0.2963 -0.3174
 9961TIP3    H151298   1.887   6.105   5.577 -0.4593  0.7404 -0.5536
 9961TIP3    H251299   1.987   6.003   5.528 -1.2335 -0.2123 -0.1783
 9962TIP3   OH251300   6.036   1.838   0.508 -0.2345 -0.1729 -0.7180
 9962TIP3    H151301   6.045   1.771   0.440  0.0990  0.4830 -1.3201
 9962TIP3    H251302   6.069   1.918   0.469  0.4170  0.1131  0.3883
 9963TIP3   OH251303   3.461   1.555   1.468  0.1151 -0.1924 -0.3171
 9963TIP3    H151304   3.387   1.606   1.434  0.6621  1.4615  0.8823
 9963TIP3    H251305   3.535   1.582   1.413 -0.0917 -1.6121 -1.3165
 9964TIP3   OH251306   0.680   2.767  14.948 -0.7891  0.1779  0.0017
 9964TIP3    H151307   0.682   2.705  14.875 -0.9724  1.1092 -0.8072
 9964TIP3    H251308   0.651   2.715  15.023 -0.9647 -0.7086 -0.6731
 9965TIP3   OH251309   5.055   3.061   0.783  0.0870 -0.1047 -0.0278
 9965TIP3    H151310   4.965   3.092   0.796  0.6482  1.0025  1.4175
 9965TIP3    H251311   5.046   2.983   0.729 -1.5538  1.3545 -1.9505
 9966TIP3   OH251312   4.900   6.659   3.603  0.2660 -0.8603 -0.3787
 9966TIP3    H151313   4.914   6.614   3.686 -3.2640 -0.2935  0.5874
 9966TIP3    H251314   4.873   6.748   3.628  1.2082 -0.0501 -2.1755
 9967TIP3   OH251315   0.875   2.011   5.979 -0.2055  0.2332  0.6542
 9967TIP3    H151316   0.947   2.010   6.043 -0.0747  2.0399  0.5563
 9967TIP3    H251317   0.893   1.936   5.922  1.3150  0.3650  0.9384
 9968TIP3   OH251318   1.322   5.314  14.294 -0.3224 -0.1070  0.3694
 9968TIP3    H151319   1.372   5.261  14.233  0.9340 -0.4541  1.6943
 9968TIP3    H251320   1.366   5.399  14.295 -2.4068  1.0869 -1.8592
 9969TIP3   OH251321   4.181   3.965  13.683  0.6843 -0.2273  0.0303
 9969TIP3    H151322   4.144   3.899  13.742 -0.1626  0.0908 -0.1483
 9969TIP3    H251323   4.118   3.972  13.612  0.5336  1.1253  0.2839
 9970TIP3   OH251324   2.846   0.834  16.768 -0.6795  0.0091 -0.1196
 9970TIP3    H151325   2.786   0.906  16.790 -2.0146 -0.6566 -1.4784
 9970TIP3    H251326   2.804   0.790  16.695  0.8983 -1.2297 -0.3013
 9971TIP3   OH251327   3.327   4.640  12.137 -0.1768 -0.0514  0.3329
 9971TIP3    H151328   3.402   4.699  12.141 -0.4766  0.3521  0.1078
 9971TIP3    H251329   3.351   4.574  12.072  0.0305  0.0165  0.3423
 9972TIP3   OH251330   6.140   6.574  11.497 -0.2028 -0.4669 -0.3080
 9972TIP3    H151331   6.084   6.593  11.573 -2.3031  0.5071 -2.0348
 9972TIP3    H251332   6.112   6.637  11.431  1.0639 -1.8146 -2.1637
 9973TIP3   OH251333   3.742   1.810  13.067 -0.1961  0.2224 -0.6223
 9973TIP3    H151334   3.650   1.811  13.091 -0.7002 -0.2074 -2.4340
 9973TIP3    H251335   3.788   1.845  13.144 -1.9052  0.9488  0.0873
 9974TIP3   OH251336   4.770   5.234  12.180 -0.3820 -0.2589  0.5479
 9974TIP3    H151337   4.708   5.301  12.208 -1.2964 -1.4206  1.4024
 9974TIP3    H251338   4.716   5.155  12.168  0.7931 -1.0616  0.4145
 9975TIP3   OH251339   4.841   2.442  13.758 -0.1873 -0.0568  0.0944
 9975TIP3    H151340   4.763   2.447  13.812  0.2436 -1.0372  0.8151
 9975TIP3    H251341   4.869   2.351  13.764  0.2020 -0.0384 -1.3042
 9976TIP3   OH251342   2.525   1.754   4.308  0.1396  0.9402 -0.0176
 9976TIP3    H151343   2.557   1.727   4.222  1.0849  3.7714 -0.6029
 9976TIP3    H251344   2.604   1.776   4.357 -0.3692 -0.8828  1.7247
 9977TIP3   OH251345   5.309   4.701  16.749  0.1038  0.1495  0.1456
 9977TIP3    H151346   5.350   4.781  16.784  0.5920 -0.3983  0.8429
 9977TIP3    H251347   5.266   4.661  16.825 -1.9487  0.8437 -0.6369
 9978TIP3   OH251348   5.467   2.134  15.435 -0.6340  0.4564  0.2525
 9978TIP3    H151349   5.482   2.112  15.343 -1.5926 -0.7002  0.3585
 9978TIP3    H251350   5.527   2.207  15.452 -0.8383  1.0580 -1.4373
 9979TIP3   OH251351   0.895   1.041   2.096  0.4093  0.3160  0.2396
 9979TIP3    H151352   0.877   1.010   2.184 -0.3070 -1.1466 -0.4068
 9979TIP3    H251353   0.884   1.136   2.101  2.5474  0.4975  2.2242
 9980TIP3   OH251354   4.578   6.697   2.988 -0.2966  0.0928  0.3320
 9980TIP3    H151355   4.553   6.658   2.905  0.0476  1.0698 -0.2451
 9980TIP3    H251356   4.561   6.791   2.976  1.7251  0.5173  0.6185
 9981TIP3   OH251357   2.139   1.926   2.376  0.6445  0.2669  0.8731
 9981TIP3    H151358   2.188   1.857   2.419  1.1809  1.0671  1.5651
 9981TIP3    H251359   2.205   1.993   2.356  0.1875  0.4478 -0.0528
 9982TIP3   OH251360   1.957   0.738  13.727  0.1694  0.1336  0.8126
 9982TIP3    H151361   1.876   0.777  13.692  0.0937 -1.6667 -1.1443
 9982TIP3    H251362   2.000   0.699  13.650  2.8420  0.9289  1.8385
 9983TIP3   OH251363   3.710   4.245  10.693  0.1929  0.0044 -0.5624
 9983TIP3    H151364   3.662   4.164  10.710 -0.4136  0.3953 -0.4130
 9983TIP3    H251365   3.801   4.217  10.679  0.1191 -0.6205  0.2144
 9984TIP3   OH251366   3.578   6.692   1.973 -0.3837  0.2155 -0.1859
 9984TIP3    H151367   3.495   6.644   1.976  0.1830 -0.7818 -0.0728
 9984TIP3    H251368   3.644   6.627   1.998  0.3375  1.2260  0.5673
 9985TIP3   OH251369   1.997   6.220  11.701 -0.0979 -0.1157  0.0709
 9985TIP3    H151370   1.946   6.194  11.778 -1.1030 -1.0087 -0.8740
 9985TIP3    H251371   2.085   6.237  11.734 -0.2838 -1.4104  1.2669
 9986TIP3   OH251372   1.685   4.052  16.534 -0.0616 -0.3169  0.3861
 9986TIP3    H151373   1.646   4.009  16.611  1.3027 -0.9931  0.7153
 9986TIP3    H251374   1.617   4.111  16.502 -0.8812 -0.5290  1.7211
 9987TIP3   OH251375   6.545   4.297   0.717  0.1475 -0.4517 -0.8786
 9987TIP3    H151376   6.523   4.250   0.798  1.8029  0.3453  0.0915
 9987TIP3    H251377   6.508   4.245   0.647  0.6206 -2.3921  0.2767
 9988TIP3   OH251378   1.128   5.873   5.813 -0.2243 -0.1528 -0.3351
 9988TIP3    H151379   1.222   5.891   5.820  0.2431 -2.9826  1.1455
 9988TIP3    H251380   1.087   5.933   5.875  0.5751  1.0921 -0.9875
 9989TIP3   OH251381   1.479   1.963   4.494  0.0206 -0.0453  0.0475
 9989TIP3    H151382   1.463   1.941   4.586 -0.0409 -0.9571 -0.1761
 9989TIP3    H251383   1.456   1.884   4.446 -0.3416  0.5673 -0.7970
 9990TIP3   OH251384   1.765   6.359   4.167  0.0215 -0.3303  0.0606
 9990TIP3    H151385   1.828   6.397   4.106 -0.5317 -1.6472 -1.3583
 9990TIP3    H251386   1.779   6.265   4.161 -0.0111 -0.4649  2.0126
 9991TIP3   OH251387   5.274   0.467  10.821  0.2433  0.1680  0.1391
 9991TIP3    H151388   5.319   0.440  10.741  0.3876 -0.3183  0.3809
 9991TIP3    H251389   5.197   0.410  10.826  0.5909 -0.2567  0.6942
 9992TIP3   OH251390   4.334   6.615  16.045 -0.1694  0.2703 -0.2062
 9992TIP3    H151391   4.251   6.580  16.013  0.2609 -0.7796 -0.2072
 9992TIP3    H251392   4.401   6.558  16.006  0.6163  1.7718 -1.0835
 9993TIP3   OH251393   2.156   0.962  11.088 -0.3408  0.1919 -0.4967
 9993TIP3    H151394   2.106   0.883  11.107  0.4022 -0.5660 -1.6918
 9993TIP3    H251395   2.140   0.979  10.995  0.6139  0.6558 -0.5819
 9994TIP3   OH251396   1.261   4.933   6.169  0.4430  0.3790 -1.3313
 9994TIP3    H151397   1.320   4.869   6.209 -0.3566  0.4152 -0.0553
 9994TIP3    H251398   1.242   4.897   6.083  0.2582 -0.9620 -0.7465
 9995TIP3   OH251399   4.652   5.016   2.801  0.5493  0.6548 -0.4874
 9995TIP3    H151400   4.591   4.951   2.836  1.4511 -0.4175 -0.8757
 9995TIP3    H251401   4.690   4.974   2.724  3.7570  0.2087  1.2393
 9996TIP3   OH251402   2.343   5.955  15.135  0.8489 -0.2824  0.0138
 9996TIP3    H151403   2.267   5.991  15.180 -0.3866 -1.8103 -0.7829
 9996TIP3    H251404   2.398   6.031  15.115 -0.4244  0.8308  0.6927
 9997TIP3   OH251405   5.343   5.780  13.668 -0.2579 -0.0279 -0.0740
 9997TIP3    H151406   5.268   5.728  13.639 -1.1003  0.9270  0.3694
 9997TIP3    H251407   5.306   5.865  13.691  0.8275  0.1637  1.0145
 9998TIP3   OH251408   3.861   2.596   2.248  0.1694 -0.0255 -0.3244
 9998TIP3    H151409   3.947   2.627   2.220  0.7877 -1.9573 -0.6603
 9998TIP3    H251410   3.876   2.504   2.272 -1.7089 -0.2518  0.0240
 9999TIP3   OH251411   5.160   5.406  13.910 -0.8760  0.4022 -0.4797
 9999TIP3    H151412   5.072   5.401  13.948 -1.1915  2.5732 -0.8789
 9999TIP3    H251413   5.176   5.499  13.898  0.9162 -0.0447 -1.7691
10000TIP3   OH251414   0.821   1.787  16.466  0.0580 -0.0076 -0.7665
10000TIP3    H151415   0.856   1.720  16.524  0.0787  1.3284  0.8044
10000TIP3    H251416   0.733   1.758  16.445  0.8169 -1.5831 -1.8168
10001TIP3   OH251417   6.609   0.934  14.667 -0.7896  0.0372 -0.3986
10001TIP3    H151418   6.608   0.957  14.760 -0.0502  0.6343 -0.5347
10001TIP3    H251419   6.542   0.866  14.658 -0.1985 -0.7180  0.7533
10002TIP3   OH251420   2.376   2.009   1.233 -0.5932 -0.5133 -0.6376
10002TIP3    H151421   2.330   1.997   1.316 -2.1257  0.2541 -1.3465
10002TIP3    H251422   2.335   2.087   1.194  0.1326 -0.8342 -2.0882
10003TIP3   OH251423   4.491   4.080   1.337 -0.2083 -0.2925  0.6139
10003TIP3    H151424   4.483   4.164   1.381  1.2335 -1.0449  2.3911
10003TIP3    H251425   4.546   4.027   1.396 -0.8413 -2.3682 -0.6040
10004TIP3   OH251426   1.072   2.690   0.037 -0.7155  0.3703 -0.5497
10004TIP3    H151427   0.994   2.721  -0.010 -0.3376 -0.0711 -1.4800
10004TIP3    H251428   1.087   2.601   0.004  0.3390  0.5513 -0.5863
10005TIP3   OH251429   6.285   4.718  14.238  0.0826 -0.0894 -0.2108
10005TIP3    H151430   6.297   4.803  14.197 -1.6690 -0.1399 -0.8689
10005TIP3    H251431   6.222   4.733  14.308 -1.4855 -1.1341 -1.3653
10006TIP3   OH251432   6.773   2.831   0.099  0.0275  0.5223  1.0259
10006TIP3    H151433   6.721   2.910   0.111  0.1375  0.8034 -0.3019
10006TIP3    H251434   6.853   2.848   0.148  0.0146  1.2014  0.8173
10007TIP3   OH251435   1.042   4.587   5.781  0.4485 -0.3570 -0.2072
10007TIP3    H151436   1.115   4.579   5.720  0.4860 -1.6037 -0.0185
10007TIP3    H251437   1.003   4.500   5.783 -1.0410  0.2866 -0.2976
10008TIP3   OH251438   3.102   5.509   6.800 -0.0722  0.4470  0.0921
10008TIP3    H151439   3.169   5.527   6.866 -0.3215  0.0401  0.4570
10008TIP3    H251440   3.058   5.593   6.787  0.2176  0.6134  0.1660
10009TIP3   OH251441   2.290   5.671   1.603 -0.3022 -0.4265 -0.4619
10009TIP3    H151442   2.363   5.627   1.647 -0.8506 -1.6540 -0.7738
10009TIP3    H251443   2.331   5.726   1.537  0.4097 -0.1516  0.2018
10010TIP3   OH251444   0.453   1.930  15.335 -0.7034  0.1032 -0.0841
10010TIP3    H151445   0.530   1.873  15.329 -0.8387 -0.1180  0.2864
10010TIP3    H251446   0.413   1.908  15.419 -0.5353  1.0203  0.2483
10011TIP3   OH251447   0.187   3.965  12.965 -0.1706  0.3146 -0.5299
10011TIP3    H151448   0.219   4.017  13.038 -0.6574  0.3930 -0.3682
10011TIP3    H251449   0.183   4.025  12.891 -0.3969  0.4220 -0.4308
10012TIP3   OH251450   1.905   4.579  16.385  0.0781  0.1983 -0.1131
10012TIP3    H151451   1.874   4.570  16.295  0.6107 -0.4052 -0.2390
10012TIP3    H251452   1.868   4.503  16.430  0.0345  0.3545  0.1135
10013TIP3   OH251453   1.803   0.696   3.560 -0.5286  0.0179 -0.1964
10013TIP3    H151454   1.850   0.618   3.532 -1.2468 -0.4423 -0.1364
10013TIP3    H251455   1.749   0.719   3.484 -0.3997  0.3922 -0.1751
10014TIP3   OH251456   4.066   0.966  12.139  0.0373  0.0552 -0.1185
10014TIP3    H151457   4.121   0.924  12.072 -0.3161 -2.5671  1.1811
10014TIP3    H251458   3.983   0.982  12.094  0.8046  1.1490 -1.1842
10015TIP3   OH251459   0.770   0.881  13.639 -0.0226  0.2839 -0.1481
10015TIP3    H151460   0.785   0.935  13.717  1.2357 -0.7279  0.3416
10015TIP3    H251461   0.685   0.840  13.654  1.1470 -1.5493  1.7183
10016TIP3   OH251462   5.268   3.576   0.295  0.3816 -0.1163 -0.2025
10016TIP3    H151463   5.182   3.545   0.266  0.8701 -0.4630 -1.3185
10016TIP3    H251464   5.264   3.671   0.285  0.9127 -0.3071 -2.5109
10017TIP3   OH251465   2.677   1.274  12.718  0.8947 -0.5561  0.6676
10017TIP3    H151466   2.722   1.230  12.645  1.2626 -0.3080  0.7455
10017TIP3    H251467   2.684   1.367  12.697 -1.6710 -0.5898 -0.5674
10018TIP3   OH251468   5.831   6.160   4.457 -0.1344  0.5844 -0.0890
10018TIP3    H151469   5.902   6.176   4.519  0.8628 -2.4711 -0.3494
10018TIP3    H251470   5.792   6.078   4.487 -0.7843  0.0097 -2.4443
10019TIP3   OH251471   3.211   4.491  14.802 -0.3435  0.3034 -0.1047
10019TIP3    H151472   3.238   4.514  14.891  0.0238  1.0284 -0.4065
10019TIP3    H251473   3.276   4.531  14.745 -0.7732  0.1394 -0.7209
10020TIP3   OH251474   0.005   0.773   4.306 -0.5015  0.4640 -0.0714
10020TIP3    H151475   0.008   0.868   4.307  1.9156  0.4235  1.6604
10020TIP3    H251476   0.032   0.747   4.394  0.0229 -1.8480 -0.8616
10021TIP3   OH251477   4.157   3.136  14.739 -0.2649 -0.1267 -0.0913
10021TIP3    H151478   4.174   3.043  14.749 -0.3871 -0.1081  0.3199
10021TIP3    H251479   4.226   3.167  14.682 -0.9985 -0.7162 -1.3110
10022TIP3   OH251480   4.198   1.988  11.326 -0.2670  0.8274  0.3180
10022TIP3    H151481   4.165   1.902  11.299  0.6593 -0.6974  3.6881
10022TIP3    H251482   4.120   2.043  11.334 -1.0758 -0.2513 -0.0060
10023TIP3   OH251483   5.433   1.633  14.598  0.2988  0.3863 -0.1774
10023TIP3    H151484   5.405   1.717  14.633 -2.3452 -0.2991 -0.5665
10023TIP3    H251485   5.407   1.569  14.664 -1.1568 -0.4924 -1.5531
10024TIP3   OH251486   2.865   5.118   4.816 -0.4505 -0.3562  0.6470
10024TIP3    H151487   2.914   5.189   4.859 -2.5611  0.1779  2.2521
10024TIP3    H251488   2.788   5.161   4.779 -1.2422 -1.6546  0.7592
10025TIP3   OH251489   1.418   3.062  13.281 -0.2720 -0.1578 -0.1697
10025TIP3    H151490   1.467   3.109  13.214 -0.7558  0.8791  0.1916
10025TIP3    H251491   1.360   3.128  13.319 -1.3191 -1.1643  0.0056
10026TIP3   OH251492   4.359   4.559  11.972  0.2832  0.1866  0.0394
10026TIP3    H151493   4.410   4.637  11.949 -1.6432  0.9908 -1.5240
10026TIP3    H251494   4.420   4.486  11.957  0.4968  0.9952 -3.4269
10027TIP3   OH251495   6.091   6.392   4.214  0.1744  0.5295  0.1716
10027TIP3    H151496   6.145   6.363   4.287  1.8208 -1.9888 -1.9601
10027TIP3    H251497   6.135   6.471   4.181  2.0612 -0.9247 -0.9091
10028TIP3   OH251498   1.287   0.250  10.994 -0.1102  0.2443  0.7787
10028TIP3    H151499   1.216   0.219  11.050  1.0250 -0.3633  1.9014
10028TIP3    H251500   1.328   0.170  10.961  1.1580  0.5624  1.5528
10029TIP3   OH251501   2.186   6.116  14.649 -0.1609  0.2551 -0.3887
10029TIP3    H151502   2.179   6.207  14.678 -2.9134  0.5308 -1.7628
10029TIP3    H251503   2.120   6.108  14.579  1.4677 -2.2333 -1.7109
10030TIP3   OH251504   2.810   1.522   1.178 -0.1436  0.1520 -0.4481
10030TIP3    H151505   2.718   1.505   1.159 -0.0733  1.2492 -1.8507
10030TIP3    H251506   2.811   1.557   1.267 -0.8545 -1.7873  0.3445
10031TIP3   OH251507   6.601   0.188   5.003  0.2396  0.1410  0.7669
10031TIP3    H151508   6.516   0.233   4.996  0.8347  1.3436  1.0718
10031TIP3    H251509   6.579   0.100   5.034 -1.1582 -0.5849 -2.1066
10032TIP3   OH251510   1.741   0.763   4.253 -0.0855 -0.1159 -0.3269
10032TIP3    H151511   1.778   0.795   4.335  2.0758 -0.3026 -1.2144
10032TIP3    H251512   1.803   0.790   4.186 -0.8561 -1.6397 -1.6936
10033TIP3   OH251513   3.495   1.413  16.981  0.2536  0.4778  0.0315
10033TIP3    H151514   3.530   1.342  17.036 -0.7287 -0.1988 -0.1986
10033TIP3    H251515   3.572   1.448  16.936  1.0335  0.8471  1.6069
10034TIP3   OH251516   6.244   2.395   4.780  0.1745 -1.0093 -0.3842
10034TIP3    H151517   6.261   2.405   4.686 -2.1363 -2.3389 -0.9730
10034TIP3    H251518   6.187   2.468   4.803  3.8253  1.6038  0.9085
10035TIP3   OH251519   5.121   5.192  16.800  0.4105  0.2755 -0.0484
10035TIP3    H151520   5.079   5.170  16.884  0.2658 -1.3632 -0.5246
10035TIP3    H251521   5.077   5.136  16.736  0.7887  1.2340 -1.1591
10036TIP3   OH251522   2.245   6.280  11.773  0.9321  0.0458 -0.1722
10036TIP3    H151523   2.307   6.310  11.706 -1.5076  2.4375 -1.4476
10036TIP3    H251524   2.249   6.346  11.841  1.0410 -0.7186  0.5762
10037TIP3   OH251525   6.617   4.610  12.616  0.4010  0.1852 -0.3257
10037TIP3    H151526   6.551   4.679  12.620  1.5332  1.4635 -2.7696
10037TIP3    H251527   6.567   4.529  12.613 -0.9943  1.0090  0.0985
10038TIP3   OH251528   3.659   2.640  13.193 -1.3543 -0.1796 -0.5881
10038TIP3    H151529   3.642   2.550  13.163 -1.8719 -0.0082 -0.8228
10038TIP3    H251530   3.715   2.678  13.126 -2.2546  0.1038 -1.1929
10039TIP3   OH251531   1.225   5.107   1.089  0.4630 -0.2488  0.2342
10039TIP3    H151532   1.147   5.075   1.133  0.4635 -0.1105  0.3388
10039TIP3    H251533   1.202   5.195   1.059  0.8408  0.1236  0.9949
10040TIP3   OH251534   6.504   2.503  14.724 -0.5219 -0.3874 -0.4770
10040TIP3    H151535   6.589   2.475  14.691  0.4701 -0.3127  1.9435
10040TIP3    H251536   6.469   2.559  14.655  0.6498 -1.7419 -2.2146
10041TIP3   OH251537   2.498   1.386   6.116  0.0969 -0.0108 -0.6289
10041TIP3    H151538   2.484   1.481   6.124 -0.1509 -0.0278 -0.8587
10041TIP3    H251539   2.434   1.348   6.176  0.0427 -0.0429 -0.7081
10042TIP3   OH251540   6.081   3.702  15.035  0.0178 -0.6929 -0.1445
10042TIP3    H151541   6.133   3.670  15.108 -4.0599 -1.6621  2.4507
10042TIP3    H251542   6.083   3.798  15.044  0.6245 -0.7619  0.4316
10043TIP3   OH251543   5.647   4.511  12.392 -0.2881  0.1321 -0.1290
10043TIP3    H151544   5.553   4.526  12.404 -0.3837 -0.1949 -0.4736
10043TIP3    H251545   5.658   4.416  12.396 -0.0361  0.1422 -0.5419
10044TIP3   OH251546   6.274   1.020   5.804  0.4127  0.0082 -0.2600
10044TIP3    H151547   6.200   0.970   5.838  0.2267  1.4352  1.5632
10044TIP3    H251548   6.329   1.036   5.881  1.3896  1.0060 -1.1465
10045TIP3   OH251549   1.740   2.173   5.911 -0.5970  0.3775 -0.1796
10045TIP3    H151550   1.789   2.090   5.910 -0.4661  0.3975  2.1879
10045TIP3    H251551   1.682   2.167   5.835  1.6987 -0.4754 -1.9383
10046TIP3   OH251552   6.062   0.704   2.056 -0.4847 -0.2344 -0.1230
10046TIP3    H151553   6.044   0.720   2.148 -0.6372 -0.0123 -0.1909
10046TIP3    H251554   5.999   0.635   2.031  1.5148 -2.4093  0.6752
10047TIP3   OH251555   6.760   5.434   3.579  0.1619 -0.6896  0.0884
10047TIP3    H151556   6.838   5.401   3.624  0.3907 -1.3001 -0.7501
10047TIP3    H251557   6.777   5.419   3.487 -0.0179  1.1655 -0.2777
10048TIP3   OH251558   0.569   6.407   2.836  0.3053  0.2146  0.0125
10048TIP3    H151559   0.609   6.396   2.922  1.9564  2.0038 -0.4860
10048TIP3    H251560   0.497   6.469   2.851  0.7520  0.7267  0.0863
10049TIP3   OH251561   3.423   5.594   5.623  0.2318 -0.2101 -0.0076
10049TIP3    H151562   3.480   5.548   5.561  0.7285 -0.0564  0.3388
10049TIP3    H251563   3.407   5.531   5.693  0.1107 -0.1929 -0.0188
10050TIP3   OH251564   1.924   0.693  14.198  0.0504 -0.0641  0.2289
10050TIP3    H151565   1.954   0.647  14.119  0.9425 -0.8725  1.0368
10050TIP3    H251566   1.996   0.683  14.260 -0.1783  1.5328  0.7765
10051TIP3   OH251567   3.009   5.420  14.582 -0.4572 -0.1687 -0.0548
10051TIP3    H151568   3.058   5.498  14.606 -1.3406 -0.0143  1.2675
10051TIP3    H251569   3.068   5.347  14.603  0.4064  0.1239 -1.3868
10052TIP3   OH251570   2.562   6.459   3.366 -0.2872 -0.1875  0.3444
10052TIP3    H151571   2.630   6.405   3.406 -3.1726 -2.9657  1.7620
10052TIP3    H251572   2.600   6.547   3.361  2.7749 -1.3049  2.5573
10053TIP3   OH251573   6.414   6.303   5.497 -0.2343  0.2086 -0.0926
10053TIP3    H151574   6.438   6.393   5.475  0.3364  0.1289  0.1832
10053TIP3    H251575   6.410   6.303   5.593 -0.0632 -0.0998 -0.0868
10054TIP3   OH251576   3.582   1.690   3.865 -0.1335  0.2828  0.1003
10054TIP3    H151577   3.587   1.600   3.831 -0.5736  0.4203 -0.3364
10054TIP3    H251578   3.672   1.723   3.857  0.5370 -0.8643  2.3709
10055TIP3   OH251579   6.423   4.752   5.757  0.3387  0.0198 -0.1152
10055TIP3    H151580   6.483   4.715   5.821  0.3175  0.9179  0.4305
10055TIP3    H251581   6.386   4.829   5.800 -1.6363 -0.8285 -0.2368
10056TIP3   OH251582   3.820   6.672  11.806 -0.3239  0.1289 -0.2991
10056TIP3    H151583   3.857   6.648  11.890 -0.3445  1.3126  0.0642
10056TIP3    H251584   3.727   6.648  11.812 -0.5528  1.1194  0.4030
10057TIP3   OH251585   3.846   2.921   3.584 -0.0386 -0.2558  0.1232
10057TIP3    H151586   3.816   2.891   3.499 -0.4213 -1.9776  0.8359
10057TIP3    H251587   3.841   3.016   3.580 -0.5964 -0.3516 -1.5663
10058TIP3   OH251588   0.938   4.468  11.392  0.7890 -0.6390 -0.2641
10058TIP3    H151589   0.858   4.521  11.394  0.8614 -0.5595  0.5568
10058TIP3    H251590   0.957   4.450  11.484  1.4514 -1.0596 -0.4834
10059TIP3   OH251591   5.311   1.524  12.369  0.1253  0.2435 -0.0504
10059TIP3    H151592   5.347   1.596  12.319  0.0010 -0.2174 -0.8039
10059TIP3    H251593   5.237   1.492  12.317 -0.7407  0.5246  0.9826
10060TIP3   OH251594   3.405   5.046  16.054 -0.0989  0.1516  0.1332
10060TIP3    H151595   3.394   5.091  15.971 -1.2615  1.8578  1.1652
10060TIP3    H251596   3.323   4.997  16.066  0.2100 -0.3752  0.1006
10061TIP3   OH251597   3.305   6.361   4.992 -0.5514  0.1021 -0.0738
10061TIP3    H151598   3.295   6.273   5.029  0.0555 -0.0653 -0.2999
10061TIP3    H251599   3.356   6.409   5.057 -0.3003  0.0895 -0.2631
10062TIP3   OH251600   3.415   6.124   0.632  0.3087  1.0214 -0.2356
10062TIP3    H151601   3.343   6.062   0.649 -0.5865  1.3413 -2.6411
10062TIP3    H251602   3.397   6.198   0.690  0.1894 -0.0432  1.1144
10063TIP3   OH251603   2.099   3.628  14.158 -0.0666 -0.6154  0.1625
10063TIP3    H151604   2.097   3.716  14.196 -0.2247 -0.6997  0.3521
10063TIP3    H251605   2.071   3.641  14.068  4.0640  0.1449 -1.1126
10064TIP3   OH251606   0.517   4.155   0.023 -0.6438  0.1323 -0.1245
10064TIP3    H151607   0.554   4.186  -0.059 -0.3770  2.6445  0.9186
10064TIP3    H251608   0.464   4.228   0.056 -3.5527 -2.0363  0.2733
10065TIP3   OH251609   0.209   5.816   5.873 -0.4722  0.3518  0.7826
10065TIP3    H151610   0.249   5.889   5.920  0.7471 -0.5804  1.2055
10065TIP3    H251611   0.175   5.759   5.942 -1.7593  0.6969  0.4470
10066TIP3   OH251612   0.625   4.273   4.593 -0.4323 -0.0277 -0.2607
10066TIP3    H151613   0.539   4.269   4.552 -1.1035 -3.1392  1.3072
10066TIP3    H251614   0.622   4.352   4.648 -2.5641 -0.5241  0.3702
10067TIP3   OH251615   4.212   1.347   0.060 -0.1137 -0.4052 -0.5945
10067TIP3    H151616   4.153   1.315  -0.008  0.2303 -0.0733 -1.0532
10067TIP3    H251617   4.299   1.346   0.019 -0.1242  1.3353 -0.7015
10068TIP3   OH251618   1.709   2.790   5.060 -0.1937  0.3959 -0.3071
10068TIP3    H151619   1.660   2.779   4.979  3.8751  0.7622 -2.9025
10068TIP3    H251620   1.737   2.701   5.083 -2.1589  0.1457  1.3446
10069TIP3   OH251621   4.597   0.946   4.041 -0.3430 -0.1863 -0.1606
10069TIP3    H151622   4.626   0.984   4.123 -0.9925  0.2384 -0.1272
10069TIP3    H251623   4.664   0.971   3.977 -1.1312  1.6241 -0.2964
10070TIP3   OH251624   4.944   2.935   6.005  0.2982  0.3072 -0.3769
10070TIP3    H151625   4.990   3.017   6.026  1.8356 -0.6730  0.2084
10070TIP3    H251626   4.865   2.938   6.058  1.2468  0.6037  1.0728
10071TIP3   OH251627   0.174   3.505  11.821 -0.2287 -0.0786  0.0413
10071TIP3    H151628   0.217   3.420  11.828 -0.3706 -0.2205 -0.8013
10071TIP3    H251629   0.137   3.506  11.733  1.0756  1.4712 -0.5100
10072TIP3   OH251630   0.236   0.387   1.167 -0.0484  0.1313 -0.7179
10072TIP3    H151631   0.229   0.482   1.181 -1.4369 -0.1452  0.5406
10072TIP3    H251632   0.256   0.351   1.253 -2.5409 -0.9995 -0.5673
10073TIP3   OH251633   1.746   1.410   6.686  0.4946  0.3429  0.1212
10073TIP3    H151634   1.691   1.349   6.735  0.7307 -0.5150 -0.6753
10073TIP3    H251635   1.750   1.488   6.741  0.7185 -0.5880  1.4493
10074TIP3   OH251636   5.617   1.832  14.127  0.2328  0.2530 -0.2010
10074TIP3    H151637   5.605   1.760  14.189 -1.8122 -0.9078 -1.8666
10074TIP3    H251638   5.533   1.876  14.125  1.7232  3.3114  1.4484
10075TIP3   OH251639   1.140   5.001   2.224  0.5751 -0.3343  0.3122
10075TIP3    H151640   1.141   4.964   2.136  1.4282 -0.3982  0.3397
10075TIP3    H251641   1.215   5.060   2.226  0.5038 -0.2624  0.9646
10076TIP3   OH251642   1.992   0.026   0.853  0.4279  0.6863 -0.1716
10076TIP3    H151643   1.955   0.091   0.792 -0.7141 -0.7611 -1.0742
10076TIP3    H251644   1.970  -0.058   0.813  2.5327 -0.2611  0.5993
10077TIP3   OH251645   2.094   4.888   3.907  0.2077 -0.1956  0.1466
10077TIP3    H151646   2.120   4.954   3.971  0.3288  0.6648 -0.7761
10077TIP3    H251647   2.128   4.806   3.942 -0.9219  0.0575  1.8612
10078TIP3   OH251648   5.534   3.233   4.817 -0.6781  0.2142 -0.0615
10078TIP3    H151649   5.449   3.232   4.863 -0.7092 -1.6468 -0.1549
10078TIP3    H251650   5.512   3.220   4.725 -0.2855 -0.3981 -0.0714
10079TIP3   OH251651   2.461   6.559  11.346  0.3863 -0.2477 -0.1114
10079TIP3    H151652   2.551   6.527  11.354  0.9869  1.4124  0.1480
10079TIP3    H251653   2.429   6.523  11.264  1.4750 -0.4461 -0.4551
10080TIP3   OH251654   0.532   2.882  15.488  0.1158 -0.0722  0.1817
10080TIP3    H151655   0.437   2.891  15.476  0.1188  0.0455  0.2452
10080TIP3    H251656   0.549   2.788  15.477  0.0532 -0.0348 -0.2695
10081TIP3   OH251657   3.356   1.349  12.719  0.1143  0.5675 -0.4387
10081TIP3    H151658   3.420   1.403  12.673  0.1022  0.7741 -0.2174
10081TIP3    H251659   3.408   1.276  12.755  0.3955  1.2463  0.5600
10082TIP3   OH251660   4.836   0.138  11.402 -0.2885 -0.3188 -0.0038
10082TIP3    H151661   4.749   0.179  11.396  0.6296  1.9439  1.2442
10082TIP3    H251662   4.887   0.180  11.333 -0.4509 -2.4115 -1.4181
10083TIP3   OH251663   5.452   3.857   0.695 -0.6699 -0.3090 -0.0849
10083TIP3    H151664   5.419   3.791   0.757  0.3461 -0.2073  0.5701
10083TIP3    H251665   5.491   3.924   0.750  1.4002 -0.8317 -0.8711
10084TIP3   OH251666   2.957   5.643   2.039  0.8829  0.7262  0.0271
10084TIP3    H151667   2.970   5.548   2.033  0.3344  0.7821 -2.0956
10084TIP3    H251668   2.951   5.659   2.133 -0.8738 -1.5927  0.3624
10085TIP3   OH251669   5.241   5.143  13.910 -0.5148 -0.1558  0.4999
10085TIP3    H151670   5.161   5.102  13.942  1.1081 -1.6897  2.7318
10085TIP3    H251671   5.217   5.235  13.899 -2.6879 -0.6589  0.7152
10086TIP3   OH251672   6.766   0.426   1.733  0.8571 -0.1903  0.3280
10086TIP3    H151673   6.823   0.378   1.793  3.0001  1.2903 -0.4595
10086TIP3    H251674   6.803   0.411   1.646 -0.7869 -0.3364 -0.3835
10087TIP3   OH251675   1.555   5.490  13.954 -0.0185  0.3095  0.1939
10087TIP3    H151676   1.538   5.491  13.860  0.4621 -0.5855  0.0899
10087TIP3    H251677   1.542   5.580  13.982 -0.4432  0.5264 -0.6804
10088TIP3   OH251678   5.853   3.964  13.878 -0.4863  0.1730 -0.5971
10088TIP3    H151679   5.794   3.894  13.851 -1.2514  0.5819 -0.0063
10088TIP3    H251680   5.900   3.928  13.954 -1.6272  0.6613  0.3553
10089TIP3   OH251681   2.669   3.938   2.356  0.4083 -0.2979  0.3264
10089TIP3    H151682   2.638   3.930   2.266 -0.1089 -0.5629  0.5248
10089TIP3    H251683   2.692   4.031   2.365  0.2993 -0.2364 -0.0287
10090TIP3   OH251684   6.307   6.460  15.543  0.5414 -0.1451  0.2792
10090TIP3    H151685   6.227   6.508  15.521 -0.9169 -2.3093  0.7462
10090TIP3    H251686   6.280   6.398  15.610  2.5731 -1.0777  0.2590
10091TIP3   OH251687   5.387   6.337   4.055  0.3029 -0.2860  0.0716
10091TIP3    H151688   5.347   6.321   4.141 -4.1208  1.4509 -1.4953
10091TIP3    H251689   5.455   6.402   4.073 -0.7370  0.2636  2.2512
10092TIP3   OH251690   3.025   2.073   1.756 -0.0685  0.2886 -0.2285
10092TIP3    H151691   3.010   2.090   1.663 -0.8081  1.3593  0.0849
10092TIP3    H251692   2.937   2.064   1.792  0.2303 -0.5848  0.2882
10093TIP3   OH251693   2.652   4.367  16.273 -0.4424 -0.0157  0.3500
10093TIP3    H151694   2.700   4.422  16.336 -0.4263 -0.9226  1.1407
10093TIP3    H251695   2.572   4.342  16.319 -0.4918 -0.5861 -0.0401
10094TIP3   OH251696   3.005   3.786  16.338  0.0957  0.1187  0.3795
10094TIP3    H151697   2.923   3.822  16.371 -1.1197 -0.8164 -1.5033
10094TIP3    H251698   3.066   3.793  16.411 -1.7035  0.6771  1.8597
10095TIP3   OH251699   2.993   0.470   3.392  0.5417 -0.1326  0.4017
10095TIP3    H151700   2.926   0.459   3.325 -0.8805  0.4162  1.6978
10095TIP3    H251701   2.951   0.443   3.473  2.6063 -1.9241  0.9341
10096TIP3   OH251702   0.453   1.024   4.455 -0.4991 -0.1177 -0.3309
10096TIP3    H151703   0.500   1.103   4.428 -0.8376  0.4864  0.8135
10096TIP3    H251704   0.510   0.983   4.520 -0.7365 -0.3368 -0.2600
10097TIP3   OH251705   5.014   6.639  12.379  0.0940 -0.5778  0.1862
10097TIP3    H151706   5.019   6.673  12.290  1.7643  1.0303  0.8672
10097TIP3    H251707   4.940   6.685  12.418  1.1935  0.9276  0.5264
10098TIP3   OH251708   3.533   6.745   3.799  0.0913 -0.1266  0.3319
10098TIP3    H151709   3.473   6.703   3.862 -1.0752  0.0500 -0.6433
10098TIP3    H251710   3.497   6.723   3.713  0.4710  1.3909 -0.2341
10099TIP3   OH251711   6.692   1.488  11.466  0.6398  0.3575 -0.3081
10099TIP3    H151712   6.739   1.551  11.411 -1.7279  1.8866 -0.6839
10099TIP3    H251713   6.702   1.405  11.420  1.8858  0.8962 -1.0409
10100TIP3   OH251714   5.988   5.819  14.491  0.1899  0.4050  0.4140
10100TIP3    H151715   6.003   5.748  14.553  1.2430  1.0129  0.8661
10100TIP3    H251716   5.908   5.794  14.445  0.2636 -0.8147  0.9311
10101TIP3   OH251717   0.952   1.572   3.517 -0.0458 -0.0180 -0.0916
10101TIP3    H151718   0.957   1.479   3.497  0.0512  0.4102 -2.1720
10101TIP3    H251719   1.039   1.594   3.551  0.3177 -0.4475 -0.7267
10102TIP3   OH251720   2.380   6.705   1.698 -0.1366  0.5134 -0.5240
10102TIP3    H151721   2.432   6.761   1.756 -0.4341 -0.1296  0.3716
10102TIP3    H251722   2.292   6.706   1.735  0.1622 -1.6581  0.3365
10103TIP3   OH251723   4.153   0.073  13.634 -0.8776  0.2872 -0.5110
10103TIP3    H151724   4.105   0.027  13.703  0.6872  0.0067  0.3998
10103TIP3    H251725   4.245   0.067  13.660 -0.2380 -0.0540 -2.7488
10104TIP3   OH251726   0.607   5.319  11.780 -0.1507 -0.4581  0.0699
10104TIP3    H151727   0.537   5.279  11.832 -0.5525 -1.7148 -1.4176
10104TIP3    H251728   0.622   5.404  11.822 -0.3990 -1.4751  2.2882
10105TIP3   OH251729   0.930   1.663   2.038 -0.0202 -0.0061 -0.2925
10105TIP3    H151730   0.967   1.739   2.082  0.0061 -0.6777  0.8777
10105TIP3    H251731   0.848   1.646   2.083 -0.1194 -0.5574 -0.6650
10106TIP3   OH251732   4.963   1.028   2.225 -0.4036  0.2063  0.0035
10106TIP3    H151733   4.935   1.116   2.249  1.5605  0.1198  2.8299
10106TIP3    H251734   5.000   1.038   2.137 -1.8945  1.8275 -0.4614
10107TIP3   OH251735   0.628   1.167   5.061  0.1688  0.0728  0.1953
10107TIP3    H151736   0.691   1.213   5.006 -0.0896  2.6516  1.9864
10107TIP3    H251737   0.591   1.235   5.118 -1.1009 -2.1334  2.1023
10108TIP3   OH251738   1.383   3.488  11.005  0.1039  0.1779 -0.1586
10108TIP3    H151739   1.359   3.424  10.939 -0.6929  1.1742 -0.8469
10108TIP3    H251740   1.337   3.567  10.980  0.6806  0.8887  0.9662
10109TIP3   OH251741   3.857   2.228   0.216 -0.0093 -0.6859 -0.2395
10109TIP3    H151742   3.893   2.175   0.287 -0.6548 -0.6558  0.1128
10109TIP3    H251743   3.774   2.186   0.194  0.0693 -0.5542 -0.8137
10110TIP3   OH251744   0.052   6.074  13.225 -0.4186 -0.2066 -0.1533
10110TIP3    H151745   0.095   6.142  13.276 -0.3971 -0.3205 -0.0190
10110TIP3    H251746   0.103   5.994  13.244  0.3136 -0.0204 -1.2577
10111TIP3   OH251747   6.320   2.900  11.033 -0.1026 -0.0887 -0.0284
10111TIP3    H151748   6.267   2.934  11.105 -2.5778 -0.1270 -1.7599
10111TIP3    H251749   6.298   2.807  11.028  3.2017 -1.0540  1.7583
10112TIP3   OH251750   4.065   4.467   2.895 -0.4208 -0.0986  0.0463
10112TIP3    H151751   4.009   4.531   2.939  1.0746  0.5070  1.1022
10112TIP3    H251752   4.071   4.394   2.957  2.2597  1.0516  1.2182
10113TIP3   OH251753   1.905   4.376  12.214  0.0742 -0.3183  0.7307
10113TIP3    H151754   1.980   4.348  12.163  0.0285 -0.1828  0.5898
10113TIP3    H251755   1.867   4.449  12.164 -3.0046 -3.4197 -1.6605
10114TIP3   OH251756   4.287   3.394   1.238  0.1448  0.0026  0.7502
10114TIP3    H151757   4.333   3.477   1.226  0.3821 -0.5543 -2.6594
10114TIP3    H251758   4.200   3.410   1.201 -0.5079 -0.6601  1.9821
10115TIP3   OH251759   0.554   2.418  16.937  0.3797 -0.3823  0.5949
10115TIP3    H151760   0.571   2.345  16.877  0.4348 -0.1277  0.2965
10115TIP3    H251761   0.469   2.451  16.911  0.1404 -0.6378  1.0390
10116TIP3   OH251762   2.137   3.857   3.689  0.4034  0.2412 -0.4849
10116TIP3    H151763   2.202   3.787   3.681 -0.0812 -0.2994  0.2415
10116TIP3    H251764   2.102   3.869   3.601 -0.1474 -1.0408 -0.4470
10117TIP3   OH251765   0.649   5.032  13.856  0.5203 -0.0495  0.0105
10117TIP3    H151766   0.631   5.103  13.794 -0.9175 -0.0875  0.3546
10117TIP3    H251767   0.732   5.055  13.896  0.7164  0.7583 -0.8435
10118TIP3   OH251768   4.137   3.174  12.806 -0.1565 -0.6548 -0.2419
10118TIP3    H151769   4.183   3.090  12.808 -0.3898 -0.7565  1.6661
10118TIP3    H251770   4.197   3.232  12.759  2.0717 -0.7477  2.3100
10119TIP3   OH251771   3.954   5.073   2.443  0.0916  0.1121  0.0353
10119TIP3    H151772   3.873   5.100   2.487  0.9556  0.0451  1.7232
10119TIP3    H251773   3.994   5.154   2.413  0.0452  0.2650  0.3841
10120TIP3   OH251774   4.674   6.416   0.420  0.4483  0.2029 -0.2555
10120TIP3    H151775   4.705   6.389   0.334 -0.7526 -0.2475 -0.5553
10120TIP3    H251776   4.617   6.345   0.449 -0.8078  1.2932 -0.0024
10121TIP3   OH251777   0.747   6.604  15.789 -0.0280 -0.4082 -0.4387
10121TIP3    H151778   0.801   6.662  15.735  0.2151 -1.0111 -0.8510
10121TIP3    H251779   0.751   6.519  15.745 -1.1998 -0.5002 -0.3858
10122TIP3   OH251780   3.932   1.881   5.590 -0.1306 -0.3278 -0.6573
10122TIP3    H151781   3.928   1.872   5.686  0.0335 -1.1549 -0.7240
10122TIP3    H251782   3.846   1.916   5.566  0.6684  2.1492  0.0182
10123TIP3   OH251783   2.196   5.069   4.131 -0.2178 -0.1076  0.3078
10123TIP3    H151784   2.239   5.148   4.166  0.2196 -0.8033  1.3528
10123TIP3    H251785   2.231   4.997   4.183  0.5170 -1.1902 -1.6283
10124TIP3   OH251786   5.236   3.693  11.835  0.1346  0.1321  0.7800
10124TIP3    H151787   5.259   3.601  11.831 -0.9491 -0.2450  2.5498
10124TIP3    H251788   5.144   3.697  11.811  0.5097  0.9275 -0.5945
10125TIP3   OH251789   5.719   0.103  15.766  0.0757  0.1995 -0.3895
10125TIP3    H151790   5.705   0.083  15.674  0.5097  0.6359 -0.5547
10125TIP3    H251791   5.671   0.184  15.782 -1.5970 -0.8900  0.2576
10126TIP3   OH251792   4.704   5.654   0.182 -0.8065 -0.1440 -0.4546
10126TIP3    H151793   4.686   5.645   0.275 -0.0235 -0.5222 -0.3343
10126TIP3    H251794   4.640   5.596   0.140 -0.7589 -0.4483 -0.1135
10127TIP3   OH251795   1.666   0.074   0.855 -0.5236 -0.3718  0.2999
10127TIP3    H151796   1.733   0.015   0.890  0.5039  1.1432  0.9710
10127TIP3    H251797   1.635   0.123   0.932  1.7348  2.9983 -0.7918
10128TIP3   OH251798   4.697   6.767  12.950 -0.2014 -0.3600 -0.0558
10128TIP3    H151799   4.624   6.807  12.997 -0.0326  0.1954 -0.2523
10128TIP3    H251800   4.761   6.746  13.018  0.3959  1.2110 -0.1160
10129TIP3   OH251801   6.212   5.206  14.178  0.1159  0.1254  0.1541
10129TIP3    H151802   6.255   5.291  14.180  0.8643 -0.2682  1.9753
10129TIP3    H251803   6.131   5.221  14.129  0.4461  1.7760  0.0811
10130TIP3   OH251804   4.649   1.529   2.318  0.3812 -0.0341  0.4711
10130TIP3    H151805   4.602   1.610   2.334  1.0797  0.4663  0.0400
10130TIP3    H251806   4.719   1.553   2.257  0.0309 -1.1385 -0.3891
10131TIP3   OH251807   6.492   4.106   2.066  0.2326  0.3031  0.4189
10131TIP3    H151808   6.439   4.062   2.000 -1.6325  1.5491  1.0616
10131TIP3    H251809   6.523   4.186   2.023  1.0184 -0.0643  0.2835
10132TIP3   OH251810   5.492   3.876  14.012 -0.1466 -0.4887 -0.6847
10132TIP3    H151811   5.500   3.812  14.083 -0.8179 -0.4567 -0.5775
10132TIP3    H251812   5.544   3.838  13.940  0.3876 -0.6034 -0.2400
10133TIP3   OH251813   2.547   6.272  15.345  0.9425 -0.1148 -0.3126
10133TIP3    H151814   2.577   6.311  15.427 -0.3753 -0.5199  0.3740
10133TIP3    H251815   2.478   6.211  15.371 -0.4906  0.8082 -1.8385
10134TIP3   OH251816   3.110   4.095  12.615 -0.4517 -0.5679  0.1267
10134TIP3    H151817   3.026   4.129  12.584 -1.0713 -1.1675  1.1221
10134TIP3    H251818   3.135   4.154  12.686  0.6281  0.3878 -1.0060
10135TIP3   OH251819   2.694   0.742  15.941 -0.0492  0.4948  0.1755
10135TIP3    H151820   2.671   0.669  15.884  0.5996 -0.7643  1.4932
10135TIP3    H251821   2.790   0.742  15.942 -0.0491  0.4014  1.3690
10136TIP3   OH251822   1.534   4.587   5.887 -0.5897 -0.5034 -0.0294
10136TIP3    H151823   1.513   4.525   5.957 -2.8787 -3.5377 -3.2378
10136TIP3    H251824   1.619   4.558   5.854 -0.5619 -0.4533 -0.0022
10137TIP3   OH251825   4.689   2.118   6.027  0.1813  0.4121 -0.1938
10137TIP3    H151826   4.695   2.179   6.100 -0.5567  0.3097 -0.0363
10137TIP3    H251827   4.651   2.169   5.956  0.4319  0.3805 -0.3514
10138TIP3   OH251828   2.211   3.197   5.799 -0.8139 -0.7521  0.5204
10138TIP3    H151829   2.247   3.214   5.713 -2.8591  0.6523 -0.1036
10138TIP3    H251830   2.275   3.234   5.860 -1.3196  1.9986 -0.5525
10139TIP3   OH251831   3.558   4.404   2.624  0.1063  0.1337 -0.6881
10139TIP3    H151832   3.539   4.484   2.575  2.4442  0.6981 -0.7488
10139TIP3    H251833   3.611   4.433   2.698 -0.0051 -1.2150 -0.0691
10140TIP3   OH251834   6.210   3.367  11.004 -0.5422  0.4179 -0.7450
10140TIP3    H151835   6.231   3.460  11.013  0.0176  0.3371 -1.1648
10140TIP3    H251836   6.115   3.363  11.013 -0.4911  0.9299  0.0609
10141TIP3   OH251837   4.102   4.223   1.294 -0.1547  0.2329  0.1475
10141TIP3    H151838   4.146   4.174   1.365 -2.4859 -1.5788  0.4248
10141TIP3    H251839   4.040   4.280   1.340 -0.5241  0.2280 -0.3431
10142TIP3   OH251840   0.123   5.211   1.277  0.3217  0.6590 -0.0696
10142TIP3    H151841   0.106   5.215   1.371 -1.3649  1.6777 -0.4021
10142TIP3    H251842   0.163   5.296   1.257 -0.1702  0.8068 -0.4325
10143TIP3   OH251843   2.627   5.103  11.580 -0.4479 -0.7919  0.4909
10143TIP3    H151844   2.711   5.111  11.534 -0.6479  1.2102  0.4101
10143TIP3    H251845   2.641   5.033  11.643  0.4691 -2.2175 -1.2633
10144TIP3   OH251846   2.352   2.769  11.923 -0.1725 -0.0172  0.3134
10144TIP3    H151847   2.335   2.804  12.010  0.2056 -0.2603  0.4906
10144TIP3    H251848   2.442   2.797  11.903 -0.3079  0.1527 -0.0503
10145TIP3   OH251849   0.881   3.153   1.262 -0.2664  0.1902  0.2593
10145TIP3    H151850   0.962   3.165   1.213  0.5828  0.4715  1.7273
10145TIP3    H251851   0.908   3.146   1.353 -1.7200 -1.7309  0.5759
10146TIP3   OH251852   1.896   5.640   2.405 -0.2703  0.2060  0.3336
10146TIP3    H151853   1.811   5.602   2.381  1.5614 -1.5533 -4.0007
10146TIP3    H251854   1.959   5.571   2.383  2.5775  2.9582 -0.4294
10147TIP3   OH251855   0.661   3.213   0.992  0.2978  0.3329  0.1769
10147TIP3    H151856   0.673   3.307   1.006 -0.8927  0.2162  2.1757
10147TIP3    H251857   0.582   3.192   1.041  0.3980 -1.6624 -0.4992
10148TIP3   OH251858   2.990   1.291   2.515 -0.3935 -0.0947  0.5792
10148TIP3    H151859   3.071   1.332   2.547 -0.6545  0.3586  0.6583
10148TIP3    H251860   2.944   1.361   2.469 -1.8963  0.3256  2.6074
10149TIP3   OH251861   5.117   1.540   3.515  0.1743 -0.6332 -0.5510
10149TIP3    H151862   5.087   1.598   3.445  0.5153  0.1178 -0.0931
10149TIP3    H251863   5.060   1.464   3.510 -1.4413  0.5110 -0.0612
10150TIP3   OH251864   6.142   1.786  12.727 -0.1331  0.3563 -0.4417
10150TIP3    H151865   6.211   1.788  12.661  0.5113 -0.3280  0.2018
10150TIP3    H251866   6.157   1.704  12.775 -2.0766 -0.3631 -1.0168
10151TIP3   OH251867   2.047   1.757   4.359 -0.0804  0.1525 -0.7882
10151TIP3    H151868   2.017   1.737   4.270 -0.5231  0.3778 -0.6938
10151TIP3    H251869   2.104   1.684   4.383 -4.0380 -2.6055  0.7098
10152TIP3   OH251870   2.244   5.338  15.587 -0.6479 -0.8880  0.0011
10152TIP3    H151871   2.259   5.340  15.493  2.6861  1.2267  0.4721
10152TIP3    H251872   2.222   5.429  15.610  0.7010 -0.9004  1.4924
10153TIP3   OH251873   4.876   3.511  13.422  0.6457 -0.4736 -0.6032
10153TIP3    H151874   4.872   3.467  13.507  0.6271  2.5127  1.0223
10153TIP3    H251875   4.969   3.522  13.405  0.6474  2.0091  0.7668
10154TIP3   OH251876   5.257   0.367  14.337  0.0864 -1.0019  0.1001
10154TIP3    H151877   5.317   0.436  14.364 -1.0459  0.3038 -0.6544
10154TIP3    H251878   5.303   0.321  14.267  0.0166  0.2942 -0.8112
10155TIP3   OH251879   0.889   4.226   5.043 -0.1970  0.1446  0.2627
10155TIP3    H151880   0.940   4.282   4.985  1.2258 -0.2132  1.1409
10155TIP3    H251881   0.909   4.137   5.015  0.9268 -0.0498  1.6320
10156TIP3   OH251882   2.953   3.222   2.349  0.1116  0.6319  0.0122
10156TIP3    H151883   2.881   3.285   2.361 -0.9077 -0.2694 -1.1656
10156TIP3    H251884   2.913   3.137   2.367  1.3166  0.2626  0.9597
10157TIP3   OH251885   0.506   2.625   1.785  0.7347 -0.1526  0.6983
10157TIP3    H151886   0.588   2.607   1.739  1.3551  0.1198  1.6645
10157TIP3    H251887   0.521   2.708   1.829 -0.3953  0.3489  0.1521
10158TIP3   OH251888   0.812   5.708  11.414  0.6615  0.7802  0.1152
10158TIP3    H151889   0.786   5.667  11.497 -1.3705  1.5058 -0.1530
10158TIP3    H251890   0.895   5.665  11.392 -0.0276 -1.2234  1.2515
10159TIP3   OH251891   1.799   2.445  14.172  0.8301 -0.4687  0.4629
10159TIP3    H151892   1.890   2.476  14.167  0.1094  1.5434 -1.0387
10159TIP3    H251893   1.803   2.366  14.226  3.4005 -0.1425  0.8054
10160TIP3   OH251894   5.469   4.076   0.921  0.9198 -0.0498  0.0838
10160TIP3    H151895   5.444   4.130   0.996 -0.2956 -1.4213  0.6933
10160TIP3    H251896   5.396   4.086   0.859  2.2576  1.6623 -1.2506
10161TIP3   OH251897   6.607   2.501   6.676  0.0554  0.2498  0.3582
10161TIP3    H151898   6.641   2.428   6.624  0.8917  0.9865 -0.1503
10161TIP3    H251899   6.603   2.575   6.615  0.1348  0.8791  1.1003
10162TIP3   OH251900   6.490   2.028   6.404  0.4461  0.1055  0.1192
10162TIP3    H151901   6.399   2.016   6.379  0.2766  1.1444  0.2147
10162TIP3    H251902   6.507   2.121   6.391  0.9246  0.2973  1.9369
10163TIP3   OH251903   3.365   6.096   4.355 -0.2171  0.2797  0.2235
10163TIP3    H151904   3.457   6.069   4.348 -0.0827  0.9569 -0.7614
10163TIP3    H251905   3.316   6.016   4.337  0.1818  0.2142 -0.6123
10164TIP3   OH251906   3.122   3.917   1.074  1.0489  0.6794 -0.3409
10164TIP3    H151907   3.096   3.907   1.166  2.6051  2.1626  0.2799
10164TIP3    H251908   3.218   3.921   1.076  1.0587  1.8835 -1.8920
10165TIP3   OH251909   4.568   5.644  13.782 -0.0383  0.1719 -0.0219
10165TIP3    H151910   4.564   5.614  13.691  1.0375  1.9984 -0.6879
10165TIP3    H251911   4.513   5.581  13.830 -0.9758 -0.5568 -1.9829
10166TIP3   OH251912   2.197   6.575  14.419  0.3895  0.3666  0.3068
10166TIP3    H151913   2.109   6.548  14.445 -0.1082  2.3244  0.7339
10166TIP3    H251914   2.217   6.521  14.342 -1.8801  1.1559 -0.8679
10167TIP3   OH251915   1.671   2.638  11.342 -0.1789 -0.0303  0.0639
10167TIP3    H151916   1.612   2.566  11.324 -0.0090 -0.0866 -0.2710
10167TIP3    H251917   1.658   2.658  11.435 -0.6175 -0.1344  0.0230
10168TIP3   OH251918   4.637   5.774  11.931  0.1399 -0.0634  0.1217
10168TIP3    H151919   4.578   5.849  11.932  1.9636  1.4420 -1.5258
10168TIP3    H251920   4.686   5.782  12.013  0.7281  0.9047 -0.3081
10169TIP3   OH251921   2.717   3.477   2.927 -0.1217 -0.0010 -0.0112
10169TIP3    H151922   2.727   3.410   2.994 -0.4393 -0.9911 -0.9568
10169TIP3    H251923   2.772   3.448   2.855  0.0283  0.9395 -0.2896
10170TIP3   OH251924   1.592   4.344   2.744  0.5545  0.6128 -0.1035
10170TIP3    H151925   1.606   4.323   2.652 -2.7327 -0.7932 -0.3430
10170TIP3    H251926   1.644   4.280   2.792  2.5967  1.6047 -0.9630
10171TIP3   OH251927   4.088   3.297  13.045 -0.1206 -0.4757  0.6672
10171TIP3    H151928   4.123   3.243  12.974 -0.7715 -0.8713  0.6379
10171TIP3    H251929   4.074   3.235  13.117 -1.9631 -0.5784  0.2475
10172TIP3   OH251930   1.968   5.872   4.679 -0.3719  0.0983 -0.3809
10172TIP3    H151931   2.035   5.841   4.740  0.0568  0.7682 -0.4954
10172TIP3    H251932   1.988   5.965   4.668 -0.3231 -0.0584 -1.6883
10173TIP3   OH251933   5.253   1.074  15.172 -0.0921  0.5593 -0.3610
10173TIP3    H151934   5.186   1.123  15.124 -0.0081  0.0930 -0.9594
10173TIP3    H251935   5.290   1.014  15.107  0.6934  0.5974  0.0472
10174TIP3   OH251936   5.339   1.697  16.783  0.1350 -0.6835  0.3006
10174TIP3    H151937   5.270   1.734  16.727  0.9404 -2.3584 -1.8546
10174TIP3    H251938   5.408   1.672  16.722  1.4441 -1.6865  2.1687
10175TIP3   OH251939   6.758   3.172  12.523 -0.1005 -0.0520 -0.0635
10175TIP3    H151940   6.829   3.159  12.584 -1.0583 -0.6765  0.9350
10175TIP3    H251941   6.788   3.131  12.442 -0.2579 -2.3790  1.0214
10176TIP3   OH251942   0.815   5.946   4.267  0.1236 -0.5887  0.6172
10176TIP3    H151943   0.824   5.876   4.202  1.3453  0.3430 -0.2316
10176TIP3    H251944   0.823   6.027   4.217 -0.5195  0.1660  1.7050
10177TIP3   OH251945   1.121   5.260  16.950  0.1079  0.0818  0.1041
10177TIP3    H151946   1.168   5.332  16.993  1.7568 -2.3793  2.5809
10177TIP3    H251947   1.031   5.269  16.981  0.9479 -0.7132  2.8933
10178TIP3   OH251948   1.923   3.132  13.010 -0.0711 -0.0229  0.2814
10178TIP3    H151949   1.975   3.141  13.090 -0.5644  1.8125  0.4333
10178TIP3    H251950   1.888   3.220  12.995 -0.2746 -0.4299 -1.7605
10179TIP3   OH251951   4.076   5.450  15.330  0.2079  0.3092  0.3300
10179TIP3    H151952   4.120   5.372  15.364  0.3425  0.8925  1.5270
10179TIP3    H251953   4.143   5.519  15.335  0.5719  0.1527 -2.1746
10180TIP3   OH251954   5.067   4.341  14.861 -0.4593 -0.5517 -0.2665
10180TIP3    H151955   4.987   4.351  14.913  0.0138  0.5107  0.2730
10180TIP3    H251956   5.044   4.375  14.774 -0.2419  0.9218  0.2387
10181TIP3   OH251957   0.933   5.909   0.518  0.2273  0.0488 -0.3203
10181TIP3    H151958   0.908   5.999   0.538 -0.2946 -0.3850  0.9953
10181TIP3    H251959   1.029   5.908   0.527  0.1668  0.3037  0.3692
10182TIP3   OH251960   3.380   1.889  12.253 -0.5390  0.3803  0.7595
10182TIP3    H151961   3.295   1.849  12.271 -0.1093 -0.4222  1.0135
10182TIP3    H251962   3.417   1.838  12.180 -0.1876  0.5927  0.7844
10183TIP3   OH251963   5.280   4.725   0.200  0.7865  0.0325 -0.3786
10183TIP3    H151964   5.189   4.699   0.187  1.0601 -0.9965 -0.2594
10183TIP3    H251965   5.295   4.714   0.294  0.8722  0.7443 -0.3031
10184TIP3   OH251966   5.437   4.434  10.932 -0.2606  0.0115  0.1565
10184TIP3    H151967   5.500   4.408  10.864  0.2592  0.7717  0.3444
10184TIP3    H251968   5.475   4.402  11.014 -0.7569 -0.6662  0.1294
10185TIP3   OH251969   4.127   3.144   0.330  0.3123  0.2426  0.8218
10185TIP3    H151970   4.134   3.059   0.286  0.0536  0.8754 -0.4490
10185TIP3    H251971   4.150   3.125   0.421  1.0886 -1.0337  0.3738
10186TIP3   OH251972   6.524   5.416   4.503 -1.1935  0.0762 -0.0790
10186TIP3    H151973   6.576   5.476   4.555  0.4526  1.3605 -3.0870
10186TIP3    H251974   6.564   5.330   4.519 -0.1539  0.5823  0.1022
10187TIP3   OH251975   1.677   3.802  15.737 -0.1929  0.4923 -0.1568
10187TIP3    H151976   1.607   3.752  15.695  0.0563 -0.3299  0.3872
10187TIP3    H251977   1.708   3.862  15.669  2.0756 -2.6761 -2.0691
10188TIP3   OH251978   5.186   5.405   3.108 -0.3835 -0.1397 -0.5241
10188TIP3    H151979   5.158   5.491   3.079 -0.6307  0.3990  1.2519
10188TIP3    H251980   5.105   5.354   3.116 -0.2719 -0.4357 -1.2149
10189TIP3   OH251981   3.645   3.490  16.376  0.0917  0.7396 -0.1870
10189TIP3    H151982   3.718   3.459  16.322  1.3410  0.3293  1.6753
10189TIP3    H251983   3.578   3.423  16.366  0.1898  0.8099 -1.4344
10190TIP3   OH251984   6.384   5.777  11.372  0.0937  0.5541  0.0817
10190TIP3    H151985   6.377   5.828  11.453  0.7369 -0.7864  0.9866
10190TIP3    H251986   6.368   5.842  11.302  0.0059  1.8127  1.2435
10191TIP3   OH251987   4.823   3.174   5.708  0.1098  0.6146  0.3715
10191TIP3    H151988   4.804   3.124   5.628 -0.2380 -0.1793  0.9502
10191TIP3    H251989   4.750   3.236   5.714 -0.6676 -0.3355  0.8845
10192TIP3   OH251990   4.693   4.826  13.423  0.2029 -0.2385  0.5413
10192TIP3    H151991   4.653   4.747  13.386 -0.6923  0.6456 -0.3792
10192TIP3    H251992   4.728   4.797  13.507 -1.6992 -1.1992  1.0335
10193TIP3   OH251993   2.460   6.640   5.909  0.3431 -0.2743  0.0101
10193TIP3    H151994   2.477   6.732   5.931 -2.1400  0.0734  0.6639
10193TIP3    H251995   2.471   6.635   5.815  1.7385  0.4165  0.1343
10194TIP3   OH251996   3.683   5.757  14.960 -0.4075 -0.3660  0.0626
10194TIP3    H151997   3.741   5.755  14.883 -1.5212  2.2133 -0.9037
10194TIP3    H251998   3.604   5.711  14.931 -1.3702  1.7881 -0.8625
10195TIP3   OH251999   2.882   0.064  13.326 -0.4202 -0.5812 -0.3743
10195TIP3    H152000   2.943   0.137  13.329 -1.3478  0.1661  0.2251
10195TIP3    H252001   2.926  -0.006  13.375 -0.5129  0.3016  0.9882
10196TIP3   OH252002   3.285   2.845  13.204 -0.0536 -0.6203  0.2509
10196TIP3    H152003   3.368   2.883  13.232 -1.0490  0.6888  1.5227
10196TIP3    H252004   3.247   2.911  13.146 -0.0808 -1.3477 -0.5715
10197TIP3   OH252005   3.894   0.352   4.861 -0.1141  0.0661  0.2731
10197TIP3    H152006   3.829   0.331   4.928 -1.1709  0.9293 -0.4835
10197TIP3    H252007   3.902   0.272   4.810 -0.4046 -0.1078  0.4992
10198TIP3   OH252008   0.596   5.513  15.078 -0.2759 -0.2365 -0.0913
10198TIP3    H152009   0.642   5.439  15.038 -1.0490 -1.2793  0.8989
10198TIP3    H252010   0.611   5.502  15.172  0.1986  1.2773  0.0103
10199TIP3   OH252011   5.313   4.322  12.338  0.2005  0.1023  0.1931
10199TIP3    H152012   5.340   4.266  12.265 -0.5633  1.4475 -1.1528
10199TIP3    H252013   5.353   4.407  12.319 -1.7695  1.0592  0.1964
10200TIP3   OH252014   6.079   0.300   1.613 -0.5675 -0.0090 -0.6995
10200TIP3    H152015   6.060   0.212   1.580 -1.2366 -0.4194  0.7251
10200TIP3    H252016   6.000   0.351   1.594 -0.8793 -0.1956  0.0836
10201TIP3   OH252017   0.681   5.434  17.122 -0.1188 -0.0322  0.0098
10201TIP3    H152018   0.697   5.410  17.213  0.9934 -0.7444 -0.3596
10201TIP3    H252019   0.671   5.529  17.123 -2.4429 -0.2658  1.1870
10202TIP3   OH252020   1.853   1.988  14.579 -0.7305 -0.0036 -0.2471
10202TIP3    H152021   1.881   2.071  14.619 -0.1342  0.0311 -0.7213
10202TIP3    H252022   1.900   1.921  14.628 -1.1536 -0.0547  0.0869
10203TIP3   OH252023   5.462   1.449   0.384  0.1129  0.2306 -0.4452
10203TIP3    H152024   5.478   1.397   0.306  2.7091  0.5629 -0.1742
10203TIP3    H252025   5.477   1.539   0.357  0.8127  0.3675  0.3843
10204TIP3   OH252026   5.135   0.806   4.813 -0.2381  0.1125  0.1455
10204TIP3    H152027   5.068   0.788   4.879  0.5981  0.0022  0.9685
10204TIP3    H252028   5.103   0.883   4.767 -0.5352  0.5474  1.0794
10205TIP3   OH252029   0.569   6.200  10.992  0.1525 -0.8729  0.1888
10205TIP3    H152030   0.595   6.148  10.916  1.0830  1.2613 -0.9978
10205TIP3    H252031   0.606   6.287  10.975 -0.7645 -0.0095  2.4557
10206TIP3   OH252032   4.535   6.211  10.976  0.0172  0.2297 -0.0521
10206TIP3    H152033   4.602   6.200  11.044  1.1966 -0.9493 -1.3704
10206TIP3    H252034   4.506   6.301  10.985  0.0242  0.0434  2.1368
10207TIP3   OH252035   6.714   5.199  13.698 -0.3852 -0.2038 -0.0588
10207TIP3    H152036   6.725   5.139  13.771  0.4453  0.8114  0.6597
10207TIP3    H252037   6.763   5.277  13.723 -1.0298  0.5870 -1.2011
10208TIP3   OH252038   2.546   2.997  15.427  0.0221  0.0785 -0.0745
10208TIP3    H152039   2.596   3.036  15.498 -0.6946  1.0793 -0.1138
10208TIP3    H252040   2.489   2.933  15.469  2.0675 -1.8619 -0.1404
10209TIP3   OH252041   4.490   2.528  12.525 -0.1790 -0.0639 -0.5618
10209TIP3    H152042   4.524   2.443  12.497 -0.2189  0.0386 -0.9272
10209TIP3    H252043   4.565   2.588  12.514  0.0201 -0.1616  0.2434
10210TIP3   OH252044   0.375   3.157  16.482 -0.3803 -0.4238 -0.0348
10210TIP3    H152045   0.465   3.154  16.515 -1.2129  1.6782  2.6215
10210TIP3    H252046   0.369   3.242  16.438 -1.2867 -0.1723  0.5686
10211TIP3   OH252047   1.176   1.246   1.224 -0.2880  0.0913 -0.2759
10211TIP3    H152048   1.226   1.318   1.261 -1.5038  2.0389 -2.2966
10211TIP3    H252049   1.149   1.277   1.138 -0.1763 -3.0976 -1.5383
10212TIP3   OH252050   4.976   5.568   0.380  0.1804 -0.0509  0.2183
10212TIP3    H152051   5.030   5.548   0.457 -0.8573  2.2500  1.5996
10212TIP3    H252052   4.998   5.659   0.360 -1.4495  0.1533 -0.6545
10213TIP3   OH252053   0.081   3.093  11.597 -0.0477  0.1201 -0.0072
10213TIP3    H152054   0.143   3.164  11.584  1.1157 -0.4635  2.0517
10213TIP3    H252055   0.050   3.070  11.509 -0.3505  3.0492 -0.7046
10214TIP3   OH252056   4.578   5.034   0.327  0.1885 -0.1753 -0.3501
10214TIP3    H152057   4.645   5.096   0.356  0.0149  0.5193 -1.4081
10214TIP3    H252058   4.500   5.056   0.378  0.5431 -0.4754  0.3213
10215TIP3   OH252059   0.093   2.915  15.220  0.2822 -0.0023  0.2310
10215TIP3    H152060   0.008   2.923  15.263 -0.4522 -3.2456 -0.5003
10215TIP3    H252061   0.073   2.926  15.127  0.7694 -0.0570  0.1186
10216TIP3   OH252062   0.795   0.582  12.090 -0.3734  0.4315 -0.1275
10216TIP3    H152063   0.818   0.496  12.055  0.6993  0.4095  0.6054
10216TIP3    H252064   0.718   0.609  12.039  1.5662  0.7223 -2.9883
10217TIP3   OH252065   5.575   5.633   4.547  0.0036 -0.0737  0.3424
10217TIP3    H152066   5.510   5.695   4.516  0.4977 -0.8473 -2.4202
10217TIP3    H252067   5.550   5.614   4.637 -2.6342  0.8678 -0.1603
10218TIP3   OH252068   6.038   5.561   0.342  0.0448  0.0403 -0.0327
10218TIP3    H152069   6.112   5.557   0.281  0.2241  2.0635  0.0320
10218TIP3    H252070   5.962   5.543   0.288  0.4772 -1.0253 -0.2978
10219TIP3   OH252071   2.086   3.325   6.562 -0.6001  1.0662  0.5303
10219TIP3    H152072   2.134   3.401   6.596 -1.0484  1.6565 -0.1339
10219TIP3    H252073   2.087   3.336   6.467 -0.3507  0.0346  0.4150
10220TIP3   OH252074   0.734   2.158  15.831 -0.1219  0.3076  0.2718
10220TIP3    H152075   0.713   2.138  15.922  0.2006 -0.3429  0.2068
10220TIP3    H252076   0.778   2.080  15.799 -2.4037 -0.4243 -1.1750
10221TIP3   OH252077   5.128   2.822  13.499  0.2302 -0.4558 -0.3198
10221TIP3    H152078   5.137   2.867  13.415 -1.6942  0.8426  0.1656
10221TIP3    H252079   5.100   2.733  13.475 -1.4767  0.2540 -1.0101
10222TIP3   OH252080   5.076   3.799  12.793 -0.1991 -0.0917  0.1758
10222TIP3    H152081   5.048   3.886  12.764 -2.0718  0.0537  2.3224
10222TIP3    H252082   5.167   3.810  12.820 -0.6320  1.3569  1.0521
10223TIP3   OH252083   6.735   0.608  15.345  0.2178 -0.6729  0.5952
10223TIP3    H152084   6.732   0.698  15.311  2.7962 -0.6929  0.1790
10223TIP3    H252085   6.806   0.610  15.409  1.1852 -2.7309 -0.3764
10224TIP3   OH252086   6.654   4.471   3.963 -0.1314  0.2244  0.9389
10224TIP3    H152087   6.747   4.463   3.945 -0.0832  0.7083  0.9743
10224TIP3    H252088   6.638   4.410   4.035  0.3267  0.7824  1.5124
10225TIP3   OH252089   2.826   1.837  16.451 -0.0977 -0.1059  0.1617
10225TIP3    H152090   2.746   1.870  16.412 -0.1581 -2.4872 -1.8656
10225TIP3    H252091   2.897   1.885  16.408 -0.2887 -0.6840 -0.8016
10226TIP3   OH252092   6.656   4.363   2.769  0.1708 -0.5967  0.3017
10226TIP3    H152093   6.586   4.318   2.723 -1.7002  0.8261  1.6899
10226TIP3    H252094   6.617   4.390   2.852  2.7138 -0.8296  1.6215
10227TIP3   OH252095   1.397   3.548  13.129 -0.3705 -0.6008  0.3771
10227TIP3    H152096   1.366   3.481  13.067  2.1676 -1.5461  0.0529
10227TIP3    H252097   1.484   3.571  13.097 -0.6726  1.9386  1.2590
10228TIP3   OH252098   2.078   4.994   4.801  0.2967  0.4888  0.4653
10228TIP3    H152099   2.138   4.947   4.858  0.9442  1.0150  0.2208
10228TIP3    H252100   2.089   4.953   4.715  1.7632  1.8699 -0.0311
10229TIP3   OH252101   2.876   5.897  17.027 -0.3290  0.3284 -0.0979
10229TIP3    H152102   2.847   5.824  17.082 -0.2088  1.7026  1.8365
10229TIP3    H252103   2.795   5.933  16.991 -0.5295  0.3194  0.3433
10230TIP3   OH252104   3.779   4.988   6.793 -0.0523 -0.2283 -0.2500
10230TIP3    H152105   3.854   4.948   6.837  0.1766 -0.8632 -1.2066
10230TIP3    H252106   3.816   5.064   6.748 -0.4083  0.8285  1.1985
10231TIP3   OH252107   0.664   0.234   4.633  0.2250  0.2803 -0.8273
10231TIP3    H152108   0.617   0.198   4.557 -0.0446 -1.7679  0.2838
10231TIP3    H252109   0.756   0.216   4.615  0.1708 -0.0995 -0.7336
10232TIP3   OH252110   4.410   3.225  14.248 -0.1837  0.4135  0.4120
10232TIP3    H152111   4.393   3.176  14.167 -1.0848  1.5791 -0.1213
10232TIP3    H252112   4.480   3.177  14.291  2.5709  1.5457 -2.6139
10233TIP3   OH252113   0.530   0.386  12.204  0.1898  0.1229 -0.4237
10233TIP3    H152114   0.580   0.401  12.284  0.3645  0.1921 -0.5470
10233TIP3    H252115   0.592   0.343  12.145 -0.2351 -0.8841 -0.1612
10234TIP3   OH252116   3.577   2.293  15.134  0.4707  0.3318 -0.0333
10234TIP3    H152117   3.603   2.218  15.187  3.0798  1.7122  0.7457
10234TIP3    H252118   3.484   2.306  15.155  0.5374 -1.3476  1.4607
10235TIP3   OH252119   2.696   2.907  12.306 -0.0595 -0.4733  0.5231
10235TIP3    H152120   2.741   2.832  12.268 -1.3277 -0.7214 -0.5190
10235TIP3    H252121   2.624   2.926  12.246  0.7631  2.1498  0.2989
10236TIP3   OH252122   2.195   4.821  15.703  0.1393  0.2144  0.6004
10236TIP3    H152123   2.271   4.795  15.652 -1.0197  0.7265 -1.4678
10236TIP3    H252124   2.198   4.767  15.782  2.3237 -0.1365  0.2996
10237TIP3   OH252125   1.966   1.814  14.750  0.0562  0.3891 -0.0765
10237TIP3    H152126   2.038   1.755  14.771 -0.4143  0.2063  1.0472
10237TIP3    H252127   1.931   1.840  14.835 -0.8940  0.8597 -0.6094
10238TIP3   OH252128   5.749   4.904  15.870  0.1270  0.3082  0.1837
10238TIP3    H152129   5.758   4.992  15.833  1.4323 -0.8670 -2.4477
10238TIP3    H252130   5.833   4.888  15.914  0.8511 -0.5328 -1.4645
10239TIP3   OH252131   1.462   3.950  10.365 -0.2685  0.2749 -0.5103
10239TIP3    H152132   1.469   4.035  10.410  2.5947  0.6570 -1.5777
10239TIP3    H252133   1.395   3.964  10.299 -2.5506  0.5377  1.7839
10240TIP3   OH252134   5.503   2.209  12.054  0.1734  0.1041 -0.0438
10240TIP3    H152135   5.472   2.220  12.144  2.4471 -0.7549  0.8898
10240TIP3    H252136   5.458   2.131  12.022  0.3252 -0.3244  0.7907
10241TIP3   OH252137   2.533   0.508   4.890  0.1793 -0.2744  0.3927
10241TIP3    H152138   2.523   0.441   4.957 -0.5880 -0.9805 -0.3961
10241TIP3    H252139   2.529   0.591   4.937  1.6258 -0.7889  1.4373
10242TIP3   OH252140   0.252   2.490  15.429  0.2506  0.0598  0.5902
10242TIP3    H152141   0.222   2.529  15.347  1.5525  1.7305  0.8868
10242TIP3    H252142   0.180   2.433  15.456 -0.9372  0.8706 -0.7927
10243TIP3   OH252143   4.505   0.978   3.369 -0.0526  0.4083  0.1799
10243TIP3    H152144   4.443   0.915   3.332  0.0677 -0.2640  1.1022
10243TIP3    H252145   4.537   0.936   3.449  2.6618  0.1072 -0.9920
10244TIP3   OH252146   1.950   4.919   1.397  0.0073 -0.0478 -0.2222
10244TIP3    H152147   1.992   4.988   1.449 -1.8519  1.8112 -1.0771
10244TIP3    H252148   1.963   4.947   1.306 -2.1733  0.0678 -0.5215
10245TIP3   OH252149   1.611   2.234   0.941 -0.0496  0.2479  0.1094
10245TIP3    H152150   1.576   2.320   0.919  1.5339  0.8929  0.0891
10245TIP3    H252151   1.605   2.230   1.037 -2.4353 -0.6415 -0.0282
10246TIP3   OH252152   6.204   6.597   2.098  0.2384 -0.2374  0.2818
10246TIP3    H152153   6.219   6.511   2.057  1.3602 -0.0813  0.3553
10246TIP3    H252154   6.282   6.647   2.078  0.4933  0.0862  2.0069
10247TIP3   OH252155   3.749   0.935  12.223 -0.3801  0.2240 -0.3616
10247TIP3    H152156   3.793   0.872  12.166 -1.1041 -1.1618  0.5692
10247TIP3    H252157   3.764   0.901  12.311 -2.7215  0.0963  0.0148
10248TIP3   OH252158   3.135   6.306  13.068 -0.0618  0.1888 -0.5329
10248TIP3    H152159   3.156   6.249  13.142 -0.5357  1.9060  0.9352
10248TIP3    H252160   3.039   6.305  13.064 -0.1285  1.7802  0.2362
10249TIP3   OH252161   1.441   6.745   5.025  0.4068  0.5093 -0.0744
10249TIP3    H152162   1.422   6.706   5.110  0.9371  0.2742 -0.0608
10249TIP3    H252163   1.374   6.812   5.014  0.2240  0.4168  0.4452
10250TIP3   OH252164   2.203   3.441  13.218  0.2252 -0.1593  0.4528
10250TIP3    H152165   2.175   3.458  13.308 -2.8481  0.2149 -0.5391
10250TIP3    H252166   2.200   3.346  13.209 -0.4922 -0.1278  0.4069
10251TIP3   OH252167   0.623   5.894  13.090  0.7006  0.3187 -0.4862
10251TIP3    H152168   0.663   5.879  13.176  0.2751  1.6577 -0.0585
10251TIP3    H252169   0.665   5.973  13.057  0.2326  0.2971 -1.1481
10252TIP3   OH252170   6.058   5.235  13.440  0.6004  0.6158 -0.0874
10252TIP3    H152171   6.013   5.162  13.482 -0.2423 -0.3824 -2.5934
10252TIP3    H252172   6.022   5.313  13.482 -0.0016 -0.3547  1.2079
10253TIP3   OH252173   4.722   0.555   2.878  0.2654  0.5306  0.5193
10253TIP3    H152174   4.719   0.591   2.966  0.7117 -2.4155  1.7896
10253TIP3    H252175   4.632   0.527   2.860 -0.2448  2.8225 -0.7588
10254TIP3   OH252176   2.524   0.155  15.698  0.3457  0.1814 -0.6549
10254TIP3    H152177   2.565   0.235  15.731 -0.9056  0.3728  0.5013
10254TIP3    H252178   2.597   0.097  15.676  1.2499  1.4594 -1.0375
10255TIP3   OH252179   1.691   2.790   2.280 -0.9310 -0.3579  0.1195
10255TIP3    H152180   1.688   2.884   2.263  0.5589 -0.6930 -2.2747
10255TIP3    H252181   1.678   2.782   2.374  0.7403  2.3626  0.6308
10256TIP3   OH252182   5.397   5.347   6.336 -0.2450  0.1847 -0.1147
10256TIP3    H152183   5.427   5.330   6.425  0.4890  2.9386  0.2002
10256TIP3    H252184   5.471   5.392   6.294 -1.3695  0.8140 -1.4573
10257TIP3   OH252185   3.030   3.035  11.218 -0.4666 -0.0027  0.1094
10257TIP3    H152186   3.028   3.027  11.313 -2.0711  2.5822  0.3541
10257TIP3    H252187   2.964   2.972  11.188 -0.9418  0.1452  0.8160
10258TIP3   OH252188   0.837   6.736  11.794 -0.0582 -0.1458  0.2057
10258TIP3    H152189   0.831   6.653  11.843 -1.0146  0.1028  0.5176
10258TIP3    H252190   0.777   6.725  11.721 -1.6295  0.9745  1.2938
10259TIP3   OH252191   1.452   1.210   1.533 -0.5498 -0.1029 -0.4204
10259TIP3    H152192   1.545   1.192   1.518 -0.8462 -0.9066 -1.3547
10259TIP3    H252193   1.406   1.140   1.486 -1.6680  1.0888 -1.1536
10260TIP3   OH252194   2.709   3.483  12.740 -0.5008  0.1937 -0.2730
10260TIP3    H152195   2.727   3.515  12.652  1.2433 -1.8810 -0.7135
10260TIP3    H252196   2.743   3.551  12.798 -2.3031  1.9006 -1.1650
10261TIP3   OH252197   1.316   6.105  12.217 -0.7335  0.9682  0.1921
10261TIP3    H152198   1.263   6.064  12.285 -1.3669 -0.5485 -1.1838
10261TIP3    H252199   1.358   6.032  12.172 -0.5578  1.9236 -1.2431
10262TIP3   OH252200   1.660   3.626   1.060 -0.2615 -0.2603  0.9310
10262TIP3    H152201   1.641   3.534   1.043  0.1724 -0.1972  0.0645
10262TIP3    H252202   1.752   3.637   1.035 -0.4302  0.4994  0.6192
10263TIP3   OH252203   2.231   0.261   1.205 -0.1573  0.2394  0.1858
10263TIP3    H152204   2.153   0.216   1.236 -1.3606  2.0410 -0.1685
10263TIP3    H252205   2.287   0.269   1.283  0.7239 -3.0912 -0.0497
10264TIP3   OH252206   3.946   5.728   5.257  0.4658 -0.1095  0.0614
10264TIP3    H152207   3.940   5.752   5.350  0.2878 -0.9730  0.2755
10264TIP3    H252208   3.951   5.632   5.257  1.2858 -0.0764 -0.7812
10265TIP3   OH252209   3.901   5.496   2.597 -0.6218  0.0728 -0.1284
10265TIP3    H152210   3.827   5.528   2.545 -1.5873  0.2502  1.3314
10265TIP3    H252211   3.977   5.542   2.561 -1.4613  1.1974 -0.4993
10266TIP3   OH252212   1.929   5.670  12.680 -0.5453  0.2096 -0.4273
10266TIP3    H152213   1.968   5.654  12.766 -0.2005  1.3784 -0.3598
10266TIP3    H252214   1.846   5.714  12.699  0.0899  1.5638 -0.7218
10267TIP3   OH252215   3.390   3.115  14.994 -0.4882  0.0423 -0.2005
10267TIP3    H152216   3.444   3.190  15.014 -1.2591  0.4490  0.3921
10267TIP3    H252217   3.403   3.055  15.068  1.7218 -1.3355 -1.6414
10268TIP3   OH252218   3.571   4.750   1.419 -0.7383  0.1151  0.2228
10268TIP3    H152219   3.641   4.794   1.467  1.2560 -1.7341 -0.8922
10268TIP3    H252220   3.548   4.675   1.473  0.7809 -1.3751 -1.1056
10269TIP3   OH252221   4.687   6.573   4.271 -0.4163  0.7806  0.2682
10269TIP3    H152222   4.737   6.654   4.262 -0.9597  1.0919  0.0383
10269TIP3    H252223   4.745   6.505   4.236 -0.6272  1.3075 -1.1172
10270TIP3   OH252224   4.157   3.634  16.795 -0.0787 -0.0527 -0.0431
10270TIP3    H152225   4.194   3.567  16.736 -1.0510 -1.3474  0.7895
10270TIP3    H252226   4.069   3.649  16.763 -0.1346  0.2634  0.2514
10271TIP3   OH252227   1.918   0.435   2.636 -0.2360  0.3291 -0.1741
10271TIP3    H152228   1.988   0.395   2.689 -0.8006  0.5179  0.7255
10271TIP3    H252229   1.871   0.490   2.698 -1.5950 -0.3147 -0.6203
10272TIP3   OH252230   5.265   5.691   1.253 -0.3626  0.3531  0.2953
10272TIP3    H152231   5.201   5.706   1.322  0.3369 -0.6259  1.1633
10272TIP3    H252232   5.319   5.770   1.252 -1.5581  1.1869 -0.4432
10273TIP3   OH252233   5.936   3.795  13.599  0.0456 -0.4416 -0.0228
10273TIP3    H152234   5.923   3.752  13.515 -0.2646 -0.1962 -0.1029
10273TIP3    H252235   5.848   3.817  13.629  0.1550 -0.4972  0.3511
10274TIP3   OH252236   1.406   2.589  13.924  0.5181 -0.0143 -0.0299
10274TIP3    H152237   1.496   2.558  13.936  0.5668  0.5599  1.1430
10274TIP3    H252238   1.389   2.645  14.000  0.3545  2.6808 -1.9559
10275TIP3   OH252239   0.563   0.037   1.492 -0.8504  0.8942  0.4885
10275TIP3    H152240   0.531   0.073   1.409  0.0278 -0.1099 -0.3048
10275TIP3    H252241   0.500   0.068   1.557 -3.3502 -0.9179 -0.9933
10276TIP3   OH252242   2.669   5.527   3.674  0.2876 -0.0006  0.0138
10276TIP3    H152243   2.592   5.477   3.647 -0.5177  0.9136  0.5848
10276TIP3    H252244   2.665   5.528   3.770 -0.1579  1.8145  0.0045
10277TIP3   OH252245   3.552   2.927   1.380  0.6232  0.4046 -0.2209
10277TIP3    H152246   3.511   2.915   1.466 -0.3916  0.8419 -0.6303
10277TIP3    H252247   3.498   2.994   1.337 -0.3557 -1.5107 -2.1034
10278TIP3   OH252248   5.721   2.438   2.368  0.0813  0.4600 -0.1633
10278TIP3    H152249   5.711   2.388   2.287  0.1083  0.0112  0.1141
10278TIP3    H252250   5.748   2.525   2.338 -1.3208  0.7181 -0.7230
10279TIP3   OH252251   6.113   0.642   1.405 -0.2270 -0.1604 -0.1673
10279TIP3    H152252   6.071   0.689   1.477 -0.6925  1.3700 -1.3993
10279TIP3    H252253   6.187   0.597   1.446 -0.6721  0.4075  1.3105
10280TIP3   OH252254   2.529   6.615   5.649  0.2896  0.2461  0.0365
10280TIP3    H152255   2.525   6.616   5.554  1.5667 -0.9005 -0.0603
10280TIP3    H252256   2.614   6.655   5.670 -0.5365  1.6685  0.7600
10281TIP3   OH252257   2.129   1.394   0.026  0.6215  0.1065 -0.4981
10281TIP3    H152258   2.183   1.470   0.006  0.4816  1.2053  3.1046
10281TIP3    H252259   2.066   1.390  -0.046  1.7547  2.2863 -1.6514
10282TIP3   OH252260   0.486   1.834  13.547 -0.1836 -0.1371 -0.3991
10282TIP3    H152261   0.532   1.915  13.523 -0.3753  0.3130  0.7142
10282TIP3    H252262   0.556   1.770  13.563  0.0510  0.3458  0.5823
10283TIP3   OH252263   2.937   1.151  13.007  0.2653  0.2085 -0.0688
10283TIP3    H152264   2.906   1.232  13.047 -0.5577 -0.6790  1.1355
10283TIP3    H252265   2.857   1.106  12.979  0.6917 -0.3803 -0.3569
10284TIP3   OH252266   2.065   4.261   3.691 -0.0025  0.2784  0.0765
10284TIP3    H152267   2.122   4.220   3.757 -1.2170  1.5424  1.9542
10284TIP3    H252268   1.997   4.196   3.675  0.5166 -0.1934 -0.2342
10285TIP3   OH252269   1.782   1.537   1.033 -0.0404  0.0733  0.1555
10285TIP3    H152270   1.809   1.596   1.104 -1.1565  1.9852 -0.9563
10285TIP3    H252271   1.855   1.477   1.022  0.6811  0.5750  2.0421
10286TIP3   OH252272   2.476   4.969   4.022 -0.4345  0.2612  0.1208
10286TIP3    H152273   2.475   5.003   3.932  2.7688  0.5438  0.1088
10286TIP3    H252274   2.474   5.046   4.077  0.5231  0.2177  0.2231
10287TIP3   OH252275   4.342   6.568  12.946 -0.3563  0.2227  0.0522
10287TIP3    H152276   4.337   6.649  12.895 -1.2978 -0.6093 -1.1761
10287TIP3    H252277   4.436   6.559  12.966 -0.1083  1.0687 -0.6871
10288TIP3   OH252278   0.864   1.241   4.364 -0.2761 -0.0722 -0.2002
10288TIP3    H152279   0.855   1.224   4.271 -1.3012 -0.2540 -0.0712
10288TIP3    H252280   0.949   1.284   4.372  1.1381 -2.5996 -0.8694
10289TIP3   OH252281   3.008   2.221   5.703 -0.5913 -0.1016 -0.4519
10289TIP3    H152282   3.088   2.209   5.753 -1.2607 -1.0933  0.4166
10289TIP3    H252283   3.032   2.281   5.632  0.8358 -0.1796 -0.0459
10290TIP3   OH252284   4.785   5.181   0.450  0.7859  0.6269 -0.3781
10290TIP3    H152285   4.752   5.262   0.489 -0.4811 -0.0825  0.0404
10290TIP3    H252286   4.791   5.119   0.522  0.7616  0.0313 -0.8823
10291TIP3   OH252287   1.814   6.551   0.498  0.3265  0.0486 -0.3307
10291TIP3    H152288   1.813   6.466   0.543 -0.5087  0.4832  0.4824
10291TIP3    H252289   1.903   6.558   0.463  0.6530 -0.7929  0.3150
10292TIP3   OH252290   4.792   4.067   6.902 -0.1581  0.4416 -0.2440
10292TIP3    H152291   4.737   4.024   6.967 -0.3774 -0.1968 -0.8479
10292TIP3    H252292   4.734   4.080   6.827 -0.6128  3.4283  0.5521
10293TIP3   OH252293   2.622   4.897  16.328  0.0042  0.4457  0.1421
10293TIP3    H152294   2.630   4.825  16.265  0.1871  0.3896  0.2295
10293TIP3    H252295   2.533   4.888  16.362 -0.6501  1.3972 -1.2430
10294TIP3   OH252296   4.445   6.017   2.513 -0.5669 -0.2478 -0.3190
10294TIP3    H152297   4.379   5.956   2.480 -2.5949  1.9432 -0.4924
10294TIP3    H252298   4.417   6.037   2.602  0.0727  0.4242 -0.2615
10295TIP3   OH252299   5.004   1.214  16.656 -0.0727 -0.1495  0.5347
10295TIP3    H152300   4.943   1.213  16.582  2.1465  1.3786 -1.3838
10295TIP3    H252301   4.992   1.300  16.696 -2.5446 -1.6239  3.1310
10296TIP3   OH252302   5.397   5.886   2.767 -0.0801  0.4536 -0.4029
10296TIP3    H152303   5.322   5.903   2.824 -0.1014 -2.4373  0.5083
10296TIP3    H252304   5.473   5.897   2.824 -0.0407 -1.1610 -0.1319
10297TIP3   OH252305   5.016   3.971  12.217  0.5222  0.3436  0.6624
10297TIP3    H152306   5.052   3.909  12.280 -0.2575 -0.7726  0.0165
10297TIP3    H252307   4.922   3.975  12.239  0.3857  0.5140  0.0486
10298TIP3   OH252308   5.942   4.285  12.170  0.0239 -0.2537  0.4745
10298TIP3    H152309   5.891   4.301  12.250  1.6909 -0.0787  1.5350
10298TIP3    H252310   5.938   4.190  12.158 -0.3985 -0.2604  0.6381
10299TIP3   OH252311   1.847   4.239  17.137 -0.4267  0.2970  0.0787
10299TIP3    H152312   1.760   4.243  17.176 -0.4986 -1.2163  0.1090
10299TIP3    H252313   1.870   4.330  17.119 -1.4415  0.8080  1.3240
10300TIP3   OH252314   3.408   4.185   5.238 -0.7795  0.1630 -0.0369
10300TIP3    H152315   3.374   4.159   5.153  0.8171 -0.0954 -0.6095
10300TIP3    H252316   3.431   4.278   5.228 -1.4047  0.3749  0.3922
10301TIP3   OH252317   3.751   3.450   6.605 -0.7653 -0.2215 -0.2061
10301TIP3    H152318   3.769   3.367   6.562  0.1887  0.3596 -0.9534
10301TIP3    H252319   3.829   3.467   6.658 -1.0320  0.1110  0.0838
10302TIP3   OH252320   3.265   0.745   6.198  0.4192 -0.0697 -0.0193
10302TIP3    H152321   3.331   0.699   6.249 -1.4686 -1.5603  1.1585
10302TIP3    H252322   3.295   0.836   6.196  1.7124 -0.4347  1.7768
10303TIP3   OH252323   0.490   1.570  13.946  0.0005 -0.3108 -0.0779
10303TIP3    H152324   0.583   1.583  13.929 -0.4776  1.4668 -1.4542
10303TIP3    H252325   0.453   1.550  13.860 -1.2430  1.2212  0.0875
10304TIP3   OH252326   4.187   4.474  10.916 -0.1474  0.1324 -0.1572
10304TIP3    H152327   4.192   4.437  11.004 -0.3570  1.0658  0.2536
10304TIP3    H252328   4.097   4.507  10.909 -0.0141  0.4097 -0.5730
10305TIP3   OH252329   5.194   5.181  13.272  0.0453 -0.0840 -0.3291
10305TIP3    H152330   5.218   5.089  13.266 -0.2443 -0.1932  0.1486
10305TIP3    H252331   5.099   5.181  13.284  0.0371  0.2759 -0.3760
10306TIP3   OH252332   2.504   0.632   0.588 -0.0159  0.0564 -0.7024
10306TIP3    H152333   2.535   0.606   0.501 -0.1957 -0.7734 -0.5185
10306TIP3    H252334   2.565   0.700   0.616  0.5003 -0.2218 -1.1488
10307TIP3   OH252335   3.260   5.300  13.732 -0.5910  0.1678  0.3911
10307TIP3    H152336   3.192   5.235  13.749  0.4588 -0.9049  0.4753
10307TIP3    H252337   3.250   5.322  13.640 -2.3450  1.5119  0.8662
10308TIP3   OH252338   0.488   0.050  13.609  0.3963  0.0092  0.3412
10308TIP3    H152339   0.441  -0.029  13.583  2.1876 -0.6399 -1.0308
10308TIP3    H252340   0.494   0.103  13.529  2.0646  0.0243  0.4421
10309TIP3   OH252341   2.867   2.483  16.797  0.4497  0.1253  0.3682
10309TIP3    H152342   2.795   2.457  16.855 -0.1740  0.6576 -0.1562
10309TIP3    H252343   2.881   2.576  16.817 -0.7536  0.6952 -1.3655
10310TIP3   OH252344   2.593   0.941   4.240 -0.0865 -0.0505 -0.0831
10310TIP3    H152345   2.517   0.883   4.247 -0.8686  0.9423 -0.2956
10310TIP3    H252346   2.606   0.974   4.329 -1.2110  1.4285 -0.4644
10311TIP3   OH252347   6.635   2.113  15.468 -0.3100 -0.1243 -0.0287
10311TIP3    H152348   6.541   2.097  15.466 -0.3695  0.3097 -0.8410
10311TIP3    H252349   6.673   2.031  15.435 -0.4418 -0.0344 -0.4135
10312TIP3   OH252350   3.308   3.966  13.930  0.3693 -0.1012 -0.1682
10312TIP3    H152351   3.388   3.976  13.982  0.4417  0.3276 -0.3588
10312TIP3    H252352   3.322   3.886  13.879  0.2875 -0.5400  0.4812
10313TIP3   OH252353   3.618   5.040  14.357  0.1826 -0.4645 -0.5014
10313TIP3    H152354   3.562   4.968  14.330  0.8671 -0.5669 -1.6567
10313TIP3    H252355   3.694   4.997  14.396  0.0029 -0.3440 -0.0154
10314TIP3   OH252356   1.601   5.826  16.842  0.2151 -0.1368  0.7339
10314TIP3    H152357   1.597   5.786  16.755  2.4654 -1.0659  1.0301
10314TIP3    H252358   1.527   5.788  16.890 -1.5602  1.0273 -1.0088
10315TIP3   OH252359   4.685   2.869  14.177 -0.1670  0.0597  0.1413
10315TIP3    H152360   4.685   2.779  14.144 -2.0372 -0.1076  0.4977
10315TIP3    H252361   4.777   2.891  14.187  0.3753 -1.0112 -2.1409
10316TIP3   OH252362   1.631   0.482   4.034  0.7115 -0.0481 -0.5534
10316TIP3    H152363   1.603   0.517   3.949 -0.5049 -0.3847 -0.3011
10316TIP3    H252364   1.665   0.558   4.081  0.5381  0.3117 -1.0090
10317TIP3   OH252365   3.823   3.724   4.968 -0.3133 -0.2015  0.2258
10317TIP3    H152366   3.872   3.648   5.001 -0.2479 -0.8454 -1.3341
10317TIP3    H252367   3.839   3.793   5.033 -0.5035 -1.5629  1.7551
10318TIP3   OH252368   2.896   4.917   5.677 -0.5704  0.8858 -0.0125
10318TIP3    H152369   2.888   4.945   5.769  2.3583 -1.6866  1.0855
10318TIP3    H252370   2.838   4.842   5.670  0.8450 -0.2582  0.3475
10319TIP3   OH252371   4.833   3.109   2.473 -0.2663 -0.5011 -0.2870
10319TIP3    H152372   4.874   3.194   2.467 -0.6386 -0.3097 -0.1613
10319TIP3    H252373   4.785   3.112   2.556 -0.2401 -0.8479 -0.2585
10320TIP3   OH252374   3.017   6.379   2.599 -0.4621 -0.2575 -0.1708
10320TIP3    H152375   2.991   6.368   2.507 -1.0655 -0.2500 -0.0025
10320TIP3    H252376   3.018   6.290   2.634  1.7558 -0.4833 -0.7040
10321TIP3   OH252377   2.615   5.096   5.202 -0.1613 -0.0661 -0.0845
10321TIP3    H152378   2.583   5.161   5.265 -2.0227 -0.2290 -0.8230
10321TIP3    H252379   2.660   5.030   5.255 -1.5070 -0.0781  1.0574
10322TIP3   OH252380   3.684   1.741   4.177 -0.4609 -0.1137  0.4096
10322TIP3    H152381   3.665   1.791   4.097  1.3988 -0.4578 -0.2825
10322TIP3    H252382   3.741   1.797   4.228 -1.6541  0.1047  1.5255
10323TIP3   OH252383   1.674   6.296  16.972  0.3981  0.1045 -0.6909
10323TIP3    H152384   1.616   6.340  16.910  1.5634  0.8749 -1.2619
10323TIP3    H252385   1.715   6.367  17.021  1.3255 -0.3903 -0.7356
10324TIP3   OH252386   3.048   5.810   4.118 -0.6549 -0.0553 -0.0001
10324TIP3    H152387   3.044   5.726   4.071 -0.0431 -1.0779  1.7419
10324TIP3    H252388   2.964   5.816   4.163  0.0028 -0.6031  1.3206
10325TIP3   OH252389   4.669   0.917   3.706 -0.2733 -0.6069 -0.1698
10325TIP3    H152390   4.666   1.011   3.722 -1.5162 -0.5610 -0.5999
10325TIP3    H252391   4.758   0.892   3.728 -0.2915  0.4473  1.1633
10326TIP3   OH252392   5.823   4.530   4.839 -0.3534  0.4242  0.0429
10326TIP3    H152393   5.769   4.607   4.820 -0.4345  0.6747  1.2609
10326TIP3    H252394   5.766   4.456   4.818 -0.0595  0.6719 -1.7446
10327TIP3   OH252395   4.588   3.161  17.104 -0.7517 -0.1110  0.1568
10327TIP3    H152396   4.609   3.254  17.108 -0.6363 -0.1410  0.2778
10327TIP3    H252397   4.670   3.120  17.076 -0.0774 -0.4349  2.5343
10328TIP3   OH252398   3.492   3.782   6.375 -0.2009 -0.2009  0.5334
10328TIP3    H152399   3.490   3.713   6.441  0.1651 -0.8853 -0.1674
10328TIP3    H252400   3.481   3.863   6.425  0.3564 -0.6888  1.4541
10329TIP3   OH252401   5.929   0.246  13.071  0.0332  0.1090 -0.3054
10329TIP3    H152402   5.971   0.179  13.016 -0.3524  0.0013 -0.4705
10329TIP3    H252403   6.001   0.303  13.098  1.1477 -2.8254  3.4338
10330TIP3   OH252404   5.729   1.918  13.663  0.3670  0.0185 -0.0599
10330TIP3    H152405   5.661   1.929  13.597 -0.9627 -3.4864  0.6017
10330TIP3    H252406   5.681   1.911  13.746  1.6587 -0.6155  0.6499
10331TIP3   OH252407   5.659   5.051  13.849  0.7863 -0.5166  0.5993
10331TIP3    H152408   5.723   4.996  13.804 -0.5723 -0.2626 -1.7073
10331TIP3    H252409   5.584   4.994  13.864 -0.4312  0.5305 -1.3371
10332TIP3   OH252410   2.318   0.146  11.735 -0.2521  0.1840  0.0742
10332TIP3    H152411   2.393   0.185  11.691  0.1970 -0.0237  0.6482
10332TIP3    H252412   2.303   0.201  11.812  0.0093 -0.4038  0.5582
10333TIP3   OH252413   5.663   0.741  13.053 -0.2261 -0.3870  0.0957
10333TIP3    H152414   5.622   0.826  13.070 -0.7644 -0.7443  0.6521
10333TIP3    H252415   5.730   0.758  12.988 -0.7872  0.3479 -0.2946
10334TIP3   OH252416   3.355   1.793   6.625  0.4110 -0.2535 -0.3428
10334TIP3    H152417   3.433   1.737   6.629  0.0625 -0.7076  0.0122
10334TIP3    H252418   3.384   1.870   6.576  0.5508 -1.2693 -1.8655
10335TIP3   OH252419   3.515   2.926   3.200 -0.1607  0.2890 -0.2134
10335TIP3    H152420   3.436   2.893   3.157  1.4885 -2.1386 -1.5138
10335TIP3    H252421   3.539   3.004   3.150  0.0879 -0.8445 -1.9094
10336TIP3   OH252422   1.940   0.063  15.118 -0.3655  0.0200 -0.5992
10336TIP3    H152423   1.849   0.090  15.128  0.0123  1.2980 -0.5036
10336TIP3    H252424   1.963   0.088  15.028 -0.3653 -1.1194 -0.9304
10337TIP3   OH252425   5.344   3.669  11.287 -0.0781 -0.2183 -0.0506
10337TIP3    H152426   5.357   3.611  11.212 -0.3029 -0.7225  0.2949
10337TIP3    H252427   5.403   3.636  11.354 -2.1525 -1.7446  1.0851
10338TIP3   OH252428   5.463   3.448  12.916 -0.1700  0.4098 -0.4410
10338TIP3    H152429   5.441   3.414  12.829 -0.3966 -2.0814  0.5543
10338TIP3    H252430   5.379   3.454  12.961  0.1854 -0.5231  0.3630
10339TIP3   OH252431   0.090   4.067  16.625 -0.1958 -0.3504 -0.1372
10339TIP3    H152432   0.039   3.997  16.583  0.9859 -1.5463  0.3776
10339TIP3    H252433   0.027   4.112  16.681 -0.5202 -2.3594  1.1730
10340TIP3   OH252434   5.310   0.981   5.993  0.5308  0.0296  0.3415
10340TIP3    H152435   5.264   1.002   5.912  1.2622 -1.4355 -0.4716
10340TIP3    H252436   5.324   0.886   5.989  2.0734  0.1934  1.3746
10341TIP3   OH252437   0.896   0.652  15.773 -0.1025  0.0355  0.3316
10341TIP3    H152438   0.905   0.745  15.793  3.0959 -0.1159 -0.0040
10341TIP3    H252439   0.957   0.638  15.699 -2.5143 -1.8045 -1.3885
10342TIP3   OH252440   4.098   2.328   3.914 -0.1493 -0.0445 -0.3966
10342TIP3    H152441   4.023   2.337   3.972  0.7992  0.9240  0.7076
10342TIP3    H252442   4.089   2.241   3.876 -1.5058 -0.1644  0.1755
10343TIP3   OH252443   5.055   5.312   3.766  0.1833 -0.0731  0.4306
10343TIP3    H152444   5.119   5.365   3.813  0.6587  0.6121 -0.9849
10343TIP3    H252445   5.057   5.227   3.811  2.2426 -0.1295  0.2723
10344TIP3   OH252446   5.763   6.612   4.501  0.3861 -0.6817  0.4167
10344TIP3    H152447   5.772   6.682   4.436 -1.0618 -0.3028  0.5966
10344TIP3    H252448   5.807   6.647   4.579  0.0011 -0.1222  0.3883
10345TIP3   OH252449   0.397   4.594   2.394  0.3674 -0.3851  0.1021
10345TIP3    H152450   0.486   4.631   2.393  0.4270 -0.5250 -2.6232
10345TIP3    H252451   0.340   4.670   2.377  0.0364 -0.4639  0.8603
10346TIP3   OH252452   1.441   4.709  11.702 -0.3098 -0.2994  0.1128
10346TIP3    H152453   1.355   4.679  11.675  0.3423 -1.3755 -0.8040
10346TIP3    H252454   1.429   4.801  11.724 -1.5235 -0.2490 -0.7620
10347TIP3   OH252455   1.393   3.208   1.182 -0.0207  0.7461 -0.3951
10347TIP3    H152456   1.444   3.186   1.260  0.8620  0.8520 -0.9287
10347TIP3    H252457   1.302   3.191   1.206  0.1432  1.7194  0.9769
10348TIP3   OH252458   5.767   3.028   1.730 -0.2125  0.3451 -0.3661
10348TIP3    H152459   5.672   3.043   1.730  0.1310  2.5575 -0.9543
10348TIP3    H252460   5.797   3.060   1.644  1.4025  1.9225  0.7502
10349TIP3   OH252461   1.200   5.393   5.307  0.1972 -0.3289 -0.4364
10349TIP3    H152462   1.139   5.331   5.267 -0.5840  1.0265 -1.3869
10349TIP3    H252463   1.278   5.389   5.251  1.5598 -3.0272  1.5183
10350TIP3   OH252464   2.138   4.378  11.926  0.3331 -0.1208  0.1890
10350TIP3    H152465   2.116   4.447  11.863 -0.1944 -0.2160  0.2651
10350TIP3    H252466   2.201   4.419  11.986  0.7998 -0.0160 -0.3701
10351TIP3   OH252467   3.668   1.105  13.780  0.2356  0.1194 -0.2443
10351TIP3    H152468   3.606   1.127  13.849 -0.1903 -0.5329 -0.4194
10351TIP3    H252469   3.643   1.017  13.751 -0.5594  0.9855 -2.2983
10352TIP3   OH252470   3.800   6.022  14.174  0.0514  0.0355 -0.6147
10352TIP3    H152471   3.720   6.066  14.202  0.3369  1.6580 -2.2097
10352TIP3    H252472   3.770   5.943  14.130 -0.5617 -0.4525  0.6612
10353TIP3   OH252473   5.071   6.048  11.479  0.0798  0.0507 -0.0551
10353TIP3    H152474   5.162   6.060  11.453  0.2278  0.3526  0.5826
10353TIP3    H252475   5.075   6.034  11.574 -0.6312  1.2912  0.1759
10354TIP3   OH252476   0.412   4.230  12.521  0.4520 -0.7717  0.4122
10354TIP3    H152477   0.347   4.194  12.461  0.3539 -0.8549  0.5670
10354TIP3    H252478   0.485   4.169  12.516  0.1831 -1.1396  0.8719
10355TIP3   OH252479   5.203   2.469   3.101  0.0829  0.2262  0.0361
10355TIP3    H152480   5.262   2.517   3.043 -0.4581 -0.6600 -1.2688
10355TIP3    H252481   5.120   2.463   3.052 -0.5229 -0.1218  1.0853
10356TIP3   OH252482   5.744   5.097  14.975  0.0902 -0.3155 -0.1675
10356TIP3    H152483   5.820   5.085  15.033  0.7505 -0.3965 -1.0379
10356TIP3    H252484   5.684   5.028  15.001  0.1426 -0.0125  0.7970
10357TIP3   OH252485   0.451   1.135  12.499  0.3681  0.3383  0.1673
10357TIP3    H152486   0.393   1.206  12.526 -0.0745  0.4705 -1.0879
10357TIP3    H252487   0.539   1.173  12.504  0.0397  1.4368 -1.8399
10358TIP3   OH252488   1.411   5.607  16.770 -0.0555 -0.5942 -0.1584
10358TIP3    H152489   1.399   5.649  16.685 -1.7936  1.1642  0.8960
10358TIP3    H252490   1.322   5.583  16.798  0.4663 -0.9540  1.2350
10359TIP3   OH252491   1.298   4.361   0.565 -0.8467  0.7069 -0.5513
10359TIP3    H152492   1.341   4.340   0.648  1.2330 -0.7772 -1.9442
10359TIP3    H252493   1.206   4.342   0.580 -0.4213 -0.1000  1.2328
10360TIP3   OH252494   1.463   1.375   2.962 -0.3725  0.1967  0.2127
10360TIP3    H152495   1.498   1.446   3.016  1.4087  0.2744 -1.0150
10360TIP3    H252496   1.526   1.304   2.973 -0.5856 -0.1692 -0.8846
10361TIP3   OH252497   0.047   4.153  13.797 -0.2869 -0.5437  0.3094
10361TIP3    H152498   0.096   4.234  13.788 -1.9114  0.4741  0.4306
10361TIP3    H252499   0.055   4.130  13.890  0.1982 -0.5313  0.2699
10362TIP3   OH252500   6.312   1.861  11.996  0.0389  0.6039  0.1729
10362TIP3    H152501   6.312   1.786  11.936  1.8573 -1.0996  2.2489
10362TIP3    H252502   6.282   1.934  11.942 -0.2152 -1.2654 -2.3175
10363TIP3   OH252503   1.148   0.086   3.914  0.3790  0.0865 -0.6035
10363TIP3    H152504   1.164   0.125   4.000  1.6962 -0.8559 -0.4026
10363TIP3    H252505   1.078   0.139   3.876 -1.3865 -0.5468  1.7195
10364TIP3   OH252506   2.109   1.707  15.100  0.3527  0.7128  0.3180
10364TIP3    H152507   2.033   1.709  15.159  1.5759  1.5448  1.9266
10364TIP3    H252508   2.077   1.743  15.018 -1.3849 -0.4056  0.4954
10365TIP3   OH252509   6.188   4.904  13.988  0.1068 -0.1346  0.3684
10365TIP3    H152510   6.231   4.938  14.066 -1.4806  0.6456  0.9398
10365TIP3    H252511   6.226   4.955  13.916  1.0632 -0.3633  0.7083
10366TIP3   OH252512   5.384   4.530   1.169  0.0490  1.0191  0.5486
10366TIP3    H152513   5.370   4.561   1.080 -1.3236 -0.0082  0.3820
10366TIP3    H252514   5.331   4.589   1.223 -0.3319  0.6997  0.5242
10367TIP3   OH252515   6.162   3.636   0.459 -0.3288 -0.3291  0.4231
10367TIP3    H152516   6.198   3.709   0.408  0.7409 -1.5439 -0.5939
10367TIP3    H252517   6.078   3.669   0.491 -0.3244  1.0048 -0.8541
10368TIP3   OH252518   5.788   3.032   2.099 -0.0832  0.5579  0.5448
10368TIP3    H152519   5.699   3.003   2.075  0.1425  0.3372 -0.0488
10368TIP3    H252520   5.790   3.026   2.195 -0.5338  0.0342  0.5280
10369TIP3   OH252521   3.276   5.431   5.791 -0.6243 -0.4390 -0.7111
10369TIP3    H152522   3.297   5.340   5.809  0.0445  0.1288  1.5585
10369TIP3    H252523   3.198   5.427   5.736 -0.4053 -2.3821 -0.9126
10370TIP3   OH252524   3.598   0.425   4.707 -0.0763 -1.0489  0.5432
10370TIP3    H152525   3.516   0.464   4.678 -0.6473 -3.4214 -1.2337
10370TIP3    H252526   3.583   0.405   4.799 -0.9246 -0.0386  0.6377
10371TIP3   OH252527   5.634   0.727   3.088  0.8726 -0.3200  0.3746
10371TIP3    H152528   5.628   0.815   3.052 -1.4910 -0.7432 -0.3327
10371TIP3    H252529   5.720   0.695   3.059  2.2123  2.0983  1.5306
10372TIP3   OH252530   5.702   5.060   3.390  0.1978 -0.2414  0.0649
10372TIP3    H152531   5.702   4.966   3.406 -1.1804 -0.1459  0.7491
10372TIP3    H252532   5.610   5.083   3.378  0.6144  0.8445 -1.2268
10373TIP3   OH252533   3.359   4.472   4.091 -0.7174  0.5662  0.0387
10373TIP3    H152534   3.437   4.417   4.098 -1.4259 -0.5753 -0.9169
10373TIP3    H252535   3.331   4.485   4.182 -1.3322 -1.7940  0.2028
10374TIP3   OH252536   2.740   6.194   5.928  0.1897  0.0536 -0.5643
10374TIP3    H152537   2.768   6.168   6.016 -1.4164 -1.1064 -0.3620
10374TIP3    H252538   2.722   6.111   5.884 -3.0162  0.7109 -0.6086
10375TIP3   OH252539   5.484   5.976  16.851  0.2523  0.7837 -0.0950
10375TIP3    H152540   5.469   5.911  16.782 -1.9989  0.9502  0.1948
10375TIP3    H252541   5.480   5.926  16.932  1.8519  0.7648 -0.0045
10376TIP3   OH252542   0.821   3.198   4.962  0.2827  0.1564 -0.3952
10376TIP3    H152543   0.785   3.205   5.051 -1.7092 -0.2050 -1.1568
10376TIP3    H252544   0.836   3.289   4.935  2.0041  0.2386  0.7175
10377TIP3   OH252545   0.987   3.013  15.743 -0.3466 -0.2416 -0.0496
10377TIP3    H152546   1.032   2.969  15.815 -0.7980  0.6780  0.8070
10377TIP3    H252547   0.897   2.981  15.748 -0.3302 -0.3393 -0.3457
10378TIP3   OH252548   4.961   6.727   5.558 -0.0529  0.8774 -0.2752
10378TIP3    H152549   4.976   6.777   5.639 -1.7481 -2.1676  2.0421
10378TIP3    H252550   5.048   6.702   5.529  0.6769  3.3282 -0.2953
10379TIP3   OH252551   2.259   6.656   4.347  0.5357  0.5882 -0.2014
10379TIP3    H152552   2.311   6.656   4.427 -0.8545  0.3996  0.7305
10379TIP3    H252553   2.309   6.708   4.285  2.0041  0.0868  0.5421
10380TIP3   OH252554   0.638   6.505  15.531 -0.0378 -0.2653 -0.8710
10380TIP3    H152555   0.719   6.465  15.500 -0.6304 -1.4839 -0.8739
10380TIP3    H252556   0.580   6.503  15.455 -0.9364 -1.7398 -0.1603
10381TIP3   OH252557   3.049   2.376  10.393 -0.1049 -0.0983  0.3247
10381TIP3    H152558   3.121   2.434  10.417  0.1890  0.0174 -0.8356
10381TIP3    H252559   2.970   2.427  10.410  0.0542 -0.3436  1.9235
10382TIP3   OH252560   0.639   1.956   3.257 -0.0087 -0.2923  0.1978
10382TIP3    H152561   0.706   1.944   3.324 -0.1098 -1.6035  0.0902
10382TIP3    H252562   0.680   1.928   3.175 -0.1239  0.5881 -0.1644
10383TIP3   OH252563   5.063   4.634   2.439  0.0556 -0.3528  0.3531
10383TIP3    H152564   5.128   4.613   2.373 -0.6204  1.0823 -0.8190
10383TIP3    H252565   4.990   4.575   2.420 -0.4687  0.6181 -0.7414
10384TIP3   OH252566   2.010   5.592   3.037 -0.0560 -0.5982  0.2369
10384TIP3    H152567   1.935   5.546   3.000 -1.6689  0.9844  1.4216
10384TIP3    H252568   2.057   5.626   2.960 -0.7979 -1.2408 -0.5154
10385TIP3   OH252569   4.102   0.925   3.651 -0.2959  0.7106  0.4137
10385TIP3    H152570   4.115   1.013   3.686  2.1054  0.3471  0.5249
10385TIP3    H252571   4.162   0.920   3.577  0.5768 -1.2984  1.2314
10386TIP3   OH252572   0.976   2.603  14.740 -0.1131  0.4858  0.0399
10386TIP3    H152573   0.891   2.569  14.766  0.0493 -0.0316 -0.0987
10386TIP3    H252574   1.032   2.588  14.817 -0.1724  0.9199  0.1682
10387TIP3   OH252575   1.683   5.524  16.943 -0.2798  0.1251  0.0821
10387TIP3    H152576   1.678   5.521  17.038  0.4553 -0.2792  0.1129
10387TIP3    H252577   1.593   5.541  16.914 -0.4201  0.7529  0.8654
10388TIP3   OH252578   1.412   4.963  15.782  0.2651 -0.2235 -0.2638
10388TIP3    H152579   1.414   5.007  15.697 -0.9329  1.1118  0.3762
10388TIP3    H252580   1.388   5.032  15.845 -0.8255 -1.6014  0.8813
10389TIP3   OH252581   3.154   6.512   2.346  0.2409 -0.1021  0.0336
10389TIP3    H152582   3.209   6.556   2.411 -0.8594 -2.8204  2.9575
10389TIP3    H252583   3.199   6.429   2.330  0.6100  0.6247 -2.9496
10390TIP3   OH252584   2.256   0.151   3.101 -0.2561  0.1359 -0.3337
10390TIP3    H152585   2.212   0.065   3.102  2.1658 -1.1541 -1.2171
10390TIP3    H252586   2.295   0.158   3.188  0.2916 -0.0886 -0.5546
10391TIP3   OH252587   2.502   3.111   3.751  0.3367 -0.9051  0.6262
10391TIP3    H152588   2.536   3.185   3.701 -1.1432 -1.6610 -1.5795
10391TIP3    H252589   2.578   3.057   3.770  1.0743 -0.0439  0.1515
10392TIP3   OH252590   1.924   3.432  14.933  0.0673  0.0118 -0.2517
10392TIP3    H152591   1.999   3.448  14.876 -0.9290 -0.4487 -1.7156
10392TIP3    H252592   1.855   3.489  14.899 -0.2374  0.4644  1.1101
10393TIP3   OH252593   1.100   1.730   6.624 -0.3006  0.3503  0.3814
10393TIP3    H152594   1.153   1.810   6.621 -0.1952  0.2582 -0.3341
10393TIP3    H252595   1.153   1.668   6.675  1.2556 -0.4282 -2.0857
10394TIP3   OH252596   5.335   0.732  11.959  0.0163  0.4543 -0.2702
10394TIP3    H152597   5.369   0.803  11.904 -0.7204  1.3783  0.4353
10394TIP3    H252598   5.259   0.770  12.003 -0.1019 -0.6295  0.4900
10395TIP3   OH252599   4.712   1.959  13.225 -0.2547  0.4207  0.1965
10395TIP3    H152600   4.707   1.877  13.274  1.7250  1.1436  1.6861
10395TIP3    H252601   4.703   2.027  13.291  0.6269  1.4161 -0.6884
10396TIP3   OH252602   4.797   0.247  13.427 -0.2055 -0.5180 -0.2157
10396TIP3    H152603   4.881   0.229  13.384 -0.8420  1.0818 -2.2277
10396TIP3    H252604   4.773   0.335  13.396 -1.1797  0.3085  2.6887
10397TIP3   OH252605   4.553   2.952   5.011  0.2002 -0.7529 -0.2285
10397TIP3    H152606   4.520   3.014   5.076 -1.4178 -2.1422  0.3208
10397TIP3    H252607   4.553   2.868   5.056  2.7486 -1.1149 -0.8427
10398TIP3   OH252608   5.108   2.653   4.021  0.3748  0.3192 -0.6057
10398TIP3    H152609   5.091   2.616   3.935  0.4519  0.0149 -0.4913
10398TIP3    H252610   5.200   2.680   4.017 -0.6130  3.7096 -1.8670
10399TIP3   OH252611   2.750   1.112   0.972  0.1714  0.2793  0.1619
10399TIP3    H152612   2.836   1.074   0.951 -0.1754 -1.0288  1.0176
10399TIP3    H252613   2.734   1.175   0.902  0.8905 -0.9897 -1.1861
10400TIP3   OH252614   2.748   3.507  15.798  0.3286 -0.9818 -0.6746
10400TIP3    H152615   2.711   3.574  15.740 -0.2725 -0.9396 -0.2558
10400TIP3    H252616   2.797   3.557  15.863 -0.3284 -0.9190 -0.2130
10401TIP3   OH252617   3.708   3.900   4.674 -0.0982  0.2157  0.2566
10401TIP3    H152618   3.706   3.813   4.635 -0.2749  1.1366 -1.8237
10401TIP3    H252619   3.621   3.910   4.714 -0.7104  0.1107 -1.0229
10402TIP3   OH252620   4.275   2.422   2.258 -0.0517 -0.7255 -0.2077
10402TIP3    H152621   4.252   2.514   2.265  0.3050 -0.5827 -0.9086
10402TIP3    H252622   4.296   2.409   2.166  0.7990 -1.2926  0.0623
10403TIP3   OH252623   4.991   4.055   0.283  0.1616 -0.2404 -0.2827
10403TIP3    H152624   5.074   4.015   0.311 -0.3770 -0.7910  0.5613
10403TIP3    H252625   4.945   4.074   0.364 -0.7174 -0.3176 -0.7524
10404TIP3   OH252626   2.894   4.176  17.120  0.1833 -0.2035  0.5322
10404TIP3    H152627   2.906   4.165  17.026  1.2571 -0.0590  0.6408
10404TIP3    H252628   2.814   4.227  17.129 -0.1229 -0.5358 -0.2878
10405TIP3   OH252629   1.578   1.880  11.160  0.2609  0.4522 -0.2533
10405TIP3    H152630   1.528   1.823  11.102 -1.0933  0.2103  1.1198
10405TIP3    H252631   1.553   1.969  11.134 -0.0639  0.3515 -0.2911
10406TIP3   OH252632   6.104   3.420  14.561 -0.8911 -0.5730 -0.1067
10406TIP3    H152633   6.058   3.399  14.642  2.3734 -2.1173  1.4475
10406TIP3    H252634   6.046   3.388  14.492 -2.0536 -2.7514  1.7789
10407TIP3   OH252635   0.608   0.373  14.833 -0.9103 -0.6619  0.0853
10407TIP3    H152636   0.569   0.397  14.917 -0.9505  3.7192 -1.0491
10407TIP3    H252637   0.534   0.362  14.774 -0.7980 -1.6710  0.1290
10408TIP3   OH252638   0.803   2.112   2.652 -0.4975  0.0596  0.0903
10408TIP3    H152639   0.871   2.154   2.704  0.0961  1.1494 -1.5173
10408TIP3    H252640   0.842   2.031   2.620  0.1549  0.8185 -1.0570
10409TIP3   OH252641   4.964   2.048  14.069 -0.7209 -0.2501 -0.1393
10409TIP3    H152642   5.021   1.971  14.075 -1.3951 -0.8249 -1.0774
10409TIP3    H252643   4.883   2.020  14.112  0.3456  1.2126  3.0037
10410TIP3   OH252644   0.569   3.002  11.213 -0.2655 -0.3559 -0.5590
10410TIP3    H152645   0.637   3.062  11.183 -0.1353  0.1431  0.7307
10410TIP3    H252646   0.524   2.975  11.132  1.2631 -0.4638 -1.3908
10411TIP3   OH252647   0.060   0.177  12.860 -0.8652 -0.5127 -0.8456
10411TIP3    H152648   0.072   0.163  12.954  1.6876 -2.0149 -1.3456
10411TIP3    H252649   0.103   0.261  12.843 -1.6461 -0.0625 -0.6311
10412TIP3   OH252650   3.608   5.330   6.767 -0.6064 -0.6331  0.1465
10412TIP3    H152651   3.520   5.355   6.739 -0.6479 -4.7703 -4.0675
10412TIP3    H252652   3.666   5.377   6.708 -0.1292 -0.4975  0.7245
10413TIP3   OH252653   3.847   3.450  11.345  0.1293 -0.7216 -0.4626
10413TIP3    H152654   3.857   3.426  11.253  0.5327  1.0257 -0.8920
10413TIP3    H252655   3.933   3.432  11.384  0.4661  0.1199 -0.8072
10414TIP3   OH252656   1.711   1.450  16.950 -0.1791  0.3239 -0.0201
10414TIP3    H152657   1.729   1.503  16.873  2.9487 -3.0932 -1.7379
10414TIP3    H252658   1.624   1.413  16.934 -1.1438  2.5912 -0.1223
10415TIP3   OH252659   4.527   2.881   4.297 -0.2526  0.0628 -0.5737
10415TIP3    H152660   4.526   2.963   4.346  1.1511 -0.7807  0.9313
10415TIP3    H252661   4.468   2.823   4.346  2.2485 -1.2351  0.9819
10416TIP3   OH252662   4.325   3.090  17.180  0.0089  0.1022  0.2952
10416TIP3    H152663   4.402   3.147  17.179  1.1610 -1.3027  2.5949
10416TIP3    H252664   4.251   3.149  17.194  0.9071  1.2842  0.1107
10417TIP3   OH252665   5.093   0.613   3.743 -0.3234 -0.0192  0.1454
10417TIP3    H152666   5.095   0.579   3.833 -0.1753  2.2917  1.0552
10417TIP3    H252667   5.183   0.640   3.726 -0.4168 -0.1775 -0.6090
10418TIP3   OH252668   3.006   2.770  14.673 -0.3163 -0.0828  0.1422
10418TIP3    H152669   2.960   2.704  14.621 -0.8761  0.9138 -0.6340
10418TIP3    H252670   2.940   2.803  14.734 -0.5721  1.1578 -0.7937
10419TIP3   OH252671   4.535   3.800  13.548 -0.2702 -0.0902  0.0408
10419TIP3    H152672   4.475   3.857  13.501  1.5493  1.2070 -0.7655
10419TIP3    H252673   4.511   3.712  13.519 -1.9770  0.3702 -0.0060
10420TIP3   OH252674   0.832   1.360  15.977 -0.2613 -0.4887 -0.5959
10420TIP3    H152675   0.804   1.269  15.986  0.9507 -0.7933  0.3530
10420TIP3    H252676   0.914   1.364  16.027 -0.7330  1.3137  0.0614
10421TIP3   OH252677   2.475   0.329  12.537  0.7799 -0.5052 -0.5055
10421TIP3    H152678   2.412   0.290  12.476  2.8310 -2.3728 -1.5376
10421TIP3    H252679   2.477   0.269  12.611 -0.1905  0.6678  0.4711
10422TIP3   OH252680   0.423   3.417  16.377 -0.4929  0.5606  0.3376
10422TIP3    H152681   0.410   3.491  16.436  1.1438  0.3545  0.9703
10422TIP3    H252682   0.470   3.453  16.302 -0.6640  0.3778  0.1381
10423TIP3   OH252683   5.948   3.568  16.219 -0.2055 -0.6166  0.1267
10423TIP3    H152684   6.003   3.493  16.196  0.5791  0.2497 -0.8570
10423TIP3    H252685   5.988   3.604  16.298  0.8147  0.1601 -0.7229
10424TIP3   OH252686   4.401   2.845   0.483  0.2785 -0.2605  0.3815
10424TIP3    H152687   4.380   2.867   0.574  0.6219  2.2749 -0.1187
10424TIP3    H252688   4.478   2.789   0.489 -0.3979 -1.0803  1.7015
10425TIP3   OH252689   3.683   0.446  14.496  0.4452 -0.1767 -0.0728
10425TIP3    H152690   3.728   0.361  14.490  0.5991 -0.1614  0.7549
10425TIP3    H252691   3.731   0.503  14.436  0.0933 -0.7802 -0.9396
10426TIP3   OH252692   1.073   4.906  16.184  0.1745 -0.1419  0.0122
10426TIP3    H152693   1.062   4.921  16.278  0.0555 -0.8763  0.1178
10426TIP3    H252694   1.084   4.994  16.147  1.2893  0.0733  0.8377
10427TIP3   OH252695   1.774   2.034  10.954  0.1652  0.3357  0.0945
10427TIP3    H152696   1.718   1.963  10.922 -0.1505  1.3112 -1.5675
10427TIP3    H252697   1.730   2.066  11.033  0.4606 -1.4789  1.0389
10428TIP3   OH252698   6.060   5.695  13.182 -0.1825  0.2200 -0.0268
10428TIP3    H152699   6.012   5.707  13.263 -0.8972  1.3066 -0.6071
10428TIP3    H252700   6.140   5.649  13.208 -0.8243 -0.2434  1.1538
10429TIP3   OH252701   5.671   5.707  17.027  0.0256  0.5437  0.6462
10429TIP3    H152702   5.669   5.690  16.933  1.4205  3.7865 -0.0326
10429TIP3    H252703   5.582   5.733  17.049  0.0374  1.2352 -0.0975
10430TIP3   OH252704   0.669   3.094  11.843 -0.0079  0.5300 -0.6347
10430TIP3    H152705   0.643   3.102  11.752  1.1601  1.7817 -0.8675
10430TIP3    H252706   0.669   3.184  11.876  0.0306  0.1321  0.4675
10431TIP3   OH252707   0.984   0.456  14.698  0.2334 -0.0529  0.5490
10431TIP3    H152708   0.908   0.488  14.649  0.2944  0.6778  0.9284
10431TIP3    H252709   0.948   0.411  14.773  0.1587 -0.4383  0.2845
10432TIP3   OH252710   6.721   3.096   0.239 -0.7349 -0.1477  0.0755
10432TIP3    H152711   6.808   3.134   0.246 -0.5597 -0.2978 -1.1751
10432TIP3    H252712   6.663   3.162   0.277 -0.3325  0.9642 -1.2328
10433TIP3   OH252713   3.679   0.611   3.414  0.3354  0.6783  0.4220
10433TIP3    H152714   3.586   0.630   3.419  0.2349  0.2683  0.1440
10433TIP3    H252715   3.705   0.640   3.327  0.5416  1.1225  0.6334
10434TIP3   OH252716   0.636   0.053  13.230  0.1542  0.2387  0.5408
10434TIP3    H152717   0.699   0.111  13.272  0.8040  0.3224 -0.5473
10434TIP3    H252718   0.650  -0.032  13.273  0.7013  0.3671  0.6236
10435TIP3   OH252719   3.233   0.586   3.004 -0.5226 -0.3290  0.0723
10435TIP3    H152720   3.175   0.593   2.928  0.0349  0.1457 -0.3170
10435TIP3    H252721   3.274   0.500   2.994  0.6622  0.3322 -0.9882
10436TIP3   OH252722   0.512   3.881  12.423  0.4579  0.1260  0.4189
10436TIP3    H152723   0.428   3.836  12.412  0.9526 -0.9508  0.9449
10436TIP3    H252724   0.550   3.884  12.335 -0.3968  1.1727  0.0737
10437TIP3   OH252725   5.378   0.463   0.965 -0.1915 -0.5542 -0.2542
10437TIP3    H152726   5.371   0.482   1.059  3.0302  0.1986 -0.1277
10437TIP3    H252727   5.403   0.371   0.962  0.6433 -0.3308 -0.3202
10438TIP3   OH252728   5.131   6.359   3.164  0.5003 -0.6052  0.1473
10438TIP3    H152729   5.174   6.375   3.080 -0.1589  1.0621  0.1090
10438TIP3    H252730   5.114   6.264   3.164  0.9632 -0.7063 -1.3781
10439TIP3   OH252731   6.277   1.753   3.822 -0.1834 -0.2165 -0.1398
10439TIP3    H152732   6.323   1.686   3.872 -0.4278 -0.7393 -0.6193
10439TIP3    H252733   6.189   1.755   3.860  0.1480  0.6243  0.6243
10440TIP3   OH252734   0.410   0.684   6.487 -0.0846  0.1328  0.4280
10440TIP3    H152735   0.479   0.663   6.549 -0.0076 -0.5116  0.1329
10440TIP3    H252736   0.456   0.715   6.409  0.0034 -2.3339 -0.5571
10441TIP3   OH252737   0.504   6.091  17.112 -0.0453  0.0376  0.0349
10441TIP3    H152738   0.501   6.069  17.019 -1.7198  0.4661 -0.0323
10441TIP3    H252739   0.593   6.122  17.127  0.9308 -2.2786 -0.8894
10442TIP3   OH252740   0.327   1.143   4.908  0.5020  0.1221 -0.2036
10442TIP3    H152741   0.241   1.134   4.950  0.3791 -0.7212 -0.6400
10442TIP3    H252742   0.388   1.102   4.970  0.8626  2.3941  1.0020
10443TIP3   OH252743   3.535   3.633   2.611 -0.1597  0.6799  0.0463
10443TIP3    H152744   3.629   3.636   2.629 -0.1049  1.4680 -0.3415
10443TIP3    H252745   3.528   3.654   2.518 -0.5823 -1.4841 -0.4351
10444TIP3   OH252746   4.724   3.433  11.755 -0.2097 -0.1518 -0.3496
10444TIP3    H152747   4.820   3.430  11.755 -0.1914 -0.5522 -2.9381
10444TIP3    H252748   4.697   3.341  11.746 -0.8520 -0.0676  0.6426
10445TIP3   OH252749   5.744   2.497   0.595  0.1659 -0.2392 -0.9246
10445TIP3    H152750   5.762   2.591   0.589  0.8426 -0.3270 -0.3466
10445TIP3    H252751   5.830   2.456   0.592 -0.0458 -0.7712 -0.0047
10446TIP3   OH252752   5.088   6.675   4.122  0.5136 -0.5423  0.5227
10446TIP3    H152753   5.146   6.751   4.117  0.4133 -0.5121 -0.2933
10446TIP3    H252754   5.083   6.654   4.215  0.3636  0.5869  0.7769
10447TIP3   OH252755   0.396   1.895   3.119  0.0352  0.1855  0.6591
10447TIP3    H152756   0.389   1.942   3.036  2.3296 -2.1295 -0.9208
10447TIP3    H252757   0.482   1.920   3.154 -0.1627 -0.2090  1.4433
10448TIP3   OH252758   0.342   0.019   5.067  0.6769  0.2269  0.6538
10448TIP3    H152759   0.272   0.082   5.080  1.0557  0.3604  2.0822
10448TIP3    H252760   0.318  -0.057   5.120  1.2537 -0.0040  0.5956
10449TIP3   OH252761   1.762   5.664  15.150  0.0422 -0.0796 -0.5869
10449TIP3    H152762   1.680   5.674  15.197  0.7582  1.5434  0.3394
10449TIP3    H252763   1.756   5.725  15.076  0.5681  0.3114 -0.3085
10450TIP3   OH252764   2.780   2.930   3.986 -0.1089 -0.2282  0.7379
10450TIP3    H152765   2.752   2.847   3.949  4.2723 -2.3852  1.9196
10450TIP3    H252766   2.824   2.976   3.914 -0.8494  0.2434  0.5801
10451TIP3   OH252767   5.502   4.811   4.283 -0.4097  0.1439  0.2850
10451TIP3    H152768   5.588   4.789   4.319 -0.1666  1.5336  0.6097
10451TIP3    H252769   5.486   4.744   4.217  0.4631 -0.7284  0.9383
10452TIP3   OH252770   1.975   4.313  13.432  0.0380  0.1096 -0.3813
10452TIP3    H152771   2.016   4.349  13.353  0.5271  1.5015  0.4907
10452TIP3    H252772   1.952   4.223  13.408  2.3330 -0.2473 -1.3443
10453TIP3   OH252773   0.407   0.901  13.398 -0.2289 -0.1082  0.3990
10453TIP3    H152774   0.384   0.988  13.365  2.7855  1.4823  2.2294
10453TIP3    H252775   0.370   0.897  13.486 -0.4103 -0.7093  0.3019
10454TIP3   OH252776   2.712   1.657   3.545  0.3359  0.4497  0.4264
10454TIP3    H152777   2.795   1.671   3.589  0.1731 -0.5373  1.0669
10454TIP3    H252778   2.662   1.737   3.562  0.5181  0.3478  1.4953
10455TIP3   OH252779   4.768   1.820   0.136 -0.4318 -0.4947 -0.7747
10455TIP3    H152780   4.772   1.730   0.104  0.8838  0.0520 -2.2078
10455TIP3    H252781   4.793   1.874   0.061  2.8692  0.8399  1.1351
10456TIP3   OH252782   5.142   6.285   0.794 -0.1080  0.0905 -0.4547
10456TIP3    H152783   5.089   6.222   0.745  0.3681  0.4436 -1.4340
10456TIP3    H252784   5.120   6.269   0.885  0.3880 -1.8421 -0.6562
10457TIP3   OH252785   6.494   4.461  14.043 -0.3019  0.4876 -0.4098
10457TIP3    H152786   6.481   4.419  14.128 -0.2950 -0.0566 -0.6744
10457TIP3    H252787   6.587   4.449  14.024 -0.3009  0.6160 -0.4852
10458TIP3   OH252788   6.077   3.300   0.359 -0.9704 -0.1284  0.7169
10458TIP3    H152789   6.125   3.312   0.441 -1.4916  0.6817  0.9140
10458TIP3    H252790   6.067   3.389   0.324  1.3015 -0.6582 -1.4241
10459TIP3   OH252791   0.710   3.067  17.043 -0.6334  0.0696 -0.6802
10459TIP3    H152792   0.794   3.025  17.060 -1.9912 -2.0210  1.2204
10459TIP3    H252793   0.659   2.998  16.999 -2.2438  0.3606  0.6896
10460TIP3   OH252794   1.488   2.809   1.205 -0.5967  0.3213  0.1464
10460TIP3    H152795   1.434   2.776   1.133 -0.8382 -0.8653  0.8567
10460TIP3    H252796   1.540   2.733   1.233  0.3157  1.0615  0.4836
10461TIP3   OH252797   6.300   0.220   1.139  0.1102  0.1677  0.5610
10461TIP3    H152798   6.387   0.230   1.100  0.2836  2.2811  1.4093
10461TIP3    H252799   6.286   0.125   1.143  0.2668 -0.1411 -4.1533
10462TIP3   OH252800   5.250   5.052   3.246 -0.2236 -0.4456  0.4539
10462TIP3    H152801   5.318   5.101   3.293 -1.5612  0.2623  1.7031
10462TIP3    H252802   5.243   5.096   3.161  0.3560 -0.0593  0.6030
10463TIP3   OH252803   4.607   5.214   3.977 -0.2393 -0.4130 -0.3937
10463TIP3    H152804   4.664   5.147   3.940 -0.1099 -0.2660 -0.4637
10463TIP3    H252805   4.524   5.170   3.992 -0.5977 -0.2324 -1.7922
10464TIP3   OH252806   4.010   5.375   1.436  0.1768  0.0904 -0.4954
10464TIP3    H152807   4.000   5.391   1.342  0.8338 -1.0794 -0.7800
10464TIP3    H252808   4.102   5.350   1.446  0.3712  1.2181  0.6115
10465TIP3   OH252809   4.686   5.883   5.252  0.1947 -0.1129  0.3186
10465TIP3    H152810   4.721   5.794   5.267  0.6286  0.1401  0.8292
10465TIP3    H252811   4.591   5.871   5.247  0.4199 -1.0221 -2.5079
10466TIP3   OH252812   5.326   3.619  16.394 -0.0983  0.0858 -0.4635
10466TIP3    H152813   5.318   3.644  16.486  2.6200 -1.3214  0.2026
10466TIP3    H252814   5.239   3.586  16.371  0.1453 -3.1298  2.7504
10467TIP3   OH252815   3.612   0.454   0.866 -0.1381 -0.4104  0.2564
10467TIP3    H152816   3.624   0.491   0.779  0.3522 -1.5100 -0.1488
10467TIP3    H252817   3.681   0.495   0.919  1.6847 -2.2477 -0.6642
10468TIP3   OH252818   2.593   1.886   1.707  0.0813 -0.0446  0.6115
10468TIP3    H152819   2.546   1.969   1.697 -0.3096 -0.3554 -0.1474
10468TIP3    H252820   2.555   1.829   1.641  1.4522 -0.3316  0.0719
10469TIP3   OH252821   5.946   3.360   6.087  0.8892  0.5153  0.7470
10469TIP3    H152822   5.899   3.438   6.060  1.7942  1.0434  0.6634
10469TIP3    H252823   5.882   3.289   6.082  0.0500  1.2632  0.8897
10470TIP3   OH252824   3.712   0.849   0.947  0.1752 -0.7490 -0.2587
10470TIP3    H152825   3.762   0.887   0.876 -2.7749 -0.9138 -2.5007
10470TIP3    H252826   3.712   0.916   1.016  4.0616 -1.0663  0.1448
10471TIP3   OH252827   0.687   4.185   0.644  0.0157  0.6524  0.1869
10471TIP3    H152828   0.630   4.144   0.578  2.7948 -1.7884 -0.7929
10471TIP3    H252829   0.650   4.159   0.728 -0.5052 -0.6374 -0.4404
10472TIP3   OH252830   5.952   1.850   6.078 -0.5642  0.6947 -0.2630
10472TIP3    H152831   5.914   1.777   6.030  0.4716 -0.4334  0.6052
10472TIP3    H252832   6.007   1.809   6.144 -0.8901  2.2431  1.0054
10473TIP3   OH252833   4.494   4.719  12.881 -0.4826 -0.3540  0.7865
10473TIP3    H152834   4.557   4.647  12.883 -0.1584 -0.1119 -0.2454
10473TIP3    H252835   4.462   4.720  12.791 -2.0268 -0.5147  1.3190
10474TIP3   OH252836   5.308   2.197   3.029 -0.4240  0.0699 -0.6863
10474TIP3    H152837   5.383   2.194   2.970  1.0776 -0.9789  1.2280
10474TIP3    H252838   5.286   2.290   3.036  3.4470  0.8717  2.0855
10475TIP3   OH252839   6.733   5.564   1.793  0.5387  0.3683 -0.1420
10475TIP3    H152840   6.728   5.656   1.818  1.6886  0.3163  0.3174
10475TIP3    H252841   6.665   5.553   1.726  0.0959  1.4382  0.1278
10476TIP3   OH252842   5.999   3.480   4.267 -0.0663 -0.1926 -0.0602
10476TIP3    H152843   5.959   3.393   4.267 -0.8375  0.1536 -0.3243
10476TIP3    H252844   5.963   3.523   4.345  0.4298 -0.1591  0.1532
10477TIP3   OH252845   4.908   0.811  15.167 -0.1994 -0.1263 -0.1066
10477TIP3    H152846   4.851   0.796  15.243 -0.0984 -0.2225 -0.0481
10477TIP3    H252847   4.982   0.752  15.181 -0.2842 -0.3031 -0.3922
10478TIP3   OH252848   2.365   3.742  10.686  0.1853 -0.4618  0.7683
10478TIP3    H152849   2.350   3.664  10.633 -0.4927 -0.9781  1.7018
10478TIP3    H252850   2.452   3.774  10.659 -0.0895 -0.8034 -0.5171
10479TIP3   OH252851   4.643   5.589  11.244  0.2379 -0.6594  0.0592
10479TIP3    H152852   4.603   5.590  11.331  2.7533 -0.2521  1.2615
10479TIP3    H252853   4.626   5.501  11.210 -1.6884 -0.4764  0.4992
10480TIP3   OH252854   3.483   3.015   0.718 -0.8350 -0.6429 -0.1981
10480TIP3    H152855   3.406   2.967   0.750 -0.3184 -1.0348  0.4705
10480TIP3    H252856   3.550   2.999   0.784 -0.4684  0.5066 -0.2798
10481TIP3   OH252857   2.356   4.392  11.086 -0.0031  0.1236  0.0980
10481TIP3    H152858   2.354   4.311  11.035  0.0149  0.3530 -0.2680
10481TIP3    H252859   2.281   4.442  11.053  0.3831  0.5394 -0.1481
10482TIP3   OH252860   1.936   6.513  14.501 -0.1105  0.3357  0.3136
10482TIP3    H152861   1.879   6.440  14.527 -0.2315  0.5989  0.7894
10482TIP3    H252862   1.875   6.584  14.481 -0.0074  0.2036 -0.4690
10483TIP3   OH252863   2.904   3.826   1.572 -0.7657 -0.2572  0.0266
10483TIP3    H152864   2.821   3.778   1.572 -0.6361 -0.4835 -0.4508
10483TIP3    H252865   2.969   3.761   1.548 -0.3839 -0.1829  0.8363
10484TIP3   OH252866   4.967   1.060   0.247  0.2668  0.6537  0.0197
10484TIP3    H152867   5.045   1.015   0.215 -0.7055  0.5425 -2.3020
10484TIP3    H252868   4.950   1.021   0.334  3.0963  1.1218  0.8112
10485TIP3   OH252869   2.779   4.096  16.226 -0.5888 -0.1979 -0.1754
10485TIP3    H152870   2.737   4.110  16.311 -1.7691 -0.5091 -0.6997
10485TIP3    H252871   2.765   4.178  16.179 -3.6299 -1.4776 -1.6123
10486TIP3   OH252872   5.963   0.375  10.978 -0.2490  0.0108 -0.1762
10486TIP3    H152873   5.967   0.322  10.899 -0.9285  1.4848 -1.2217
10486TIP3    H252874   5.960   0.312  11.050 -1.9784 -1.3621 -1.4243
10487TIP3   OH252875   2.721   2.027   4.396 -0.7058 -0.0812  0.4927
10487TIP3    H152876   2.746   2.111   4.357  1.1310 -0.1071  1.5081
10487TIP3    H252877   2.723   1.965   4.324 -0.5960  0.4756  0.0123
10488TIP3   OH252878   6.242   5.548   1.148 -0.2988  0.3398 -0.5569
10488TIP3    H152879   6.307   5.491   1.107 -1.3017 -1.1487 -0.1357
10488TIP3    H252880   6.192   5.585   1.075 -1.9658 -2.1649 -0.7627
10489TIP3   OH252881   2.737   0.884   0.201 -0.4964  0.5693  0.5973
10489TIP3    H152882   2.650   0.845   0.209 -1.4530  2.3270 -0.6562
10489TIP3    H252883   2.791   0.816   0.161 -2.1543  0.5313 -1.6763
10490TIP3   OH252884   4.588   5.634   2.661 -0.0983  0.1067  0.4588
10490TIP3    H152885   4.675   5.597   2.677 -1.2456 -2.3884  1.1946
10490TIP3    H252886   4.566   5.680   2.742 -0.2404 -0.8450  0.9587
10491TIP3   OH252887   6.415   4.719  13.292  0.0183 -0.2614 -0.3275
10491TIP3    H152888   6.499   4.758  13.318  0.3353 -0.6453 -0.7584
10491TIP3    H252889   6.380   4.779  13.226 -0.3791  0.2649  0.3592
10492TIP3   OH252890   3.621   0.224  15.421 -0.5664  0.0306 -0.4222
10492TIP3    H152891   3.581   0.222  15.508 -0.3227  0.8624 -0.2832
10492TIP3    H252892   3.555   0.264  15.365 -0.5428 -0.0737 -0.5250
10493TIP3   OH252893   2.168   1.609  11.830  0.4492  0.4906  0.7870
10493TIP3    H152894   2.083   1.586  11.792  0.7850 -0.8617  0.8193
10493TIP3    H252895   2.225   1.626  11.755 -0.2879  3.1395  0.7823
10494TIP3   OH252896   4.221   0.327   1.542  0.1594 -0.7294 -0.1165
10494TIP3    H152897   4.298   0.365   1.584  1.4111  0.5569 -3.3624
10494TIP3    H252898   4.254   0.252   1.493 -0.6201 -0.2233 -1.4684
10495TIP3   OH252899   1.081   5.267   3.862 -0.4140  0.5183 -0.3963
10495TIP3    H152900   1.139   5.339   3.839 -1.3937  1.5524  0.2905
10495TIP3    H252901   0.999   5.310   3.888 -1.1262 -0.8580 -0.3299
10496TIP3   OH252902   4.734   2.570  10.627  0.4530  0.5133  0.3908
10496TIP3    H152903   4.752   2.660  10.653 -1.5348  0.6223  1.4904
10496TIP3    H252904   4.714   2.575  10.533  0.4393  1.2105  0.4300
10497TIP3   OH252905   3.999   0.139  15.058  0.5045  0.6504  0.1710
10497TIP3    H152906   3.987   0.176  15.145 -0.3433  0.9803 -0.0828
10497TIP3    H252907   3.920   0.087  15.043  0.1335  1.4804 -0.8404
10498TIP3   OH252908   5.880   6.091  14.017  0.0522 -0.5971 -0.5460
10498TIP3    H152909   5.846   6.180  14.029  0.7163 -0.2349 -1.3064
10498TIP3    H252910   5.833   6.059  13.939  1.3233 -0.1500 -1.5120
10499TIP3   OH252911   1.902   4.270  10.645 -0.1717  0.5548 -0.4123
10499TIP3    H152912   1.845   4.329  10.694 -0.9923  1.4049 -2.3096
10499TIP3    H252913   1.861   4.184  10.653 -1.5728  1.0993 -1.4650
10500TIP3   OH252914   4.533   3.111   1.578  0.0364  0.1094  0.3821
10500TIP3    H152915   4.512   3.072   1.663  1.1043 -2.1880 -0.3625
10500TIP3    H252916   4.591   3.184   1.598 -0.0949 -0.1325  1.6593
10501TIP3   OH252917   3.251   4.408   1.959 -0.4913  0.0252 -0.3026
10501TIP3    H152918   3.190   4.342   1.992 -2.1395  1.1158 -1.1104
10501TIP3    H252919   3.219   4.491   1.996 -0.1841  0.7625 -1.6384
10502TIP3   OH252920   5.573   2.152   4.473  0.4789  0.2455 -0.0809
10502TIP3    H152921   5.506   2.219   4.483  0.4670  0.2094  0.0877
10502TIP3    H252922   5.635   2.189   4.410  0.7333  0.6176  0.3856
10503TIP3   OH252923   6.011   6.169   2.055  0.5390 -0.0237  0.4441
10503TIP3    H152924   5.919   6.182   2.033  1.3621  2.4319 -1.7880
10503TIP3    H252925   6.024   6.074   2.050 -1.1396 -0.1637 -2.3483
10504TIP3   OH252926   4.856   1.578   1.616 -0.0385  0.1366 -0.7305
10504TIP3    H152927   4.763   1.567   1.596 -0.1472  1.4265 -0.9970
10504TIP3    H252928   4.860   1.661   1.663  0.9157 -0.1862 -0.2295
10505TIP3   OH252929   1.217   2.114   5.447 -0.5067 -0.2834  0.1203
10505TIP3    H152930   1.265   2.153   5.520  0.3837  1.4529 -1.3421
10505TIP3    H252931   1.125   2.127   5.469 -0.2432  0.1399  0.9805
10506TIP3   OH252932   1.539   1.073  13.325  0.3293 -0.0893 -0.6996
10506TIP3    H152933   1.545   1.147  13.386 -1.0122 -0.3967 -0.1766
10506TIP3    H252934   1.628   1.039  13.320  0.4960  0.0578  0.9401
10507TIP3   OH252935   4.978   1.504  11.288  0.0734  0.1398  0.2110
10507TIP3    H152936   5.038   1.453  11.234  2.0293  2.2291  0.3303
10507TIP3    H252937   4.948   1.443  11.355  0.1974 -1.5704 -1.2508
10508TIP3   OH252938   4.066   4.776  16.981  0.0522 -0.8476 -0.7465
10508TIP3    H152939   4.053   4.682  16.996  1.4010 -0.9993 -0.4927
10508TIP3    H252940   4.126   4.803  17.050  0.7433 -0.0885 -1.6338
10509TIP3   OH252941   2.316   1.284  16.488  0.0819 -0.2224 -0.1892
10509TIP3    H152942   2.274   1.356  16.443 -0.6022 -1.0680 -0.9263
10509TIP3    H252943   2.247   1.245  16.542  0.9208  0.8768  1.7467
10510TIP3   OH252944   1.462   1.880   3.323 -0.3165 -0.1849 -0.0927
10510TIP3    H152945   1.406   1.946   3.362 -0.4951 -0.4271  0.0617
10510TIP3    H252946   1.533   1.930   3.281  0.0394  0.0553  0.7927
10511TIP3   OH252947   3.060   4.541  14.101  0.7736 -0.6369 -0.0888
10511TIP3    H152948   3.057   4.448  14.124 -0.2689 -0.6641 -0.3299
10511TIP3    H252949   2.987   4.581  14.149  0.4883 -0.1572 -0.9132
10512TIP3   OH252950   5.510   0.181  11.200 -0.4611  0.1453  0.3585
10512TIP3    H152951   5.552   0.177  11.114 -1.2224  0.1248 -0.0112
10512TIP3    H252952   5.579   0.215  11.258  0.2466 -0.4244 -0.1306
10513TIP3   OH252953   1.713   5.413  15.884 -0.3608  0.0247 -0.1657
10513TIP3    H152954   1.752   5.382  15.802 -0.0113  0.3836 -0.1398
10513TIP3    H252955   1.781   5.399  15.950 -1.2469 -1.8388  0.3842
10514TIP3   OH252956   1.260   2.619   5.322  0.2234 -0.3018  0.2503
10514TIP3    H152957   1.250   2.714   5.317 -0.0833 -0.3138  0.6826
10514TIP3    H252958   1.273   2.600   5.415 -1.6474 -0.8708  0.4182
10515TIP3   OH252959   0.115   6.369  14.661  0.2626 -0.1738 -0.4309
10515TIP3    H152960   0.087   6.331  14.744 -3.1344  0.5364 -1.1799
10515TIP3    H252961   0.146   6.294  14.610  0.3673 -0.9143  0.6967
10516TIP3   OH252962   1.243   5.794   1.594 -0.0251  0.4094  0.2827
10516TIP3    H152963   1.254   5.779   1.688 -0.0334  2.0518  0.5524
10516TIP3    H252964   1.226   5.888   1.587  0.8357  0.4428 -1.4367
10517TIP3   OH252965   1.265   2.873  12.248 -0.2983  0.1930  0.0887
10517TIP3    H152966   1.277   2.873  12.343 -1.1086  2.1915  0.2033
10517TIP3    H252967   1.336   2.928  12.215  0.2303 -0.8394 -0.4990
10518TIP3   OH252968   0.177   0.994   5.846 -0.2967  0.5624  0.1192
10518TIP3    H152969   0.188   0.994   5.942  0.3086  0.2243  0.0553
10518TIP3    H252970   0.101   0.938   5.831 -1.5097  2.0849  0.5176
10519TIP3   OH252971   4.373   2.619   0.741  0.3715 -0.0187 -0.4499
10519TIP3    H152972   4.468   2.608   0.751  0.2226 -0.3373  0.7159
10519TIP3    H252973   4.358   2.711   0.764  0.4627  0.1702 -1.1454
10520TIP3   OH252974   4.824   3.832   2.168 -0.2457 -0.0355 -0.1353
10520TIP3    H152975   4.785   3.895   2.228  0.5388 -1.1101  1.5560
10520TIP3    H252976   4.914   3.863   2.156  0.4194 -1.2502  1.4045
10521TIP3   OH252977   3.664   6.150   5.689 -0.2630 -0.5493  0.3745
10521TIP3    H152978   3.590   6.120   5.637 -0.9168  1.1446  0.2935
10521TIP3    H252979   3.708   6.215   5.634  0.5351 -0.6112  0.9254
10522TIP3   OH252980   4.722   1.011  14.925 -0.2595  0.4423 -0.2265
10522TIP3    H152981   4.799   1.005  14.983 -0.2216  0.3039 -0.2909
10522TIP3    H252982   4.684   0.924  14.926 -0.8097  0.6828  0.3381
10523TIP3   OH252983   4.088   6.780  13.364  0.1810  0.8667 -0.2378
10523TIP3    H152984   3.995   6.759  13.366  0.1446  0.9695 -1.0383
10523TIP3    H252985   4.114   6.780  13.457 -0.5272  0.4740 -0.0367
10524TIP3   OH252986   2.419   2.247  14.413  0.3293  0.5231 -0.3859
10524TIP3    H152987   2.436   2.179  14.348 -0.3378  0.2577 -0.2929
10524TIP3    H252988   2.326   2.235  14.436  0.6958  0.2853  0.9940
10525TIP3   OH252989   1.040   1.784  14.029 -0.0824  0.2843  0.0181
10525TIP3    H152990   0.947   1.766  14.027 -0.7542  2.6752  3.5977
10525TIP3    H252991   1.046   1.879  14.018  2.0418  0.0052 -1.5286
10526TIP3   OH252992   4.673   1.473  13.473 -0.1696 -0.2234  0.0772
10526TIP3    H152993   4.701   1.563  13.490 -0.9654  0.1335 -0.5064
10526TIP3    H252994   4.706   1.424  13.548 -0.5531  0.7164  0.8717
10527TIP3   OH252995   3.286   1.812   3.315  0.9755 -0.2174 -0.5068
10527TIP3    H152996   3.191   1.828   3.315  0.7432 -1.2992 -3.3200
10527TIP3    H252997   3.325   1.899   3.310  0.0367  0.1354 -2.1449
10528TIP3   OH252998   0.924   0.144  12.808  0.3170  0.0701 -0.2489
10528TIP3    H152999   0.981   0.162  12.884 -0.0269  0.1737 -0.0110
10528TIP3    H253000   0.866   0.221  12.804  0.3950  0.1067 -0.6753
10529TIP3   OH253001   2.985   5.506   1.001  0.7353 -0.0322  0.5442
10529TIP3    H153002   3.014   5.504   1.093  0.3747 -0.0497  0.6595
10529TIP3    H253003   2.889   5.501   1.006  0.5967  1.9421  0.2466
10530TIP3   OH253004   6.728   2.185   4.226  0.4652 -0.0502  0.3429
10530TIP3    H153005   6.752   2.105   4.179 -1.2414 -0.1250 -0.4536
10530TIP3    H253006   6.773   2.255   4.180  0.5482 -0.3659 -0.0554
10531TIP3   OH253007   1.424   0.486  15.763  0.3741 -0.2543 -0.0228
10531TIP3    H153008   1.411   0.397  15.729 -0.7190 -0.6046  1.2752
10531TIP3    H253009   1.508   0.482  15.808 -0.3071 -0.9937  1.1883
10532TIP3   OH253010   3.761   4.960  14.632 -0.0750  0.0945  0.3243
10532TIP3    H153011   3.822   4.911  14.688 -0.5279 -0.1096  0.6421
10532TIP3    H253012   3.818   5.008  14.572  0.3743 -0.8196  0.0022
10533TIP3   OH253013   5.200   6.304   0.136 -0.3530 -0.1244  0.2592
10533TIP3    H153014   5.271   6.244   0.112 -1.1932  0.0686 -2.9518
10533TIP3    H253015   5.205   6.374   0.071 -3.3055  0.0500  0.1480
10534TIP3   OH253016   1.041   0.262  16.926  0.4956  0.2535 -0.0455
10534TIP3    H153017   1.054   0.276  16.832 -1.2842  1.4532 -0.1461
10534TIP3    H253018   1.051   0.350  16.964 -0.1906  0.0078  0.7035
10535TIP3   OH253019   4.695   5.782  16.127 -0.6995 -0.0022 -0.7565
10535TIP3    H153020   4.699   5.720  16.200  0.6081 -0.1240 -0.9294
10535TIP3    H253021   4.614   5.830  16.142  0.3474  1.0862  1.7023
10536TIP3   OH253022   0.577   5.673  10.103  0.2690 -0.0751 -0.2938
10536TIP3    H153023   0.508   5.708  10.159 -0.3974 -1.6783 -0.0749
10536TIP3    H253024   0.566   5.719  10.019 -0.1218  0.7380  0.2005
10537TIP3   OH253025   5.282   1.008   2.239 -0.2030  0.4186 -0.3281
10537TIP3    H153026   5.363   1.051   2.212  0.9611 -1.8381 -0.5032
10537TIP3    H253027   5.237   0.989   2.157 -0.0216 -0.0430 -0.3184
10538TIP3   OH253028   4.342   1.631  16.667 -0.0886  0.0218 -0.1436
10538TIP3    H153029   4.265   1.648  16.721 -0.0287  1.1750 -0.4278
10538TIP3    H253030   4.309   1.626  16.577  0.4939  2.9970 -0.5661
10539TIP3   OH253031   6.008   4.883   2.669  0.4236 -0.2846  0.4250
10539TIP3    H153032   5.916   4.866   2.691  0.3562 -1.3007 -0.6051
10539TIP3    H253033   6.004   4.950   2.600  0.3281 -2.0881 -1.3675
10540TIP3   OH253034   3.120   3.162   1.892  0.3695 -0.1543  0.6473
10540TIP3    H153035   3.092   3.093   1.953  1.4245 -0.7172  0.5080
10540TIP3    H253036   3.212   3.178   1.914  0.6023  0.0254 -0.4260
10541TIP3   OH253037   5.342   6.443   3.664  0.2113  0.1103 -0.7780
10541TIP3    H153038   5.393   6.520   3.640 -0.8402  0.2091 -2.9071
10541TIP3    H253039   5.259   6.478   3.698 -0.7522 -0.0337 -2.8787
10542TIP3   OH253040   6.197   2.711  14.421 -0.4361  0.0694 -0.1107
10542TIP3    H153041   6.170   2.628  14.382 -0.3676  0.3769 -0.8018
10542TIP3    H253042   6.272   2.739  14.369 -0.4460  0.5594  0.1392
10543TIP3   OH253043   2.764   0.685   2.784 -0.9407  0.4708 -0.4698
10543TIP3    H153044   2.770   0.603   2.832 -0.5298  1.3142  0.9374
10543TIP3    H253045   2.774   0.659   2.692  1.9628 -0.7686  0.1222
10544TIP3   OH253046   3.369   6.475  12.546  0.8453 -0.2685 -0.4497
10544TIP3    H153047   3.374   6.563  12.583 -1.3865  0.3250 -1.4808
10544TIP3    H253048   3.432   6.424  12.596  1.4207  1.6759  0.8478
10545TIP3   OH253049   6.193   2.285  12.084 -0.0346 -0.0468  0.2849
10545TIP3    H153050   6.218   2.356  12.143  0.1986 -1.1733  1.5588
10545TIP3    H253051   6.252   2.213  12.105 -1.5244 -1.2811  0.3663
10546TIP3   OH253052   4.059   5.572   6.560 -0.0808 -0.0218 -0.0752
10546TIP3    H153053   4.029   5.596   6.472  1.2391 -0.0183 -0.5371
10546TIP3    H253054   4.054   5.477   6.562 -1.7036  0.0634  0.4363
10547TIP3   OH253055   2.737   0.077  12.257 -0.0856  0.1949  0.2667
10547TIP3    H153056   2.680   0.034  12.321  0.0301  0.8199  0.8015
10547TIP3    H253057   2.795   0.007  12.225 -1.1061 -0.4281 -0.2380
10548TIP3   OH253058   5.411   5.544  10.817 -0.0380  0.2049  0.0047
10548TIP3    H153059   5.384   5.460  10.781  0.6769 -0.2514  0.5186
10548TIP3    H253060   5.378   5.609  10.755  1.0231 -0.5540 -1.3723
10549TIP3   OH253061   2.404   0.962  11.419 -0.1876 -0.1614  0.1475
10549TIP3    H153062   2.312   0.944  11.440 -0.9511 -1.3188 -3.6672
10549TIP3    H253063   2.400   1.016  11.340  2.3398 -2.3581 -1.5972
10550TIP3   OH253064   5.305   4.062  13.467  0.0152  0.5278  0.6535
10550TIP3    H153065   5.347   4.104  13.542  0.0104  0.0210  0.9414
10550TIP3    H253066   5.219   4.103  13.460  1.3722  3.1573 -1.2876
10551TIP3   OH253067   4.388   0.403  15.482 -0.0373  0.1899 -0.0907
10551TIP3    H153068   4.342   0.346  15.421 -1.4964 -0.6315  1.7261
10551TIP3    H253069   4.412   0.346  15.555  0.8823  1.3395  0.5242
10552TIP3   OH253070   2.439   5.024   5.748 -0.3730  0.7715  0.0770
10552TIP3    H153071   2.429   4.967   5.824 -0.0841  1.3120  0.5310
10552TIP3    H253072   2.396   4.977   5.676  1.9610 -1.1302 -0.1395
10553TIP3   OH253073   6.474   6.276  11.275  0.2455 -0.0776  0.3076
10553TIP3    H153074   6.481   6.198  11.220  0.3278  0.1999 -0.0812
10553TIP3    H253075   6.406   6.329  11.233  0.8422  0.4847  0.0319
10554TIP3   OH253076   5.000   4.432  16.768 -0.3515  0.0132 -0.0265
10554TIP3    H153077   5.095   4.428  16.772 -0.2667  2.3867  1.0805
10554TIP3    H253078   4.978   4.518  16.805 -2.9474 -0.7768  0.3482
10555TIP3   OH253079   3.961   1.096   5.571 -0.1410  0.0383  0.4005
10555TIP3    H153080   4.005   1.141   5.499  0.5728  1.7721  1.8933
10555TIP3    H253081   3.877   1.141   5.580 -1.0687 -1.4573 -0.6202
10556TIP3   OH253082   0.996   3.141  12.193 -0.2345  0.3377 -0.0797
10556TIP3    H153083   1.087   3.160  12.216  0.3462  0.7296 -2.5377
10556TIP3    H253084   1.001   3.069  12.130 -1.6236  0.3696 -0.2508
10557TIP3   OH253085   3.123   3.872   4.582 -0.5264 -0.3575 -0.4016
10557TIP3    H153086   3.112   3.807   4.512 -0.3823 -0.1397 -0.6289
10557TIP3    H253087   3.188   3.833   4.641  0.0858 -0.1144 -0.9084
10558TIP3   OH253088   1.207   1.687   0.403  0.7833 -0.7990  0.4225
10558TIP3    H153089   1.276   1.738   0.360  0.0778 -0.5486 -0.4416
10558TIP3    H253090   1.128   1.707   0.352 -0.1532 -0.2065  2.1004
10559TIP3   OH253091   5.097   6.669   6.048  0.3297 -0.4667 -0.0705
10559TIP3    H153092   5.135   6.747   6.006  0.9715  0.2163  1.7277
10559TIP3    H253093   5.003   6.684   6.047  0.3075 -0.6495 -1.6154
10560TIP3   OH253094   2.241   6.183  16.609  0.0408 -0.7047 -0.2371
10560TIP3    H153095   2.154   6.149  16.587 -1.9886  2.8990  1.7443
10560TIP3    H253096   2.264   6.138  16.690 -0.0458 -1.5519 -0.6774
10561TIP3   OH253097   6.528   3.596   4.585  0.5712 -0.0685 -0.1934
10561TIP3    H153098   6.471   3.532   4.542  0.0386 -1.5393  2.6470
10561TIP3    H253099   6.471   3.642   4.646  1.5423  1.3658 -0.3303
10562TIP3   OH253100   5.158   4.127  14.612 -0.2392  0.5139  0.0064
10562TIP3    H153101   5.123   4.188  14.677 -0.8111 -0.5331  0.7017
10562TIP3    H253102   5.253   4.136  14.619 -0.3206  1.7783 -0.3474
10563TIP3   OH253103   1.400   5.638  12.969  0.1443  0.3948  0.2860
10563TIP3    H153104   1.468   5.697  12.937 -0.2134  0.2597 -0.7580
10563TIP3    H253105   1.337   5.633  12.896 -1.3079  1.0235  1.4802
10564TIP3   OH253106   0.237   2.672   1.656  0.0140  0.0878  0.9790
10564TIP3    H153107   0.318   2.714   1.682 -1.8326  2.7256  2.7988
10564TIP3    H253108   0.205   2.723   1.582  0.5431 -1.6382 -0.4769
10565TIP3   OH253109   1.811   4.600  16.106  0.1593 -0.1244  0.1682
10565TIP3    H153110   1.716   4.602  16.103  0.0623 -1.9158  1.1486
10565TIP3    H253111   1.836   4.528  16.048  0.9272  0.4244 -0.2023
10566TIP3   OH253112   1.595   2.639   5.735  0.1292  0.1317  0.3268
10566TIP3    H153113   1.635   2.602   5.814 -0.8544 -0.6970  0.4404
10566TIP3    H253114   1.597   2.567   5.672  0.4343  0.6371 -0.2417
10567TIP3   OH253115   6.546   2.103  14.689  0.1303 -0.1406 -0.8797
10567TIP3    H153116   6.589   2.110  14.774 -1.2110 -1.0237 -0.1098
10567TIP3    H253117   6.545   2.193  14.656  3.0943 -0.1906 -1.2202
10568TIP3   OH253118   1.180   1.115  16.028 -0.1009 -0.0109  0.7233
10568TIP3    H153119   1.251   1.097  15.966  0.1471 -0.3282  1.0979
10568TIP3    H253120   1.124   1.037  16.023 -0.7546  0.5074 -0.0292
10569TIP3   OH253121   3.034   2.547   0.868  0.1831 -0.3705  0.5900
10569TIP3    H153122   2.988   2.545   0.784  0.0452 -1.6387  0.6859
10569TIP3    H253123   3.122   2.579   0.847 -1.1173  3.4714  0.6081
10570TIP3   OH253124   2.783   2.640   1.354 -0.2545 -0.0010  0.1503
10570TIP3    H153125   2.866   2.627   1.308  0.4219  0.3895  1.2504
10570TIP3    H253126   2.722   2.581   1.310  0.4253  0.2171 -1.1279
10571TIP3   OH253127   5.970   0.472   0.431  0.1606 -0.1727 -0.3370
10571TIP3    H153128   5.907   0.404   0.404 -0.6051  0.6311 -0.6004
10571TIP3    H253129   5.922   0.524   0.495  1.2785 -0.8206  1.0356
10572TIP3   OH253130   2.500   6.704  12.738  0.0753  0.3786  0.3500
10572TIP3    H153131   2.435   6.731  12.804 -0.6047 -0.6322  0.1035
10572TIP3    H253132   2.584   6.707  12.784 -0.1573  1.5897  0.7088
10573TIP3   OH253133   2.707   3.344   5.483 -0.4221 -1.0680 -0.3283
10573TIP3    H153134   2.744   3.388   5.560 -1.3815  2.6895 -1.9159
10573TIP3    H253135   2.766   3.366   5.411 -1.3969 -1.6811 -1.3381
10574TIP3   OH253136   3.116   3.517  14.306  0.1264 -0.2718 -0.2271
10574TIP3    H153137   3.158   3.488  14.387  0.7412 -0.7507 -0.7143
10574TIP3    H253138   3.166   3.475  14.237 -0.2806  0.2959 -0.8672
10575TIP3   OH253139   4.080   3.843  15.234 -0.0134 -0.1033  0.0023
10575TIP3    H153140   4.024   3.896  15.291  0.9853  0.2122  0.6951
10575TIP3    H253141   4.131   3.907  15.185  1.8451 -0.4088  1.4840
10576TIP3   OH253142   2.846   6.538  16.335  0.4088 -0.0551 -0.0695
10576TIP3    H153143   2.804   6.622  16.354 -0.5705 -0.1273 -1.8874
10576TIP3    H253144   2.936   6.561  16.312  0.0534  0.5415 -0.8850
10577TIP3   OH253145   3.246   4.390  16.829  0.0881 -0.0841  0.7150
10577TIP3    H153146   3.273   4.335  16.902  1.2810 -0.0512  0.3097
10577TIP3    H253147   3.321   4.389  16.769  0.0869  1.8965  0.6640
10578TIP3   OH253148   1.693   3.497  13.810  0.5358 -0.0602  0.0740
10578TIP3    H153149   1.785   3.489  13.785  0.3264 -0.6414 -0.5061
10578TIP3    H253150   1.651   3.540  13.735  0.6866  1.9092  1.0892
10579TIP3   OH253151   1.107   3.599   6.593 -0.3144 -0.3250  0.1122
10579TIP3    H153152   1.069   3.669   6.540 -0.2723 -0.9457 -0.7484
10579TIP3    H253153   1.183   3.640   6.635 -1.2835  0.6116  0.9667
10580TIP3   OH253154   2.043   6.290  14.184  0.0921  0.2857  0.2805
10580TIP3    H153155   2.111   6.269  14.249 -0.1078  0.1532  0.4470
10580TIP3    H253156   2.092   6.311  14.105  0.2855 -1.1041  0.0285
10581TIP3   OH253157   4.081   0.119   2.243 -0.6666 -0.2275  0.2415
10581TIP3    H153158   4.148   0.051   2.246 -1.4447 -1.2607 -3.9051
10581TIP3    H253159   4.128   0.198   2.218 -0.7029 -0.5157 -0.7257
10582TIP3   OH253160   0.090   0.183  16.735  0.4276 -0.5289 -0.7011
10582TIP3    H153161   0.167   0.126  16.732  1.6798  1.0419  0.6839
10582TIP3    H253162   0.020   0.127  16.769  1.8037 -1.0996  1.3097
10583TIP3   OH253163   4.123   6.648   2.037 -0.0082 -0.0697  0.5622
10583TIP3    H153164   4.153   6.624   1.950  0.0135 -0.4473  0.6700
10583TIP3    H253165   4.051   6.588   2.055 -0.6683  0.6781  0.4021
10584TIP3   OH253166   0.521   5.490   1.638  0.7612 -0.5454 -0.9467
10584TIP3    H153167   0.556   5.447   1.716  0.1986 -0.4321 -0.6249
10584TIP3    H253168   0.431   5.513   1.662  1.3004  1.5335 -0.8415
10585TIP3   OH253169   2.210   2.136   5.459 -0.0217  0.1098 -0.0180
10585TIP3    H153170   2.169   2.078   5.523 -2.1948  2.7483  1.0830
10585TIP3    H253171   2.172   2.109   5.375 -0.4811 -0.5104  0.3786
10586TIP3   OH253172   5.321   2.214   2.265 -0.0015 -0.2063  0.0712
10586TIP3    H153173   5.408   2.225   2.226 -1.1794  0.6797 -2.3556
10586TIP3    H253174   5.327   2.130   2.311  2.5634  0.5180  1.1748
10587TIP3   OH253175   1.831   5.380  13.687 -0.2448 -0.2236  0.7389
10587TIP3    H153176   1.788   5.462  13.713 -0.0241 -0.3459  1.5124
10587TIP3    H253177   1.769   5.312  13.714  0.1385 -0.3697  1.2494
10588TIP3   OH253178   5.855   6.424   4.067  0.3419 -0.5863 -0.0740
10588TIP3    H153179   5.925   6.413   4.131  1.5258  0.5418 -1.1382
10588TIP3    H253180   5.776   6.435   4.120  1.3643  0.7844  1.2060
10589TIP3   OH253181   4.864   1.923   6.141 -0.8379 -0.2313  0.1260
10589TIP3    H153182   4.849   1.993   6.077 -0.3347 -0.1097  0.1340
10589TIP3    H253183   4.784   1.871   6.140 -0.4548 -0.8023 -1.3049
10590TIP3   OH253184   4.831   0.688   0.492  0.0548  0.0126 -0.4980
10590TIP3    H153185   4.855   0.603   0.530 -0.4834  0.5014  0.9748
10590TIP3    H253186   4.736   0.683   0.482 -0.5267  1.9314  3.4139
10591TIP3   OH253187   5.628   3.145  15.689 -0.9787 -0.1822 -0.0029
10591TIP3    H153188   5.702   3.086  15.701  0.6437  2.0298  1.1384
10591TIP3    H253189   5.665   3.222  15.646 -2.8635  0.4284 -0.5997
10592TIP3   OH253190   3.895   5.831   5.533  0.2131  0.4575  0.5489
10592TIP3    H153191   3.915   5.921   5.559  2.1145 -0.7471  3.4960
10592TIP3    H253192   3.816   5.809   5.582  2.6271 -1.1061  3.9974
10593TIP3   OH253193   3.100   6.267   3.485 -0.0627  0.2797  0.0771
10593TIP3    H153194   3.129   6.178   3.465 -2.2898 -0.4420 -0.1095
10593TIP3    H253195   3.140   6.288   3.570  2.0051 -0.1420 -0.7515
10594TIP3   OH253196   0.437   3.435   0.950  0.1908  0.2551  0.0118
10594TIP3    H153197   0.361   3.396   0.993  0.0329 -0.6507 -1.0733
10594TIP3    H253198   0.468   3.368   0.890  1.4575  0.8640 -0.0341
10595TIP3   OH253199   3.563   1.813   0.119 -0.3280 -0.1028  0.0448
10595TIP3    H153200   3.569   1.808   0.214 -1.7183  0.5278  0.1817
10595TIP3    H253201   3.649   1.784   0.088  0.4407  0.5467  1.5117
10596TIP3   OH253202   2.185   1.736  12.839 -0.1763 -0.0697  0.0621
10596TIP3    H153203   2.158   1.656  12.884 -0.7390 -0.5613 -1.1137
10596TIP3    H253204   2.122   1.745  12.767 -1.2267  2.4245  1.2395
10597TIP3   OH253205   4.823   0.246  16.731  0.0938 -0.0584  0.1053
10597TIP3    H153206   4.835   0.313  16.799 -0.5545 -1.9163  2.1037
10597TIP3    H253207   4.761   0.285  16.670  0.2109  1.4116  0.9061
10598TIP3   OH253208   5.049   2.184   0.173  0.1896 -0.3388 -0.5485
10598TIP3    H153209   5.087   2.135   0.246 -1.3898 -0.0267  0.5070
10598TIP3    H253210   5.023   2.118   0.110  2.2620 -0.5754 -1.2167
10599TIP3   OH253211   4.954   5.329  13.332 -0.6296  0.0703 -0.0961
10599TIP3    H153212   4.872   5.280  13.322 -1.4134  1.0039  1.5089
10599TIP3    H253213   4.949   5.365  13.421  1.5967  0.0066  0.0759
10600TIP3   OH253214   2.250   0.681  11.270 -0.6247  0.4792 -0.5538
10600TIP3    H153215   2.222   0.746  11.335 -1.6453  0.0859 -0.5792
10600TIP3    H253216   2.186   0.610  11.279  1.3938 -1.2583  0.5844
10601TIP3   OH253217   4.349   2.819   0.206 -0.2035  0.0704 -0.2538
10601TIP3    H153218   4.372   2.843   0.296 -0.9642  0.1093 -0.0703
10601TIP3    H253219   4.403   2.877   0.152 -1.5700  1.7948  0.1904
10602TIP3   OH253220   5.053   2.958   1.390 -0.5982 -0.4063 -0.5993
10602TIP3    H153221   4.985   3.021   1.366  0.3701  0.3709 -1.3586
10602TIP3    H253222   5.135   3.001   1.366  0.0917 -1.8612 -0.9045
10603TIP3   OH253223   3.346   2.903  15.285  0.3710  0.2093  0.1476
10603TIP3    H153224   3.279   2.935  15.344 -2.0917  0.9883 -2.9486
10603TIP3    H253225   3.304   2.830  15.238  2.3022 -0.4829 -0.5669
10604TIP3   OH253226   4.377   5.560   5.863 -0.5638 -0.3449 -0.1669
10604TIP3    H153227   4.380   5.472   5.826 -0.6708 -0.6474  0.5412
10604TIP3    H253228   4.308   5.556   5.929 -0.6052  0.2841 -0.1697
10605TIP3   OH253229   2.636   6.053  11.620 -0.0661 -0.1671 -0.2857
10605TIP3    H153230   2.605   6.018  11.704  2.3435 -1.5862  0.0717
10605TIP3    H253231   2.661   6.144  11.640  1.6875 -0.8748  0.8806
10606TIP3   OH253232   3.144   6.525  13.716  0.2795 -0.2484 -0.0120
10606TIP3    H153233   3.176   6.601  13.668  0.6368 -0.5204 -0.2037
10606TIP3    H253234   3.112   6.561  13.799 -1.5838  0.4192 -0.9673
10607TIP3   OH253235   2.247   5.987  16.796  0.5719  0.2151 -0.3637
10607TIP3    H153236   2.310   5.925  16.758  0.3236  0.6101 -1.4401
10607TIP3    H253237   2.184   5.932  16.842  2.0676 -0.1535  1.3016
10608TIP3   OH253238   2.029   1.240   6.217  0.0963 -0.2159 -0.0486
10608TIP3    H153239   2.048   1.148   6.197 -1.4476 -0.5309 -0.1465
10608TIP3    H253240   1.973   1.237   6.294  0.1998  0.6537  0.0627
10609TIP3   OH253241   1.783   5.412   0.581  0.2514  0.1558  0.4476
10609TIP3    H153242   1.871   5.444   0.559 -0.0755  1.1043  0.5043
10609TIP3    H253243   1.791   5.383   0.672  0.7045 -0.5174  0.2034
10610TIP3   OH253244   0.696   2.478  14.377 -0.2961  0.1794  0.8635
10610TIP3    H153245   0.725   2.423  14.305 -0.0188  1.6898 -0.2015
10610TIP3    H253246   0.772   2.531  14.400 -1.5043  2.6141 -0.4956
10611TIP3   OH253247   6.104   1.169   5.564 -0.0734 -0.4091 -0.1412
10611TIP3    H153248   6.158   1.177   5.643  0.8286  0.0524 -0.7915
10611TIP3    H253249   6.105   1.257   5.526 -0.4723 -0.6408 -0.6862
10612TIP3   OH253250   1.019   6.103   5.323 -0.6491  0.4083  0.4467
10612TIP3    H153251   1.048   6.018   5.355 -1.9366  0.1209  0.8549
10612TIP3    H253252   0.999   6.089   5.230  0.6652  0.6547  0.1097
10613TIP3   OH253253   4.680   3.114   2.703 -0.5686  0.3604 -0.0012
10613TIP3    H153254   4.663   3.208   2.709  1.4659  0.7059  0.7036
10613TIP3    H253255   4.694   3.086   2.793  0.5480 -0.2895 -0.3704
10614TIP3   OH253256   0.828   5.531   2.441 -0.2648 -0.3426 -0.0933
10614TIP3    H153257   0.754   5.548   2.383  0.5757 -1.1294 -1.4211
10614TIP3    H253258   0.804   5.452   2.488 -1.0264  0.3962  0.7661
10615TIP3   OH253259   2.932   6.377   2.869  0.4958 -0.4280 -0.1084
10615TIP3    H153260   2.969   6.435   2.803 -0.9914  0.6362 -0.0271
10615TIP3    H253261   3.009   6.340   2.914  1.4737  0.5386 -0.9510
10616TIP3   OH253262   1.000   0.717  17.179  0.0267  0.2603  0.0242
10616TIP3    H153263   0.944   0.791  17.200 -1.2662 -0.2452 -1.5369
10616TIP3    H253264   1.033   0.687  17.264 -1.7405  0.8342  0.9397
10617TIP3   OH253265   4.720   4.594  16.289  0.2281  0.0104 -0.0651
10617TIP3    H153266   4.671   4.511  16.290  0.5696 -0.2087 -0.8866
10617TIP3    H253267   4.691   4.638  16.209 -0.2573  0.8767  0.5803
10618TIP3   OH253268   3.917   4.784  14.761  0.2801 -0.1165  0.6136
10618TIP3    H153269   3.844   4.753  14.816  0.1191  0.8709  0.9528
10618TIP3    H253270   3.956   4.855  14.811  2.9320 -2.1156  1.5039
10619TIP3   OH253271   6.080   2.657   1.065 -0.3288 -0.5606 -0.2790
10619TIP3    H153272   6.128   2.739   1.056  0.7038 -1.1188 -0.0672
10619TIP3    H253273   6.017   2.657   0.994  1.6870 -0.9151 -2.1238
10620TIP3   OH253274   6.146   6.190  12.816 -0.9027  0.3693  0.1777
10620TIP3    H153275   6.132   6.096  12.822  0.1110  0.2018  0.0591
10620TIP3    H253276   6.123   6.224  12.903 -0.9858 -0.0312  0.3100
10621TIP3   OH253277   4.947   1.935  15.527  0.5982  0.1965  1.0640
10621TIP3    H153278   4.945   2.019  15.480  1.6531 -0.3234  0.0403
10621TIP3    H253279   5.040   1.917  15.537  0.5662 -3.4401 -3.5375
10622TIP3   OH253280   4.133   5.852   0.131  0.0379  0.7347  0.0563
10622TIP3    H153281   4.179   5.852   0.047 -0.6116  1.1913 -0.3039
10622TIP3    H253282   4.070   5.781   0.124  2.2140 -1.4384  1.4228
10623TIP3   OH253283   1.784   0.852  16.446  0.1855 -0.0677  0.2928
10623TIP3    H153284   1.782   0.757  16.454 -0.1720 -0.1098 -0.2957
10623TIP3    H253285   1.799   0.883  16.535 -0.5817 -0.6362  0.6241
10624TIP3   OH253286   2.886   0.590  14.726  0.3674 -0.2070 -0.8280
10624TIP3    H153287   2.915   0.657  14.663 -2.2134  0.2949 -1.5311
10624TIP3    H253288   2.966   0.563  14.771  1.5115  3.1685 -0.7147
10625TIP3   OH253289   3.905   6.119  11.842 -0.0263  0.1808 -0.5961
10625TIP3    H153290   3.917   6.092  11.751 -0.8531  0.2216 -0.7260
10625TIP3    H253291   3.843   6.192  11.838 -1.1079 -0.6661  0.0898
10626TIP3   OH253292   5.805   4.620  14.147 -0.3382 -0.6999  0.1935
10626TIP3    H153293   5.820   4.559  14.220  0.4543 -0.1330  0.5071
10626TIP3    H253294   5.890   4.628  14.104 -0.5645 -0.2258 -0.1665
10627TIP3   OH253295   0.131   5.207  12.891  0.9472 -0.0084  0.3020
10627TIP3    H153296   0.089   5.186  12.974  0.7755 -0.2112  0.1643
10627TIP3    H253297   0.206   5.262  12.915 -0.6458  2.2186  0.3807
10628TIP3   OH253298   3.084   0.328  12.869 -0.5054  0.7340 -0.2450
10628TIP3    H153299   3.034   0.250  12.892  0.2144  0.5341  0.6469
10628TIP3    H253300   3.058   0.347  12.779  0.8584 -1.7818 -1.2452
10629TIP3   OH253301   3.673   0.801   2.832  0.0072  0.0009 -0.0621
10629TIP3    H153302   3.679   0.790   2.927 -1.4853  0.7010  0.1315
10629TIP3    H253303   3.692   0.894   2.818 -2.5538  0.5351 -0.1535
10630TIP3   OH253304   4.889   4.603   3.878 -0.2181  0.3350  0.2743
10630TIP3    H153305   4.891   4.689   3.836 -1.4080  1.0982  1.7572
10630TIP3    H253306   4.907   4.621   3.970  1.2561 -1.2093  0.3166
10631TIP3   OH253307   6.734   6.521   0.104  0.1189 -0.0882  0.7261
10631TIP3    H153308   6.764   6.603   0.143 -0.5499  0.1246  0.8016
10631TIP3    H253309   6.814   6.473   0.085  0.5592  0.9168 -0.0418
10632TIP3   OH253310   1.559   3.735   5.030  0.2440 -0.5439  0.1384
10632TIP3    H153311   1.482   3.791   5.028 -0.5013 -1.6062 -2.3871
10632TIP3    H253312   1.588   3.739   5.121 -2.6845 -0.0175  1.1161
10633TIP3   OH253313   1.306   4.204   4.131  0.2872 -0.0887 -0.1296
10633TIP3    H153314   1.273   4.219   4.042 -0.7784  1.6154  0.5323
10633TIP3    H253315   1.321   4.110   4.135  0.7255 -0.1448 -2.2453
10634TIP3   OH253316   3.741   2.903  11.528  0.0835  0.2380  0.5052
10634TIP3    H153317   3.789   2.974  11.484 -0.1115  0.6151  0.8997
10634TIP3    H253318   3.809   2.843  11.558  0.4665  1.7880  2.8594
10635TIP3   OH253319   0.963   2.364   4.944 -0.1443  0.3940  0.1495
10635TIP3    H153320   1.031   2.423   4.977  0.1734  0.1995 -0.1466
10635TIP3    H253321   0.996   2.336   4.858 -0.1168 -0.5018  0.4485
10636TIP3   OH253322   2.503   3.561  12.982 -0.2459  0.2343 -0.6802
10636TIP3    H153323   2.508   3.649  13.018  0.1302 -0.2051  0.3419
10636TIP3    H253324   2.592   3.542  12.953 -0.0436 -0.3130  0.2964
10637TIP3   OH253325   0.292   1.212  14.832 -0.0846 -0.1329 -0.5254
10637TIP3    H153326   0.229   1.143  14.852 -0.3637  0.6856  1.4685
10637TIP3    H253327   0.346   1.220  14.911  1.9597 -0.2039 -1.8711
10638TIP3   OH253328   3.283   2.668  13.709  0.1350  0.2065  0.2183
10638TIP3    H153329   3.378   2.663  13.708  0.2221  1.5595 -0.0827
10638TIP3    H253330   3.258   2.641  13.797  0.7354 -1.0262  0.0120
10639TIP3   OH253331   5.438   4.223   4.478  0.4961  0.5901 -0.5681
10639TIP3    H153332   5.514   4.209   4.422  0.4779 -1.1995 -0.1705
10639TIP3    H253333   5.448   4.160   4.549 -0.0165  2.1177  0.9050
10640TIP3   OH253334   5.959   3.406   4.867 -0.4788  0.2432  0.1657
10640TIP3    H153335   6.018   3.332   4.878 -2.1745 -1.2203 -0.3352
10640TIP3    H253336   5.910   3.410   4.948 -0.4404  0.7873  0.1647
10641TIP3   OH253337   6.209   6.224  12.107 -0.1315  0.7245 -0.5709
10641TIP3    H153338   6.261   6.218  12.027  0.3085  0.3385 -0.2607
10641TIP3    H253339   6.272   6.209  12.178 -0.3553  1.9102 -0.1028
10642TIP3   OH253340   6.044   3.495   2.759  0.3791  0.3504  0.5424
10642TIP3    H153341   5.958   3.458   2.744  1.2049 -0.7183 -1.7739
10642TIP3    H253342   6.080   3.445   2.833 -0.6973  0.3664  1.0878
10643TIP3   OH253343   1.943   1.104  13.041 -0.1673 -0.7874 -1.0338
10643TIP3    H153344   1.896   1.164  12.984 -1.7045 -2.2739 -1.3665
10643TIP3    H253345   2.005   1.059  12.984  1.0834  0.5371 -0.7598
10644TIP3   OH253346   2.611   4.937   0.381 -0.4338 -0.0599  0.6509
10644TIP3    H153347   2.539   4.993   0.409 -0.7202  0.2214 -0.5994
10644TIP3    H253348   2.679   4.950   0.447 -1.3794 -0.0222  1.6212
10645TIP3   OH253349   6.052   0.184   4.444 -0.1066 -0.1170  0.1651
10645TIP3    H153350   6.091   0.110   4.396 -2.2666 -1.0873 -0.1247
10645TIP3    H253351   6.047   0.254   4.380  0.2030 -0.3114 -0.0735
10646TIP3   OH253352   6.740   6.601  16.525 -0.3242  1.0383  0.2856
10646TIP3    H153353   6.701   6.539  16.587 -0.9516  1.3401  0.2034
10646TIP3    H253354   6.695   6.683  16.542  1.6527  1.8967  1.5012
10647TIP3   OH253355   0.102   3.979   2.030 -0.1520 -0.1990 -0.0125
10647TIP3    H153356   0.195   4.005   2.028 -0.1417 -0.2303  0.0535
10647TIP3    H253357   0.098   3.911   2.098 -0.1481 -0.4944 -0.3098
10648TIP3   OH253358   2.892   5.044  13.195 -0.4999 -0.1619 -0.5852
10648TIP3    H153359   2.826   5.056  13.127 -1.4620  0.5509  0.4616
10648TIP3    H253360   2.847   4.997  13.265 -0.6516  2.4565  1.1665
10649TIP3   OH253361   3.460   5.464  15.639  0.2530  0.0330  0.3820
10649TIP3    H153362   3.369   5.475  15.613  0.7494  2.5906 -0.3595
10649TIP3    H253363   3.509   5.467  15.557  1.0128 -1.7125  0.7364
10650TIP3   OH253364   5.210   2.862  14.767 -0.4255 -0.4515  0.0978
10650TIP3    H153365   5.291   2.812  14.758  0.1666  0.4652  0.3257
10650TIP3    H253366   5.142   2.804  14.731  0.4172 -0.9733 -0.6633
10651TIP3   OH253367   4.901   2.070   3.946  0.3434 -0.3839  0.3885
10651TIP3    H153368   4.850   2.072   3.865  1.1569 -1.4656 -0.1643
10651TIP3    H253369   4.906   1.977   3.969  2.5263 -0.3577  0.1180
10652TIP3   OH253370   6.616   1.065   3.436  0.2719  0.1513 -0.6435
10652TIP3    H153371   6.555   1.006   3.393  1.5184 -1.4205 -0.3035
10652TIP3    H253372   6.561   1.128   3.482 -1.0673 -0.0094 -2.0062
10653TIP3   OH253373   6.414   1.477   3.064  0.0069  0.0766  0.5828
10653TIP3    H153374   6.355   1.470   3.139 -2.7300 -0.4033 -1.5143
10653TIP3    H253375   6.501   1.485   3.102 -1.0317 -2.7743  3.7721
10654TIP3   OH253376   6.514   0.698  14.354 -0.1675 -0.1119 -0.4821
10654TIP3    H153377   6.469   0.767  14.304 -2.6055 -1.1592  0.1806
10654TIP3    H253378   6.551   0.640  14.288  1.4535  1.5090 -1.0497
10655TIP3   OH253379   1.270   6.376  10.671 -0.5325 -1.2378  0.1991
10655TIP3    H153380   1.196   6.398  10.616 -0.3374 -2.3103 -0.4894
10655TIP3    H253381   1.264   6.282  10.685  0.0416 -1.1562  1.1071
10656TIP3   OH253382   1.701   2.240  16.992  0.0710  0.1690 -0.4779
10656TIP3    H153383   1.610   2.256  17.017 -0.3290 -2.0096 -0.3806
10656TIP3    H253384   1.704   2.263  16.899 -0.9893 -1.1641 -0.8679
10657TIP3   OH253385   5.436   4.187   1.410 -0.0406  0.5779  0.0258
10657TIP3    H153386   5.359   4.215   1.459 -0.8003 -0.0578 -0.7980
10657TIP3    H253387   5.406   4.114   1.357  0.8930  0.9660 -1.0620
10658TIP3   OH253388   4.812   1.422  14.927  0.2489 -0.4710 -1.0297
10658TIP3    H153389   4.839   1.504  14.885 -0.4085  0.3272  0.0977
10658TIP3    H253390   4.808   1.442  15.020  0.6366 -1.9527 -0.6727
10659TIP3   OH253391   4.536   6.596   4.670 -0.0470 -0.3443 -0.3125
10659TIP3    H153392   4.476   6.608   4.597 -1.0676  0.5474  0.6494
10659TIP3    H253393   4.525   6.675   4.724 -0.7009 -1.8168  1.7816
10660TIP3   OH253394   1.631   3.231   2.392  0.6373  0.3674  0.0652
10660TIP3    H153395   1.629   3.139   2.365  2.8044  0.0863  0.7790
10660TIP3    H253396   1.639   3.280   2.310  0.5882 -0.1363 -0.2423
10661TIP3   OH253397   1.531   5.213  14.819  0.3203 -0.4486 -0.2849
10661TIP3    H153398   1.583   5.194  14.897  0.6955  1.7407  0.0184
10661TIP3    H253399   1.593   5.253  14.758 -0.7036  0.8791 -0.4579
10662TIP3   OH253400   3.901   4.978  15.696 -0.8872 -0.1165 -0.1659
10662TIP3    H153401   3.899   5.054  15.638 -0.2999  0.2624  0.3065
10662TIP3    H253402   3.863   4.907  15.644 -0.9252  0.3642 -0.7984
10663TIP3   OH253403   1.483   3.160   4.890 -0.1960  0.6174 -0.4457
10663TIP3    H153404   1.525   3.077   4.911  0.1988  0.1718 -2.8358
10663TIP3    H253405   1.555   3.223   4.886 -0.4343  0.9907  0.8490
10664TIP3   OH253406   1.231   3.208  12.357  0.1138  0.9901  0.0332
10664TIP3    H153407   1.246   3.302  12.366 -0.9747  1.1194  0.5217
10664TIP3    H253408   1.317   3.169  12.371  0.4760  1.8840  0.3357
10665TIP3   OH253409   5.118   3.798   2.101 -0.6487  0.9837 -0.0452
10665TIP3    H153410   5.130   3.830   2.012  0.8906 -1.1081 -0.6235
10665TIP3    H253411   5.172   3.855   2.155  1.0048  0.2560 -0.8867
10666TIP3   OH253412   3.792   4.385   2.851 -0.2530  0.3801 -0.3708
10666TIP3    H153413   3.874   4.373   2.899  0.0485 -0.3782 -1.0660
10666TIP3    H253414   3.727   4.404   2.919  0.4334  0.6832  0.2104
10667TIP3   OH253415   3.227   2.996   4.466  0.2855 -0.2070  0.2577
10667TIP3    H153416   3.241   2.910   4.429  1.4421  0.3151 -0.5419
10667TIP3    H253417   3.253   3.057   4.397  0.2399  0.7771  1.0904
10668TIP3   OH253418   3.660   0.326  12.979  0.7316  0.4290 -0.0214
10668TIP3    H153419   3.698   0.296  13.062 -0.5137  2.0717  1.1933
10668TIP3    H253420   3.591   0.264  12.960  0.1997  0.7507  0.8406
10669TIP3   OH253421   6.105   2.517   3.957 -0.1182 -0.4163  0.1208
10669TIP3    H153422   6.036   2.581   3.937 -0.1058 -0.1942  0.7834
10669TIP3    H253423   6.181   2.570   3.980  0.3354 -0.6631 -0.7975
10670TIP3   OH253424   0.261   1.840  14.971  0.0341 -0.2640 -0.5285
10670TIP3    H153425   0.190   1.786  15.007  0.2308 -0.1415  0.0532
10670TIP3    H253426   0.245   1.841  14.877 -1.5528  0.9235 -0.2604
10671TIP3   OH253427   5.127   3.544  13.469 -0.0313  0.9036 -0.4236
10671TIP3    H153428   5.124   3.504  13.556 -1.7954  0.9768 -0.4286
10671TIP3    H253429   5.133   3.638  13.486 -0.9151  0.9543 -0.3659
10672TIP3   OH253430   4.997   4.401   4.518  0.0492 -0.3490  0.0457
10672TIP3    H153431   5.053   4.370   4.589  1.1492 -0.5147 -0.8728
10672TIP3    H253432   4.923   4.339   4.517 -0.0314 -0.2770  1.1054
10673TIP3   OH253433   0.790   5.306   0.079  0.0911 -0.0919 -0.1612
10673TIP3    H153434   0.748   5.220   0.075  0.4588 -0.2145 -1.4779
10673TIP3    H253435   0.845   5.302   0.157  0.9066 -1.4349 -0.7809
10674TIP3   OH253436   1.227   0.349   1.737  0.2889  0.1835 -0.4563
10674TIP3    H153437   1.222   0.275   1.798  0.0120  0.8353  0.3215
10674TIP3    H253438   1.165   0.413   1.772 -0.7271  0.1067 -2.0571
10675TIP3   OH253439   2.054   4.189  16.066 -0.4365 -0.3657  0.0038
10675TIP3    H153440   2.027   4.098  16.079 -1.8033  0.1586  0.9682
10675TIP3    H253441   2.039   4.230  16.151  1.6709  0.3958  0.0172
10676TIP3   OH253442   2.830   0.932  14.331 -0.1327  0.4211 -0.0061
10676TIP3    H153443   2.774   0.893  14.264  0.0604 -0.0547  0.1048
10676TIP3    H253444   2.782   0.918  14.413  0.4162 -0.5202  0.1644
10677TIP3   OH253445   4.185   0.759   0.647  0.4826 -0.3211 -0.0587
10677TIP3    H153446   4.146   0.838   0.685  0.6392 -0.4543  0.3867
10677TIP3    H253447   4.209   0.706   0.723  1.0710 -0.4583 -0.3390
10678TIP3   OH253448   4.247   1.002  11.122  0.2359 -0.0667 -0.1124
10678TIP3    H153449   4.181   1.071  11.122  1.8935  1.5839  1.6976
10678TIP3    H253450   4.329   1.046  11.098  1.2969 -1.3870  0.9424
10679TIP3   OH253451   2.216   6.713  17.162  0.1145 -0.1959  0.2914
10679TIP3    H153452   2.292   6.739  17.110  0.6478  0.2152  1.2738
10679TIP3    H253453   2.181   6.795  17.196 -0.1034 -0.4775  0.7546
10680TIP3   OH253454   1.814   4.183   1.880 -0.5169  0.1030 -0.0257
10680TIP3    H153455   1.840   4.275   1.875 -0.0109 -0.0698 -0.5789
10680TIP3    H253456   1.852   4.143   1.802  0.3295 -0.8298  0.8552
10681TIP3   OH253457   6.294   6.725   0.119 -0.4596  0.1455 -0.2013
10681TIP3    H153458   6.345   6.645   0.112  0.0104  0.4605 -0.4190
10681TIP3    H253459   6.223   6.715   0.056  0.2646  0.3919 -1.0661
10682TIP3   OH253460   0.425   4.378   2.988 -0.0253  0.3230  0.3034
10682TIP3    H153461   0.390   4.438   2.922  0.6928 -0.3756 -0.7299
10682TIP3    H253462   0.363   4.304   2.989  1.2309 -0.8042 -1.3592
10683TIP3   OH253463   5.210   1.380   6.078  0.2956 -0.3961  0.1163
10683TIP3    H153464   5.224   1.295   6.120  0.2383 -0.2889  0.3540
10683TIP3    H253465   5.291   1.396   6.030  0.7224 -0.1016  0.9174
10684TIP3   OH253466   3.315   6.036   0.996 -0.5433 -0.0680 -0.0500
10684TIP3    H153467   3.246   6.037   0.929 -0.4730  1.0428 -0.1202
10684TIP3    H253468   3.298   6.115   1.048 -0.1632 -0.5408  0.8033
10685TIP3   OH253469   3.306   6.163  15.869 -0.1736 -0.6313 -0.6283
10685TIP3    H153470   3.241   6.200  15.809 -0.8542 -0.7644  0.0231
10685TIP3    H253471   3.275   6.187  15.956  0.0421 -1.6693 -0.2559
10686TIP3   OH253472   3.264   0.811   2.607  0.2322  0.1681  0.1091
10686TIP3    H153473   3.274   0.831   2.514 -0.1593  0.3582  0.1043
10686TIP3    H253474   3.347   0.772   2.633  0.6838  0.9647 -0.1065
10687TIP3   OH253475   3.285   0.820  17.214 -0.6234 -0.1770 -0.9063
10687TIP3    H153476   3.201   0.787  17.181 -0.2436 -0.4817 -1.5660
10687TIP3    H253477   3.351   0.764  17.174 -0.0453  0.5935 -1.0580
10688TIP3   OH253478   2.966   5.802   2.902 -0.3313  0.2201  0.1659
10688TIP3    H153479   2.967   5.730   2.964  0.4547  0.7787  0.8082
10688TIP3    H253480   3.055   5.805   2.867 -0.1263  1.4147  0.7699
10689TIP3   OH253481   2.854   1.232  13.931  0.3853 -0.1691  0.0337
10689TIP3    H153482   2.870   1.139  13.944 -0.5714 -0.4409 -0.6723
10689TIP3    H253483   2.913   1.257  13.860  1.3803 -0.0052  0.9176
10690TIP3   OH253484   0.427   3.175  14.417 -0.4860  0.0872  0.0612
10690TIP3    H153485   0.387   3.256  14.385 -1.8904 -0.9356 -0.8683
10690TIP3    H253486   0.465   3.134  14.339  0.3199 -0.0826  0.5408
10691TIP3   OH253487   3.244   0.293  16.072 -0.4664  0.1878 -0.0602
10691TIP3    H153488   3.315   0.258  16.124 -0.7854 -0.1547  0.1445
10691TIP3    H253489   3.166   0.246  16.102 -0.7357  0.3673 -0.4706
10692TIP3   OH253490   0.437   0.210   3.246 -0.4120  0.1845  0.4678
10692TIP3    H153491   0.432   0.152   3.322  0.2216  0.0451  0.4065
10692TIP3    H253492   0.346   0.231   3.226 -0.5521  0.6681  1.6041
10693TIP3   OH253493   4.075   6.361   1.348 -0.0854  0.4966  0.4238
10693TIP3    H153494   3.984   6.358   1.379 -0.3757  0.1036 -0.4534
10693TIP3    H253495   4.076   6.303   1.272  0.8601  0.6608  0.3084
10694TIP3   OH253496   0.243   2.577  14.293 -0.0930 -0.3204 -0.3497
10694TIP3    H153497   0.151   2.583  14.318 -0.5508 -0.8479 -1.8111
10694TIP3    H253498   0.285   2.651  14.337 -1.4822  0.7577 -0.7840
10695TIP3   OH253499   3.832   2.331  12.593  0.0021  0.2931 -0.0794
10695TIP3    H153500   3.880   2.384  12.657  2.2479 -2.3051  0.5127
10695TIP3    H253501   3.824   2.245  12.635 -2.3802 -0.2431 -1.5259
10696TIP3   OH253502   4.034   4.755  12.537 -0.4623  0.6626 -0.3535
10696TIP3    H153503   4.051   4.755  12.443  0.6400  2.2565 -0.1840
10696TIP3    H253504   4.110   4.710  12.575 -1.2214 -0.5685 -0.2555
10697TIP3   OH253505   5.222   6.376  14.971  0.9893 -0.3467  0.4915
10697TIP3    H153506   5.204   6.282  14.977  0.4761 -0.1469  2.7084
10697TIP3    H253507   5.315   6.384  14.995  0.6638 -0.1688  1.7310
10698TIP3   OH253508   5.883   2.365  12.290 -0.0547  0.2227 -0.2859
10698TIP3    H153509   5.962   2.376  12.237  1.5629 -0.3463  1.9347
10698TIP3    H253510   5.868   2.270  12.292 -1.4736  0.3945 -1.6103
10699TIP3   OH253511   2.525   3.334   5.160  0.1959 -0.0408  0.1663
10699TIP3    H153512   2.618   3.353   5.145 -0.0649  0.1558 -1.2947
10699TIP3    H253513   2.484   3.421   5.166 -0.0810 -0.1288 -0.4464
10700TIP3   OH253514   0.931   0.417  16.044 -0.5167  0.1336  0.0565
10700TIP3    H153515   0.998   0.421  15.975 -0.5427 -0.5829 -0.0161
10700TIP3    H253516   0.957   0.343  16.098  0.3456  1.6008  1.7064
10701TIP3   OH253517   2.199   4.648  14.940 -0.0843  0.1398 -0.1365
10701TIP3    H153518   2.184   4.728  14.990 -0.4977  0.5395 -0.8754
10701TIP3    H253519   2.111   4.613  14.924  0.0617 -0.1623 -0.2974
10702TIP3   OH253520   5.864   2.530  10.628 -0.1961 -0.2972 -0.3154
10702TIP3    H153521   5.936   2.572  10.583  0.6885  0.5716  1.8228
10702TIP3    H253522   5.787   2.582  10.606  0.0401 -0.4842 -1.5937
10703TIP3   OH253523   1.042   4.408  14.641  0.1677  0.0553  0.5917
10703TIP3    H153524   1.041   4.485  14.585  3.1961 -1.0821 -1.1263
10703TIP3    H253525   1.092   4.435  14.719 -0.1881  0.3043  0.7354
10704TIP3   OH253526   0.781   2.541   1.878 -0.0317  0.1964  0.1134
10704TIP3    H153527   0.870   2.521   1.850 -0.4878  0.5696 -1.7004
10704TIP3    H253528   0.737   2.456   1.880 -1.2058  0.5125 -4.8537
10705TIP3   OH253529   1.293   5.825   4.679  0.4762  0.0352  0.2964
10705TIP3    H153530   1.269   5.738   4.712 -0.2186  0.1573  0.1198
10705TIP3    H253531   1.322   5.872   4.757  0.7713 -0.3298  0.4078
10706TIP3   OH253532   2.241   4.333  15.561  0.0158  0.4439 -0.2948
10706TIP3    H153533   2.246   4.403  15.626  1.2227  0.5725 -0.5245
10706TIP3    H253534   2.264   4.253  15.609 -1.1301  0.2217 -0.0882
10707TIP3   OH253535   1.384   5.753  17.033  0.2225 -0.4681 -0.3596
10707TIP3    H153536   1.338   5.823  17.080  1.5946  0.0305  0.2465
10707TIP3    H253537   1.388   5.681  17.096 -0.2903 -0.7401 -0.6337
10708TIP3   OH253538   0.600   6.327  13.521 -0.0095  0.1717 -0.4874
10708TIP3    H153539   0.513   6.363  13.536  0.3953  1.1874 -0.5768
10708TIP3    H253540   0.585   6.233  13.508 -1.3000  0.6077 -2.3988
10709TIP3   OH253541   4.375   3.944  13.108 -0.9870  0.0854  0.3934
10709TIP3    H153542   4.294   3.961  13.060  0.1891  0.8198 -1.3629
10709TIP3    H253543   4.420   3.878  13.055  1.0668  2.0849 -0.4102
10710TIP3   OH253544   4.852   3.149  15.579  0.2394 -0.0930 -0.3603
10710TIP3    H153545   4.854   3.206  15.656 -0.6035 -0.0025 -0.3983
10710TIP3    H253546   4.893   3.068  15.608 -2.2556 -0.9751  0.9459
10711TIP3   OH253547   5.629   0.880  16.303 -0.0828  0.3855  0.1684
10711TIP3    H153548   5.631   0.945  16.373 -0.1208 -0.8893  1.3632
10711TIP3    H253549   5.656   0.798  16.345  1.5951 -0.0614 -1.6795
10712TIP3   OH253550   0.513   1.886   1.287 -0.1781 -0.0380  1.0638
10712TIP3    H153551   0.434   1.939   1.284 -0.1518  0.0116  1.3027
10712TIP3    H253552   0.584   1.948   1.271 -0.4027 -0.5573 -2.3761
10713TIP3   OH253553   6.161   2.839   4.341 -0.0188  0.3625 -0.1685
10713TIP3    H153554   6.211   2.918   4.363 -0.9357  1.2430 -1.2141
10713TIP3    H253555   6.077   2.851   4.385 -0.4936  0.3912 -1.0819
10714TIP3   OH253556   1.233   1.748  11.165 -0.0766  0.3956  0.3012
10714TIP3    H153557   1.297   1.745  11.094  0.3939 -1.3040  0.7789
10714TIP3    H253558   1.279   1.710  11.240 -1.4094 -0.1964  0.8288
10715TIP3   OH253559   6.043   0.980   4.048 -0.2795 -0.0955 -0.5082
10715TIP3    H153560   6.000   0.949   3.968 -3.1997 -0.2397  1.0204
10715TIP3    H253561   5.981   1.044   4.085 -0.3852 -2.0893  3.0355
10716TIP3   OH253562   6.666   0.493  13.745 -0.0958  0.1326 -0.2736
10716TIP3    H153563   6.706   0.556  13.805  2.1614 -0.3119 -1.2598
10716TIP3    H253564   6.688   0.525  13.658 -1.5099 -0.3992 -0.8401
10717TIP3   OH253565   1.439   1.373  16.882  0.1137  0.7506 -0.2841
10717TIP3    H153566   1.407   1.286  16.858  1.1928  0.3620 -0.3429
10717TIP3    H253567   1.463   1.413  16.798 -0.3781  1.1057 -0.2578
10718TIP3   OH253568   6.621   0.572   3.893  0.1918 -0.0933 -0.0804
10718TIP3    H153569   6.655   0.490   3.859 -1.7218 -1.8475  2.0877
10718TIP3    H253570   6.545   0.592   3.837  0.9462  0.4853 -0.9145
10719TIP3   OH253571   1.494   3.564   3.954  0.0059  0.1756  0.3417
10719TIP3    H153572   1.564   3.624   3.980  2.1303 -1.8918 -0.5294
10719TIP3    H253573   1.504   3.554   3.860 -1.2471 -0.4265  0.2644
10720TIP3   OH253574   4.564   2.356  10.880  0.1382 -0.2367  0.3530
10720TIP3    H153575   4.515   2.382  10.802 -0.7561  0.4894  1.1507
10720TIP3    H253576   4.498   2.334  10.945  0.8542  0.3985  1.3200
10721TIP3   OH253577   0.916   2.868   4.643  0.2383 -0.3252  0.1686
10721TIP3    H153578   0.924   2.963   4.655 -1.3680 -0.3472  1.5271
10721TIP3    H253579   0.871   2.859   4.559  2.7816  0.0148 -1.3151
10722TIP3   OH253580   1.688   0.571  15.842 -0.3834  0.6279  0.1020
10722TIP3    H153581   1.650   0.653  15.872  0.7343  1.4457 -0.6836
10722TIP3    H253582   1.752   0.548  15.909  0.0017  0.9090 -0.1685
10723TIP3   OH253583   3.792   5.297  16.965  0.1192 -0.1193 -0.1382
10723TIP3    H153584   3.787   5.311  17.059  0.2462 -0.5814 -0.0602
10723TIP3    H253585   3.863   5.355  16.935 -2.1680  2.6057 -0.4870
10724TIP3   OH253586   6.762   4.098  16.313  0.0898  0.4010 -0.2305
10724TIP3    H153587   6.678   4.112  16.356 -1.7431  1.2686 -3.9197
10724TIP3    H253588   6.762   4.005  16.290 -0.3318  0.6429 -1.2006
10725TIP3   OH253589   0.478   1.660   1.918  0.1502  0.3168  0.3537
10725TIP3    H153590   0.433   1.699   1.843 -1.9054 -1.8391  0.4065
10725TIP3    H253591   0.425   1.685   1.994  1.7190  1.7284  1.0298
10726TIP3   OH253592   4.638   6.502  15.601  0.0488  0.0488  0.2892
10726TIP3    H153593   4.730   6.492  15.623  0.2008 -1.5675 -1.0275
10726TIP3    H253594   4.633   6.587  15.557  1.2508 -0.6734 -1.2840
10727TIP3   OH253595   3.789   0.324  14.910  0.0328  0.0005 -0.6177
10727TIP3    H153596   3.754   0.251  14.859  0.0391 -0.3646 -0.1054
10727TIP3    H253597   3.748   0.401  14.873 -0.1140 -0.2839 -1.0481
10728TIP3   OH253598   0.063   6.646  13.179 -0.5178 -0.3743 -0.6180
10728TIP3    H153599   0.083   6.553  13.193  0.5166 -0.2234 -1.0816
10728TIP3    H253600  -0.026   6.656  13.211 -0.3117 -1.3381  0.2654
10729TIP3   OH253601   0.135   2.363  13.374  0.2188  0.5760 -0.2293
10729TIP3    H153602   0.064   2.347  13.436  1.7411 -0.0231  1.3857
10729TIP3    H253603   0.143   2.459  13.371 -0.2736  0.6283  0.0128
10730TIP3   OH253604   5.470   3.872   6.868  0.2009 -0.3779 -0.1110
10730TIP3    H153605   5.511   3.790   6.838  1.1716  0.0656  0.0113
10730TIP3    H253606   5.533   3.910   6.928  0.0917  0.8576 -0.7678
10731TIP3   OH253607   3.105   1.209   6.098  0.2140 -0.1687 -0.6339
10731TIP3    H153608   3.091   1.142   6.031  0.3361 -1.8065  0.9266
10731TIP3    H253609   3.180   1.259   6.066  1.1173 -1.7622 -1.1042
10732TIP3   OH253610   2.904   6.717   2.856 -0.2232  0.0502  0.0600
10732TIP3    H153611   2.841   6.655   2.893  0.4525 -0.2377  0.7512
10732TIP3    H253612   2.980   6.664   2.836  0.7108  0.7963  1.5267
10733TIP3   OH253613   3.738   4.459  14.290  0.6926  0.5288 -0.0847
10733TIP3    H153614   3.731   4.389  14.224  2.3510  0.4467 -0.1985
10733TIP3    H253615   3.793   4.525  14.248  0.7931  0.9928  0.7822
10734TIP3   OH253616   4.051   2.429   4.924 -0.2816  0.0430 -0.3690
10734TIP3    H153617   4.011   2.516   4.920 -1.3328 -0.4844 -2.2851
10734TIP3    H253618   4.059   2.411   5.017 -3.3348  0.7606  0.1041
10735TIP3   OH253619   5.404   6.709  11.275 -0.0605 -0.4369 -0.1113
10735TIP3    H153620   5.480   6.654  11.257  0.7765  0.6324  0.0677
10735TIP3    H253621   5.431   6.797  11.247 -0.8982  0.1267  0.7913
10736TIP3   OH253622   5.014   6.149   3.027  0.4507 -0.2403  0.3024
10736TIP3    H153623   4.993   6.188   2.942 -0.4268 -0.5447  0.3749
10736TIP3    H253624   4.933   6.106   3.055  0.6628  0.0449  1.3984
10737TIP3   OH253625   4.774   2.546   0.213 -0.0310  0.1227 -0.7980
10737TIP3    H153626   4.775   2.452   0.231  0.3468  0.4947  1.1449
10737TIP3    H253627   4.852   2.561   0.160  1.2193 -0.2580  0.9261
10738TIP3   OH253628   2.305   3.698  16.289  0.2920 -0.0076 -1.1003
10738TIP3    H153629   2.304   3.613  16.332  0.2487  1.0601  1.0675
10738TIP3    H253630   2.398   3.721  16.282  0.2339  0.6424  0.1304
10739TIP3   OH253631   2.866   0.558  13.709  0.0455 -0.2014 -0.1507
10739TIP3    H153632   2.782   0.512  13.717 -1.6770  2.6828 -0.7584
10739TIP3    H253633   2.879   0.567  13.615 -0.8725  2.5470 -0.0775
10740TIP3   OH253634   4.110   3.287   0.025 -0.2236 -0.9596  0.6370
10740TIP3    H153635   4.103   3.253   0.115  0.3671  0.2794  1.1694
10740TIP3    H253636   4.177   3.355   0.031  1.7426 -2.6765 -1.3175
10741TIP3   OH253637   1.012   1.969  12.151 -0.5320 -0.0764  0.2058
10741TIP3    H153638   1.033   2.057  12.180  0.0287 -0.5256  1.1876
10741TIP3    H253639   1.086   1.916  12.180 -1.0646 -0.9404 -0.0036
10742TIP3   OH253640   4.157   4.922   2.591 -0.4865  0.0189 -0.3831
10742TIP3    H153641   4.194   4.838   2.562 -1.5637  0.0679 -1.9504
10742TIP3    H253642   4.119   4.960   2.512  1.0307  2.5463  0.0645
10743TIP3   OH253643   4.419   5.675  14.899  0.0612  0.3639 -0.0004
10743TIP3    H153644   4.450   5.730  14.827  0.4551  0.4504  0.2364
10743TIP3    H253645   4.496   5.624  14.925 -0.7000 -1.5676 -1.3711
10744TIP3   OH253646   1.911   3.357  11.334  0.1732 -0.3069 -0.2379
10744TIP3    H153647   1.923   3.434  11.390 -0.6012  0.2719 -0.8642
10744TIP3    H253648   1.991   3.306  11.347  0.7970  0.7119  0.0131
10745TIP3   OH253649   1.197   5.669  11.721  0.2911  0.3258  0.0478
10745TIP3    H153650   1.154   5.689  11.805  0.6067  0.8839  0.0807
10745TIP3    H253651   1.126   5.637  11.665  0.0126  0.2916  0.4204
10746TIP3   OH253652   6.717   3.681  15.957  0.2003 -0.8562 -0.1702
10746TIP3    H153653   6.785   3.730  16.004 -0.2697 -1.8281  1.5633
10746TIP3    H253654   6.757   3.597  15.936 -0.1092 -1.0286 -0.0803
10747TIP3   OH253655   3.974   0.543  13.606 -0.2465 -0.0787  0.1010
10747TIP3    H153656   3.910   0.508  13.668  0.0138 -0.2865  0.2506
10747TIP3    H253657   4.034   0.471  13.589 -0.0476  0.1182 -0.0384
10748TIP3   OH253658   4.815   3.869   1.754 -0.0560 -0.1519 -0.1553
10748TIP3    H153659   4.807   3.836   1.665 -1.3878  1.6326 -0.7214
10748TIP3    H253660   4.908   3.856   1.776  0.4918  0.2234 -2.1245
10749TIP3   OH253661   5.486   1.430   2.041  0.5245 -0.4477 -0.4166
10749TIP3    H153662   5.396   1.457   2.058  0.0718 -2.5022  0.6574
10749TIP3    H253663   5.487   1.407   1.948 -0.0684 -0.4656 -0.4198
10750TIP3   OH253664   2.128   4.034  11.181  0.1886  0.5034  0.0136
10750TIP3    H153665   2.039   4.070  11.182 -0.3925 -0.8212 -1.4159
10750TIP3    H253666   2.167   4.070  11.100  0.9280  0.9926  0.5768
10751TIP3   OH253667   2.759   2.344  13.777  0.0016 -0.0203  0.0027
10751TIP3    H153668   2.796   2.257  13.788 -1.2807 -0.7742 -1.4805
10751TIP3    H253669   2.667   2.329  13.754 -0.9669  1.7745  2.4107
10752TIP3   OH253670   2.602   3.281   2.644 -0.1268  0.1832 -0.2241
10752TIP3    H153671   2.516   3.251   2.615 -0.3723  1.7726 -1.1950
10752TIP3    H253672   2.594   3.377   2.647  1.4233  0.3070  0.2726
10753TIP3   OH253673   5.043   4.594   0.119  0.3043 -0.0772 -0.7102
10753TIP3    H153674   5.040   4.499   0.128 -0.4216  0.0180  0.1619
10753TIP3    H253675   4.956   4.619   0.090  0.2424  0.3943 -0.1440
10754TIP3   OH253676   4.913   4.534  13.368 -1.1925  0.0332 -0.1726
10754TIP3    H153677   4.936   4.454  13.414 -0.4630  0.0396 -0.5203
10754TIP3    H253678   4.875   4.590  13.436 -0.8815 -0.2682  0.2548
10755TIP3   OH253679   5.195   4.718  16.447 -0.2645  0.1611  0.1810
10755TIP3    H153680   5.156   4.635  16.419  1.3141 -0.4129 -0.3832
10755TIP3    H253681   5.207   4.709  16.541  1.0526 -0.7617 -0.0583
10756TIP3   OH253682   6.627   3.497  11.974  0.4334  0.1142 -0.2916
10756TIP3    H153683   6.710   3.451  11.978  0.5251  0.3157  0.1089
10756TIP3    H253684   6.575   3.460  12.045 -0.1472 -0.6440 -1.0990
10757TIP3   OH253685   3.415   5.918   1.309 -0.4418  0.0372  0.2320
10757TIP3    H153686   3.460   5.864   1.374  0.3236 -0.2030 -0.4921
10757TIP3    H253687   3.360   5.856   1.261  0.1755 -0.0484 -0.3711
10758TIP3   OH253688   2.943   3.428  15.235 -0.5936  0.1239  0.1844
10758TIP3    H153689   2.862   3.478  15.224 -1.5383 -0.7984  2.5250
10758TIP3    H253690   2.945   3.369  15.160 -0.3490  2.4440 -1.6904
10759TIP3   OH253691   5.458   4.433  14.152 -0.3079 -0.5756  0.1861
10759TIP3    H153692   5.416   4.517  14.172  1.0864  0.3289 -0.5100
10759TIP3    H253693   5.452   4.426  14.057  3.3486  0.8798 -0.2508
10760TIP3   OH253694   2.704   3.753   2.862  0.3341 -1.0098 -0.0290
10760TIP3    H153695   2.730   3.678   2.915  0.0370  0.5716  2.4337
10760TIP3    H253696   2.787   3.797   2.842  0.3399 -0.9415  0.1444
10761TIP3   OH253697   2.087   1.362   3.107 -0.4257  0.1824 -0.5038
10761TIP3    H153698   2.019   1.297   3.090  1.8030 -2.0469 -1.1839
10761TIP3    H253699   2.102   1.357   3.202 -0.1105 -0.4759 -0.5840
10762TIP3   OH253700   3.818   5.796   3.606 -0.1077  0.6424 -0.6969
10762TIP3    H153701   3.904   5.821   3.638  0.4408 -0.4805 -1.2815
10762TIP3    H253702   3.820   5.701   3.602 -0.8294  0.6754 -2.1759
10763TIP3   OH253703   3.537   0.582  12.743 -0.6088  0.3670 -0.0586
10763TIP3    H153704   3.540   0.577  12.647  1.0469 -2.7753  0.1076
10763TIP3    H253705   3.498   0.499  12.770 -1.8398  1.5780  1.9847
10764TIP3   OH253706   3.323   2.881   0.138  0.5063 -0.0177  0.0346
10764TIP3    H153707   3.345   2.798   0.095  1.7592  0.8163 -0.9457
10764TIP3    H253708   3.227   2.881   0.141  0.4717 -1.1055 -0.7545
10765TIP3   OH253709   5.059   2.645  14.657  0.6387  0.1144 -0.1410
10765TIP3    H153710   5.099   2.577  14.711 -0.2176 -1.5524 -1.5596
10765TIP3    H253711   5.095   2.631  14.570 -0.2246  0.9224 -0.6339
10766TIP3   OH253712   5.011   5.929   1.156  0.2336 -0.0177 -0.2083
10766TIP3    H153713   4.973   5.871   1.090  1.4754  0.4678 -1.3595
10766TIP3    H253714   5.100   5.895   1.170  0.7656  1.2361 -0.4559
10767TIP3   OH253715   0.498   1.738  11.448 -0.1292  0.1776 -0.2596
10767TIP3    H153716   0.506   1.662  11.389 -0.9651 -0.2214  0.1433
10767TIP3    H253717   0.574   1.731  11.505  0.7014  0.5724 -1.2929
10768TIP3   OH253718   4.442   6.720   5.998  0.1914  0.0059  0.1020
10768TIP3    H153719   4.470   6.645   5.947  0.5927 -2.2594  3.5011
10768TIP3    H253720   4.522   6.756   6.036 -0.3269  0.0880  1.1619
10769TIP3   OH253721   6.216   1.447  14.415 -0.3636 -0.7395  0.5030
10769TIP3    H153722   6.123   1.426  14.424 -0.8675  1.1213 -0.2606
10769TIP3    H253723   6.231   1.518  14.476  0.0324  0.5165 -1.0222
10770TIP3   OH253724   0.168   5.155  11.239 -0.9044 -0.2459  0.0338
10770TIP3    H153725   0.256   5.134  11.207 -0.5466 -0.5052  1.1308
10770TIP3    H253726   0.140   5.229  11.186  0.0420 -0.0765 -0.2485
10771TIP3   OH253727   3.549   6.134  14.963 -0.4062  0.5505  0.6809
10771TIP3    H153728   3.464   6.165  14.934  0.2399  0.9835 -0.7960
10771TIP3    H253729   3.578   6.075  14.894  1.3829  2.0056  0.1243
10772TIP3   OH253730   6.065   5.823   2.592  0.8255  0.7224  0.0070
10772TIP3    H153731   6.120   5.746   2.608 -0.3578 -0.3296 -0.9223
10772TIP3    H253732   5.985   5.788   2.554 -0.4732  2.2612  1.2732
10773TIP3   OH253733   6.607   1.577  14.031 -0.0068  0.1019  0.1514
10773TIP3    H153734   6.536   1.576  14.094  0.1617 -0.2661  0.3338
10773TIP3    H253735   6.568   1.611  13.950 -0.9652 -2.3686 -0.4613
10774TIP3   OH253736   5.946   2.087   1.862  0.2273  0.2371  0.3885
10774TIP3    H153737   5.878   2.040   1.910  0.3162 -0.8031 -0.4953
10774TIP3    H253738   5.930   2.065   1.770  0.3121  1.8804 -0.0335
10775TIP3   OH253739   1.011   6.376   1.011 -0.4350 -0.0681  0.2479
10775TIP3    H153740   0.931   6.426   1.024 -0.2321 -0.3975  2.9086
10775TIP3    H253741   1.003   6.301   1.070  1.2136 -0.8793 -0.4994
10776TIP3   OH253742   4.735   2.944  11.542 -0.4284  0.0471  0.4094
10776TIP3    H153743   4.784   2.862  11.530 -0.0701  0.4293 -0.7977
10776TIP3    H253744   4.698   2.962  11.456 -0.1856  1.3607  0.5780
10777TIP3   OH253745   3.020   6.707  12.488 -0.4769  0.2156  1.1410
10777TIP3    H153746   3.109   6.743  12.493  0.1888 -1.4766  1.6737
10777TIP3    H253747   3.029   6.617  12.520 -1.7610 -1.0759 -1.9696
10778TIP3   OH253748   6.417   6.595  13.997  0.1252  0.2617  0.4237
10778TIP3    H153749   6.429   6.577  13.904  0.6335  0.8145  0.3791
10778TIP3    H253750   6.415   6.509  14.038 -0.7901 -0.0161 -0.1737
10779TIP3   OH253751   5.879   2.410   5.389 -0.6439  0.1006 -0.2132
10779TIP3    H153752   5.937   2.383   5.318  0.9047  0.9136  0.7070
10779TIP3    H253753   5.935   2.408   5.467 -2.6193 -1.9887  1.2175
10780TIP3   OH253754   4.087   4.154  12.937  0.1820  0.5364 -0.1437
10780TIP3    H153755   4.097   4.155  13.032  1.0351 -1.3537 -0.1997
10780TIP3    H253756   4.064   4.064  12.915 -0.4410  1.0488 -1.6882
10781TIP3   OH253757   4.411   1.537   0.796 -0.3342  0.2910 -0.1332
10781TIP3    H153758   4.447   1.466   0.743 -0.7709 -0.8149  1.0280
10781TIP3    H253759   4.366   1.493   0.868 -0.8310  1.7428  0.4660
10782TIP3   OH253760   3.299   1.340  14.112  0.0579  0.4570 -0.4434
10782TIP3    H153761   3.270   1.352  14.022 -2.7654 -0.6425  0.2468
10782TIP3    H253762   3.223   1.363  14.165  1.9470  1.9511  1.7216
10783TIP3   OH253763   4.248   3.011   3.527 -0.0561  0.0401 -0.1220
10783TIP3    H153764   4.197   2.952   3.472  1.1512 -0.1566 -1.0408
10783TIP3    H253765   4.242   2.972   3.615 -1.9947  0.3703 -0.0671
10784TIP3   OH253766   0.729   2.942   1.199  0.4996 -0.3305  0.5149
10784TIP3    H153767   0.789   2.871   1.222 -0.2597 -0.0861  3.3997
10784TIP3    H253768   0.783   3.021   1.198  0.7549 -0.5093  0.3360
10785TIP3   OH253769   2.063   5.633   3.412  0.0447  0.0677  1.2939
10785TIP3    H153770   2.109   5.694   3.355  0.0598 -1.3526 -0.2154
10785TIP3    H253771   2.025   5.690   3.480  1.9072  1.5168  1.1883
10786TIP3   OH253772   5.191   0.298  14.709 -0.5370  0.2372 -0.1913
10786TIP3    H153773   5.129   0.246  14.658  0.1686 -0.6226 -0.1924
10786TIP3    H253774   5.237   0.233  14.764  1.0817  0.7108 -0.9415
10787TIP3   OH253775   4.502   4.604   5.768 -0.8003  0.3020  0.0635
10787TIP3    H153776   4.436   4.555   5.719  0.1454 -0.8483 -0.0526
10787TIP3    H253777   4.584   4.559   5.751  0.0790  1.8731  0.0151
10788TIP3   OH253778   3.297   1.484   6.568 -0.0093  0.1886  0.0984
10788TIP3    H153779   3.267   1.560   6.617  0.6355 -0.1302  1.0101
10788TIP3    H253780   3.262   1.497   6.480 -0.3633  1.2594  0.3842
10789TIP3   OH253781   1.355   0.870  11.501  0.0326 -0.3339 -0.2630
10789TIP3    H153782   1.392   0.786  11.527  1.4164 -0.0031 -1.0954
10789TIP3    H253783   1.422   0.935  11.526 -1.3843  0.6093  1.1575
10790TIP3   OH253784   3.311   1.086   3.690  0.6090 -1.2590  0.1035
10790TIP3    H153785   3.330   1.155   3.626 -0.5496 -1.7162 -0.7724
10790TIP3    H253786   3.315   1.130   3.775  1.0693 -0.3849 -0.3649
10791TIP3   OH253787   2.192   2.998  12.509 -0.3064  0.2615  0.1731
10791TIP3    H153788   2.255   3.054  12.555  2.9210 -0.1263 -3.5064
10791TIP3    H253789   2.223   2.909  12.524 -0.6883 -0.0083 -0.6023
10792TIP3   OH253790   6.239   6.250   0.708 -0.0321  0.4679 -0.2329
10792TIP3    H153791   6.329   6.219   0.721 -0.6890 -2.0563 -1.3888
10792TIP3    H253792   6.243   6.299   0.626  0.5444  1.5205  0.4104
10793TIP3   OH253793   5.717   5.189   0.322  0.2290 -0.7268  0.0017
10793TIP3    H153794   5.658   5.264   0.333  1.7644  0.4933  0.2331
10793TIP3    H253795   5.672   5.116   0.365 -0.5437  0.4707  1.2849
10794TIP3   OH253796   4.637   0.738  16.611 -0.2138  0.7747 -0.0261
10794TIP3    H153797   4.617   0.799  16.682  1.2404 -0.0731  1.1554
10794TIP3    H253798   4.553   0.700  16.588 -0.8208  1.6371  0.7082
10795TIP3   OH253799   6.741   5.774  11.608 -0.2057 -0.4733 -0.1857
10795TIP3    H153800   6.823   5.773  11.656  0.5404 -1.5303 -1.4566
10795TIP3    H253801   6.761   5.820  11.527 -1.3864  1.0479  0.3468
10796TIP3   OH253802   4.468   3.270   2.281  0.3011  0.2421  0.9572
10796TIP3    H153803   4.546   3.288   2.228 -0.2456  1.3946  0.5420
10796TIP3    H253804   4.431   3.191   2.243  0.2320  0.7454 -0.0167
10797TIP3   OH253805   4.264   5.546   0.617  0.6758 -1.0632  0.1212
10797TIP3    H153806   4.327   5.596   0.564 -1.3366  0.9351 -0.4253
10797TIP3    H253807   4.288   5.567   0.707  1.1723 -0.7932 -0.0667
10798TIP3   OH253808   3.988   4.670  11.850 -0.0714 -0.0233 -0.0050
10798TIP3    H153809   3.910   4.726  11.855  0.8364  1.1704  1.0177
10798TIP3    H253810   3.981   4.627  11.765 -0.6203  1.9076 -0.9665
10799TIP3   OH253811   5.083   0.264   1.185  0.1013 -0.3219  0.1141
10799TIP3    H153812   5.074   0.223   1.271  0.5517 -0.5107  0.0693
10799TIP3    H253813   5.146   0.334   1.199  2.4358 -2.2201 -0.7258
10800TIP3   OH253814   4.186   1.390  12.566 -0.4650  0.0657  0.2583
10800TIP3    H153815   4.159   1.324  12.630  0.5660  1.5966  2.3287
10800TIP3    H253816   4.230   1.340  12.497 -1.5714 -1.6134  0.7243
10801TIP3   OH253817   1.445   2.361  14.640 -0.1754 -0.0034  0.0081
10801TIP3    H153818   1.513   2.370  14.574 -0.3569  0.9118 -0.0531
10801TIP3    H253819   1.455   2.438  14.696 -2.3164  1.1114 -1.0670
10802TIP3   OH253820   4.825   2.394  11.973  0.4478 -0.1483 -0.2095
10802TIP3    H153821   4.898   2.351  11.929  0.5253  1.9507 -2.2524
10802TIP3    H253822   4.856   2.409  12.062  1.0996 -2.5544  0.0035
10803TIP3   OH253823   1.310   4.578  12.094  0.0521 -0.0005  0.6645
10803TIP3    H153824   1.238   4.517  12.081  0.3064 -0.0711 -0.4314
10803TIP3    H253825   1.306   4.600  12.188 -0.6076 -0.9673  0.8685
10804TIP3   OH253826   2.512   3.796  16.818  0.2504  0.1958 -0.1128
10804TIP3    H153827   2.431   3.818  16.865  0.5023 -0.0846  0.4651
10804TIP3    H253828   2.542   3.715  16.859  0.1761 -0.3652 -1.1534
10805TIP3   OH253829   4.869   0.372   3.234 -0.2969 -0.2002  0.3517
10805TIP3    H153830   4.784   0.340   3.204  0.3268 -2.0582  0.5119
10805TIP3    H253831   4.927   0.358   3.160  0.2743 -0.6989  0.8875
10806TIP3   OH253832   1.001   1.914  13.746 -0.2561  0.1647 -0.4176
10806TIP3    H153833   1.005   1.819  13.735 -0.8493 -0.1832  2.1177
10806TIP3    H253834   1.025   1.949  13.660 -0.0434 -2.2666 -1.3873
10807TIP3   OH253835   3.312   5.140   0.618  0.2556 -0.1376  0.3197
10807TIP3    H153836   3.366   5.216   0.598 -0.5840  0.3955  0.0211
10807TIP3    H253837   3.232   5.177   0.656  0.4835 -0.9577  1.6125
10808TIP3   OH253838   1.950   5.628  10.908 -0.1480 -0.8097 -0.3589
10808TIP3    H153839   1.893   5.674  10.969  0.1690 -0.7326 -0.1218
10808TIP3    H253840   2.035   5.626  10.951  0.1068 -0.6459 -0.8531
10809TIP3   OH253841   5.481   6.574  11.621  0.0670  0.4921 -0.5497
10809TIP3    H153842   5.546   6.519  11.665  0.3928 -0.3355 -2.0420
10809TIP3    H253843   5.415   6.512  11.589 -0.2247  1.1014 -1.1245
10810TIP3   OH253844   6.036   4.729   4.263 -0.5945 -0.0475  0.0689
10810TIP3    H153845   6.094   4.683   4.202 -0.5834  0.8755 -0.6250
10810TIP3    H253846   6.013   4.810   4.218 -1.2000  0.2974  0.9813
10811TIP3   OH253847   1.775   1.537  14.819 -0.0612  1.2039 -0.2062
10811TIP3    H153848   1.853   1.592  14.815  0.6845  0.0901 -0.8165
10811TIP3    H253849   1.770   1.494  14.734  1.1167 -2.0738  1.2895
10812TIP3   OH253850   6.182   1.510   2.281  0.3408 -0.3609  0.2301
10812TIP3    H153851   6.167   1.453   2.357 -3.1772 -1.9077 -1.5011
10812TIP3    H253852   6.094   1.535   2.253  1.6993  2.9558 -1.3497
10813TIP3   OH253853   3.395   0.592  15.830 -0.2844 -0.4393  0.3520
10813TIP3    H153854   3.465   0.657  15.836 -0.1681 -0.4440 -0.7032
10813TIP3    H253855   3.364   0.581  15.919  1.3177 -0.7108  0.8872
10814TIP3   OH253856   3.405   0.283  14.783 -0.2028 -0.1433  1.0011
10814TIP3    H153857   3.464   0.223  14.830  0.2663 -1.7325 -1.5570
10814TIP3    H253858   3.415   0.259  14.691 -1.3313  2.7318  0.0913
10815TIP3   OH253859   5.703   0.462   4.328  0.3226  0.7749  0.0562
10815TIP3    H153860   5.746   0.535   4.284 -0.0407  0.2076 -1.2573
10815TIP3    H253861   5.610   0.471   4.306  0.5664 -1.3937 -2.0721
10816TIP3   OH253862   3.160   5.507  15.617 -0.5525  0.6276  0.1759
10816TIP3    H153863   3.157   5.564  15.694 -0.5167  1.4357 -0.4153
10816TIP3    H253864   3.121   5.559  15.547 -1.6730 -0.5393 -0.0823
10817TIP3   OH253865   1.209   1.630   3.590 -0.1061  0.0288 -0.7759
10817TIP3    H153866   1.294   1.664   3.560  0.8069  0.1063  1.7858
10817TIP3    H253867   1.230   1.551   3.638 -1.3107  0.8748  1.2195
10818TIP3   OH253868   1.329   5.867   3.717 -0.8601 -0.1237 -0.2255
10818TIP3    H153869   1.366   5.956   3.715 -0.2847 -0.3638 -0.3906
10818TIP3    H253870   1.385   5.817   3.658 -0.4713 -0.8784  0.7892
10819TIP3   OH253871   4.862   4.728  11.661 -0.0756  0.3213  0.0613
10819TIP3    H153872   4.781   4.698  11.701 -0.0022 -1.3324 -0.9931
10819TIP3    H253873   4.931   4.696  11.718 -0.0566 -0.3335 -0.3304
10820TIP3   OH253874   5.664   0.833   0.788 -0.2652 -0.4804 -0.3117
10820TIP3    H153875   5.579   0.858   0.753 -0.2161  0.1143 -0.0318
10820TIP3    H253876   5.649   0.749   0.831 -0.6257 -0.5576 -0.5843
10821TIP3   OH253877   2.317   5.292   5.712 -0.3070  0.3158 -0.0094
10821TIP3    H153878   2.222   5.286   5.700 -0.4938  0.2944  1.3796
10821TIP3    H253879   2.340   5.209   5.754 -0.0631  1.3822  2.0060
10822TIP3   OH253880   2.290   6.785  11.189  0.4250 -0.5655  0.6443
10822TIP3    H153881   2.319   6.817  11.275 -1.3173 -1.2314  1.4951
10822TIP3    H253882   2.298   6.690  11.196  1.0808 -0.5767 -0.2383
10823TIP3   OH253883   1.921   4.466   2.326  0.2893  0.7351 -0.2382
10823TIP3    H153884   1.954   4.424   2.406 -4.0011  1.3875  2.0199
10823TIP3    H253885   1.910   4.558   2.350 -0.6722  1.0206 -1.7184
10824TIP3   OH253886   0.207   0.079   0.753 -0.5367 -0.2041  0.5412
10824TIP3    H153887   0.180   0.119   0.836  0.2990 -0.4973  0.9544
10824TIP3    H253888   0.125   0.070   0.703 -0.7795  1.7967  0.5289
10825TIP3   OH253889   4.333   5.049  12.018  0.2809 -0.0431  0.0049
10825TIP3    H153890   4.299   4.974  12.066  0.0318 -0.7143 -1.2139
10825TIP3    H253891   4.318   5.029  11.926 -1.8275  2.4593 -0.2694
10826TIP3   OH253892   2.700   4.481  14.117 -0.0578  0.4123 -0.0796
10826TIP3    H153893   2.673   4.424  14.189  2.8916 -0.2757  0.5647
10826TIP3    H253894   2.739   4.557  14.161  0.3701  0.6938 -0.9384
10827TIP3   OH253895   4.305   6.130  15.444 -0.5224  0.0312  0.4357
10827TIP3    H153896   4.382   6.186  15.436 -0.7873  0.2007 -1.3424
10827TIP3    H253897   4.233   6.185  15.413 -1.1495 -0.5514  0.8565
10828TIP3   OH253898   4.026   1.183   5.827 -0.0978 -0.0973 -1.1508
10828TIP3    H153899   3.981   1.152   5.748  1.1566 -0.2461 -1.8122
10828TIP3    H253900   3.979   1.263   5.851 -1.9579 -1.2902 -0.6991
10829TIP3   OH253901   2.732   1.808   5.791 -0.4585 -0.5386  0.0940
10829TIP3    H153902   2.705   1.745   5.858 -0.1598  0.7972  1.5145
10829TIP3    H253903   2.753   1.888   5.841  0.3221  0.3018 -1.5463
10830TIP3   OH253904   2.341   4.751   3.267 -0.1042  0.3186  0.8698
10830TIP3    H153905   2.249   4.738   3.287 -0.2940  0.6928  0.2526
10830TIP3    H253906   2.369   4.820   3.327 -0.0791 -0.1852  1.4446
10831TIP3   OH253907   5.557   4.915   2.229  0.2932 -0.3008  0.3150
10831TIP3    H153908   5.496   4.989   2.230 -0.6204 -1.0139 -0.3904
10831TIP3    H253909   5.603   4.919   2.312  0.4738  1.2415  0.1460
10832TIP3   OH253910   3.899   5.565   2.304 -0.0684  0.2789 -0.1727
10832TIP3    H153911   3.882   5.531   2.216  0.9897  1.3856 -0.8029
10832TIP3    H253912   3.812   5.568   2.345 -0.6800  0.6069 -1.4695
10833TIP3   OH253913   6.678   5.191   4.592  0.1557 -0.5960 -0.2945
10833TIP3    H153914   6.768   5.198   4.623  0.0566  1.0380 -0.2910
10833TIP3    H253915   6.644   5.111   4.632  0.6581  0.4164  2.2835
10834TIP3   OH253916   6.726   0.401  16.648  0.2505 -0.1963 -0.6521
10834TIP3    H153917   6.763   0.326  16.695 -0.6718 -1.0391 -1.2457
10834TIP3    H253918   6.685   0.362  16.570 -2.1145  0.6891  0.1323
10835TIP3   OH253919   3.966   3.368  12.672 -0.2617  0.4850  0.0138
10835TIP3    H153920   3.925   3.359  12.586 -0.8631  0.9110  0.2529
10835TIP3    H253921   3.992   3.279  12.696 -1.7879  0.0885  0.2223
10836TIP3   OH253922   2.810   4.354  10.711  0.4386  0.2323 -0.2195
10836TIP3    H153923   2.900   4.330  10.732 -0.7011 -2.6528  1.6549
10836TIP3    H253924   2.809   4.359  10.615  2.2364 -1.3713 -0.3630
10837TIP3   OH253925   1.082   2.958  14.618 -0.4353  0.8064  0.1814
10837TIP3    H153926   1.052   3.037  14.572 -2.1121 -0.2270 -0.5610
10837TIP3    H253927   1.056   2.886  14.560  0.6759 -0.3187  1.0627
10838TIP3   OH253928   5.595   1.738   5.417  0.2571 -0.2335 -0.3987
10838TIP3    H153929   5.632   1.826   5.405  3.2431 -1.4894 -1.0707
10838TIP3    H253930   5.585   1.704   5.328 -0.0568 -0.8833 -0.1159
10839TIP3   OH253931   0.597   4.159  12.214  0.2479 -0.1075  0.2698
10839TIP3    H153932   0.515   4.163  12.165  0.8582  0.7060 -0.6850
10839TIP3    H253933   0.621   4.066  12.212  0.1598 -0.1054 -0.7696
10840TIP3   OH253934   2.424   0.662  15.826  0.1382 -0.3424 -0.1837
10840TIP3    H153935   2.350   0.695  15.877  0.5336  0.3630 -0.0618
10840TIP3    H253936   2.394   0.668  15.735 -1.0372 -2.7624  0.0074
10841TIP3   OH253937   0.900   5.578   1.816 -0.2193  0.1422  0.0897
10841TIP3    H153938   0.888   5.660   1.767  1.0014  0.3003  0.0555
10841TIP3    H253939   0.931   5.605   1.902  1.2878 -0.3293 -0.2901
10842TIP3   OH253940   1.066   3.430   3.140  0.1330 -0.2675 -0.1703
10842TIP3    H153941   1.135   3.470   3.087  0.0004  1.0582  0.6231
10842TIP3    H253942   0.989   3.483   3.123  0.1415  0.3070  1.4956
10843TIP3   OH253943   2.496   2.029   2.754 -0.0292 -0.5800 -0.2857
10843TIP3    H153944   2.494   2.109   2.807  3.1151 -0.0921 -0.7696
10843TIP3    H253945   2.487   1.958   2.817 -2.3065  0.1142  0.2081
10844TIP3   OH253946   4.851   6.005  13.271 -0.0480  0.0677 -0.1307
10844TIP3    H153947   4.824   6.042  13.354 -0.3263 -1.6324  0.5713
10844TIP3    H253948   4.922   5.945  13.293  1.2832  1.1356 -1.3946
10845TIP3   OH253949   3.083   1.593   1.541  0.0783 -0.1052  0.3512
10845TIP3    H153950   3.105   1.647   1.465 -1.2148  1.1045  0.8173
10845TIP3    H253951   3.168   1.569   1.579  0.7375 -0.7434 -1.4772
10846TIP3   OH253952   3.986   6.049   3.653 -0.0587  0.5771  0.4962
10846TIP3    H153953   4.029   6.082   3.575  0.7885  1.9399  1.5184
10846TIP3    H253954   4.043   5.980   3.685  0.0546  0.6285  0.4045
10847TIP3   OH253955   4.033   0.846   2.753 -0.1119  0.1031  0.3716
10847TIP3    H153956   4.115   0.897   2.757  0.9829 -1.6516  0.7518
10847TIP3    H253957   3.987   0.868   2.834 -0.1361  1.2824  0.0469
10848TIP3   OH253958   6.547   3.658  15.359  1.4162 -0.7011  0.0995
10848TIP3    H153959   6.608   3.731  15.348  1.8964 -0.5579  3.1629
10848TIP3    H253960   6.567   3.623  15.446 -2.9804 -0.5477  1.2860
10849TIP3   OH253961   6.128   2.003  13.717  0.0792  0.6374  0.6179
10849TIP3    H153962   6.089   1.998  13.805 -0.0025 -1.3664  0.4951
10849TIP3    H253963   6.116   1.915  13.681  0.7273  1.2591 -1.1467
10850TIP3   OH253964   6.208   6.381   5.317 -0.4716  0.0752 -0.4065
10850TIP3    H153965   6.301   6.369   5.336 -0.3176  0.8272 -0.6751
10850TIP3    H253966   6.172   6.417   5.398  0.3571  4.1443 -1.7469
10851TIP3   OH253967   3.070   6.654   6.013 -0.9940 -0.5041  0.4592
10851TIP3    H153968   2.982   6.644   6.048 -0.6847  0.7568  1.6542
10851TIP3    H253969   3.126   6.658   6.091  0.1755 -1.7581 -0.2978
10852TIP3   OH253970   4.697   1.651  16.076  0.1463 -0.2139  0.0304
10852TIP3    H153971   4.660   1.734  16.105  0.3209  0.2107 -0.9553
10852TIP3    H253972   4.631   1.586  16.101 -0.3301  0.3061  0.1491
10853TIP3   OH253973   3.496   1.323  11.767  0.2032 -0.0685  0.1905
10853TIP3    H153974   3.477   1.257  11.699  0.5148 -0.2108  0.2388
10853TIP3    H253975   3.588   1.309  11.788  0.6566  1.2980 -0.7916
10854TIP3   OH253976   3.875   2.815  14.864  0.3856  0.4062 -0.3320
10854TIP3    H153977   3.783   2.789  14.861  0.1063  1.3955 -0.5405
10854TIP3    H253978   3.896   2.820  14.957 -0.0479  1.1120 -0.2697
10855TIP3   OH253979   4.975   3.577   2.727  0.4020 -0.1480  0.1996
10855TIP3    H153980   4.971   3.498   2.781  1.5856  0.4218  1.1566
10855TIP3    H253981   4.891   3.620   2.742 -0.7712 -1.8557 -1.3454
10856TIP3   OH253982   1.701   3.700   5.875 -0.3737 -0.4895 -0.2602
10856TIP3    H153983   1.790   3.687   5.843 -0.5448  0.3204 -1.0756
10856TIP3    H253984   1.645   3.690   5.798 -1.0654 -1.6834  0.3632
10857TIP3   OH253985   2.766   4.261  11.363  0.3561  0.2154  0.8214
10857TIP3    H153986   2.738   4.316  11.436  0.8919  0.6151  0.7268
10857TIP3    H253987   2.862   4.259  11.370  0.4608  0.9128 -0.3376
10858TIP3   OH253988   4.179   0.277  12.459 -0.7487 -0.3166 -0.6553
10858TIP3    H153989   4.102   0.297  12.406 -0.4561 -0.1237 -1.0054
10858TIP3    H253990   4.254   0.295  12.401 -0.2433  4.1686  1.2194
10859TIP3   OH253991   3.821   5.264  14.529 -0.3736  0.4901  0.4555
10859TIP3    H153992   3.737   5.229  14.500 -0.4825 -0.3673  1.7867
10859TIP3    H253993   3.832   5.231  14.618  1.8358 -0.2123 -0.0507
10860TIP3   OH253994   4.444   3.085  13.578 -0.0008 -0.3429  0.0696
10860TIP3    H153995   4.393   3.065  13.657  0.5336 -0.5213  0.3735
10860TIP3    H253996   4.413   3.171  13.550  0.8213  0.3546  1.2949
10861TIP3   OH253997   0.499   5.869  11.278  0.0814  0.0107 -0.0275
10861TIP3    H153998   0.418   5.846  11.324  0.1303 -0.9851 -0.4314
10861TIP3    H253999   0.551   5.789  11.279  0.6601  0.3748 -0.6042
10862TIP3   OH254000   4.692   1.195   1.028 -0.6917  0.1707 -0.4443
10862TIP3    H154001   4.637   1.128   0.989  1.7048 -0.5833 -2.6382
10862TIP3    H254002   4.705   1.166   1.118 -1.8516 -0.8935 -0.6128
10863TIP3   OH254003   4.232   5.975   0.351  0.2071  0.3684 -0.2086
10863TIP3    H154004   4.203   5.934   0.270 -1.6265  1.6593 -0.2246
10863TIP3    H254005   4.293   6.043   0.322  0.0638  0.3970 -0.4434
10864TIP3   OH254006   0.631   5.586   4.028 -0.4153 -0.1397 -0.2646
10864TIP3    H154007   0.628   5.500   3.987 -0.6512 -1.5318  2.5794
10864TIP3    H254008   0.586   5.575   4.112  1.0705  2.3071  0.9383
10865TIP3   OH254009   0.317   5.665   4.842 -0.2864 -0.2448  0.1748
10865TIP3    H154010   0.248   5.710   4.793 -1.7098 -1.4099  1.0831
10865TIP3    H254011   0.334   5.720   4.918  2.4673  1.9660 -1.9444
10866TIP3   OH254012   6.450   2.713  15.816  0.0666  0.6610 -0.2904
10866TIP3    H154013   6.521   2.660  15.781 -0.0324 -0.5217  1.2627
10866TIP3    H254014   6.476   2.803  15.798  2.0098  0.2447  0.3973
10867TIP3   OH254015   2.813   6.448   5.748  0.0786  0.2613  0.1625
10867TIP3    H154016   2.758   6.526   5.748 -0.9474 -0.4401 -0.9933
10867TIP3    H254017   2.760   6.381   5.705  1.9259 -0.3433 -1.2548
10868TIP3   OH254018   3.475   5.905   5.009  0.3924 -0.7562 -0.0506
10868TIP3    H154019   3.529   5.902   4.930 -1.0986  0.0993 -1.1399
10868TIP3    H254020   3.477   5.816   5.043  1.4955 -1.0055 -0.7458
10869TIP3   OH254021   1.165   0.724   0.440  0.4131 -0.7174  0.1400
10869TIP3    H154022   1.089   0.689   0.488 -0.3554  1.0519  0.2300
10869TIP3    H254023   1.216   0.771   0.506 -1.0019  2.3140 -0.8612
10870TIP3   OH254024   6.091   5.751   2.283 -0.3821  0.0056 -0.5141
10870TIP3    H154025   6.096   5.675   2.226 -0.5760  0.8974 -1.7484
10870TIP3    H254026   6.179   5.761   2.319 -0.5773 -1.3331  0.3891
10871TIP3   OH254027   4.323   2.273   4.781 -0.0158  0.1991  0.1228
10871TIP3    H154028   4.274   2.299   4.860 -1.1386 -1.7260  0.1010
10871TIP3    H254029   4.397   2.221   4.815 -0.5596 -0.7209 -0.0813
10872TIP3   OH254030   6.323   1.025  15.381 -0.5588  0.6222  0.1298
10872TIP3    H154031   6.231   0.999  15.374 -0.6978  1.1664 -0.1380
10872TIP3    H254032   6.320   1.111  15.423 -0.0761 -0.0529  1.5583
10873TIP3   OH254033   6.410   6.292   5.762 -0.8221 -0.3679 -0.1744
10873TIP3    H154034   6.494   6.284   5.807 -1.5342  0.0607  1.2664
10873TIP3    H254035   6.384   6.383   5.776 -0.6853  0.0106 -2.1689
10874TIP3   OH254036   0.137   4.202  11.808  0.4684  0.2930 -0.5954
10874TIP3    H154037   0.090   4.141  11.864  0.0889 -1.4997 -2.8115
10874TIP3    H254038   0.091   4.285  11.818 -1.8375 -0.8985 -1.0292
10875TIP3   OH254039   0.679   3.293   0.499  0.0149  0.3793  0.7720
10875TIP3    H154040   0.769   3.290   0.465 -0.0817 -0.6384  0.5580
10875TIP3    H254041   0.625   3.287   0.420 -0.2471  1.9246  0.8377
10876TIP3   OH254042   0.029   5.380  11.499 -0.2097 -0.2572  0.3782
10876TIP3    H154043  -0.049   5.435  11.507 -0.4698 -0.4720 -0.6559
10876TIP3    H254044   0.092   5.435  11.452  0.1896 -0.1659  1.0134
10877TIP3   OH254045   0.074   1.279  11.775 -0.4175  0.6982  1.2509
10877TIP3    H154046   0.091   1.365  11.735 -1.4427  1.0380  1.5259
10877TIP3    H254047   0.144   1.223  11.741 -2.1287  0.5740 -2.2818
10878TIP3   OH254048   3.554   5.267  17.222 -0.4234 -0.0385  0.1005
10878TIP3    H154049   3.649   5.274  17.214 -0.4911 -0.9996 -2.0126
10878TIP3    H254050   3.525   5.354  17.247  0.9155  0.5439 -0.3277
10879TIP3   OH254051   4.433   4.412   6.042  0.0621 -0.0068 -0.7690
10879TIP3    H154052   4.489   4.489   6.036  0.7439 -0.4195  0.2379
10879TIP3    H254053   4.473   4.358   6.109 -1.0177 -0.7456 -0.7014
10880TIP3   OH254054   3.414   2.270  13.625  0.2338  0.6694 -0.3406
10880TIP3    H154055   3.436   2.193  13.677  0.0778  1.8240  1.4526
10880TIP3    H254056   3.481   2.273  13.556  0.4807 -0.8152 -0.1734
10881TIP3   OH254057   0.424   0.502  12.624 -0.4002 -0.0010  0.1773
10881TIP3    H154058   0.405   0.554  12.546  0.2860  1.4798  0.9846
10881TIP3    H254059   0.361   0.430  12.621 -0.2722 -0.0542 -1.8252
10882TIP3   OH254060   3.925   1.622  12.335 -0.6799 -0.3582 -0.2078
10882TIP3    H154061   3.925   1.577  12.419 -0.7883 -0.2027 -0.1238
10882TIP3    H254062   3.932   1.715  12.358  1.7802 -0.4590 -0.4344
10883TIP3   OH254063   6.104   6.295   3.093  0.0945 -0.5987  0.0940
10883TIP3    H154064   6.050   6.217   3.082  0.6084 -0.7979 -1.1089
10883TIP3    H254065   6.187   6.262   3.128  0.8903 -0.8327 -1.8913
10884TIP3   OH254066   0.732   1.183  16.412  0.5770 -0.3467  0.0299
10884TIP3    H154067   0.751   1.148  16.499  2.0124 -0.4350 -0.2987
10884TIP3    H254068   0.752   1.111  16.353 -0.1362 -0.1955 -0.4004
10885TIP3   OH254069   6.751   3.617  16.829  0.3061 -0.5598  0.4869
10885TIP3    H154070   6.679   3.565  16.794  0.5140 -0.3990 -0.1941
10885TIP3    H254071   6.830   3.567  16.805  0.4680 -0.2753  0.4190
10886TIP3   OH254072   4.940   3.209  16.514 -0.0448  0.0511  0.4396
10886TIP3    H154073   4.872   3.206  16.447  0.9610  0.7941 -0.6477
10886TIP3    H254074   5.021   3.190  16.466  0.7135  0.8157  1.4057
10887TIP3   OH254075   4.774   6.340   4.127  0.0645 -0.2119  0.3152
10887TIP3    H154076   4.726   6.298   4.056  1.5383  1.4879 -1.7315
10887TIP3    H254077   4.851   6.284   4.140 -0.7816 -1.1624  1.4223
10888TIP3   OH254078   6.308   0.870  12.134  0.0538  0.7268  0.1261
10888TIP3    H154079   6.238   0.822  12.091  0.6903 -0.1838  0.0892
10888TIP3    H254080   6.270   0.899  12.217 -0.8092  1.4885 -0.5216
10889TIP3   OH254081   6.035   3.754  16.412 -0.3972 -0.1090  0.3335
10889TIP3    H154082   5.965   3.806  16.373 -1.8508 -1.6834  0.8088
10889TIP3    H254083   6.109   3.765  16.352 -0.8250  2.0972  0.1690
10890TIP3   OH254084   2.662   5.090  13.407  0.3834  0.1695 -0.7034
10890TIP3    H154085   2.591   5.101  13.343  0.2472  2.2627 -0.2348
10890TIP3    H254086   2.711   5.173  13.403  2.2560 -0.8921 -0.3477
10891TIP3   OH254087   6.543   3.870  12.298  0.5463  0.0866  0.3095
10891TIP3    H154088   6.582   3.786  12.275 -0.1336  0.2190 -1.3975
10891TIP3    H254089   6.618   3.927  12.316  1.0156 -0.7503  1.0490
10892TIP3   OH254090   2.163   0.076   4.714  0.0297 -0.0719  0.1856
10892TIP3    H154091   2.072   0.092   4.687  0.3670 -1.6420 -2.0139
10892TIP3    H254092   2.160  -0.006   4.762 -0.0451  1.0385  2.1145
10893TIP3   OH254093   3.128   2.435   5.005  0.0071 -0.6009 -0.2939
10893TIP3    H154094   3.187   2.411   5.076  0.6668 -0.5188 -0.8082
10893TIP3    H254095   3.041   2.422   5.041  0.3167  0.5224  0.9107
10894TIP3   OH254096   4.783   3.110  15.313  0.2193  0.5655 -0.6942
10894TIP3    H154097   4.820   3.130  15.399  0.7355  0.2289 -0.8382
10894TIP3    H254098   4.832   3.165  15.252  1.6088 -1.0862 -1.0864
10895TIP3   OH254099   6.202   1.083  13.128  0.0696 -0.0987  0.5797
10895TIP3    H154100   6.280   1.091  13.073 -0.1955 -1.4243 -0.0088
10895TIP3    H254101   6.237   1.069  13.216  0.4994 -0.0575  0.4201
10896TIP3   OH254102   1.811   4.116   2.388 -0.1938  0.6151 -0.0028
10896TIP3    H154103   1.893   4.104   2.436 -0.1601 -0.3656 -0.2804
10896TIP3    H254104   1.837   4.153   2.304 -0.3018  2.8286  0.9075
10897TIP3   OH254105   4.184   2.432   1.600  0.0532  0.1505 -0.2937
10897TIP3    H154106   4.161   2.363   1.663  0.5133 -0.3855 -0.7023
10897TIP3    H254107   4.199   2.510   1.653 -3.0658  0.6169 -0.0303
10898TIP3   OH254108   4.487   2.135   4.935 -0.3082  0.6154  0.7054
10898TIP3    H154109   4.424   2.062   4.937 -1.0732  1.2090 -0.7306
10898TIP3    H254110   4.530   2.132   5.020 -0.1375 -1.6958  0.5690
10899TIP3   OH254111   0.700   0.671  13.138 -0.0966  0.2613 -0.3604
10899TIP3    H154112   0.704   0.587  13.182  2.2844  1.4730  1.8645
10899TIP3    H254113   0.641   0.657  13.064  2.3985 -4.0438 -1.6460
10900TIP3   OH254114   1.162   1.674  14.810  0.2524 -0.0332  0.3165
10900TIP3    H154115   1.213   1.651  14.887 -0.3801 -0.6573  0.5541
10900TIP3    H254116   1.216   1.648  14.736  0.4684 -0.2651  0.5559
10901TIP3   OH254117   4.385   4.468  14.441  0.5208  0.6981  0.1776
10901TIP3    H154118   4.369   4.558  14.471  1.2404  0.5757  0.9618
10901TIP3    H254119   4.351   4.413  14.511 -1.4045  0.3011 -1.0272
10902TIP3   OH254120   4.599   4.949   0.085 -0.0414  0.0284  0.2626
10902TIP3    H154121   4.603   5.044   0.072  0.8179  0.2460  1.8923
10902TIP3    H254122   4.588   4.939   0.180  1.1162 -1.5268  0.2407
10903TIP3   OH254123   5.559   4.904  14.768  0.1734  0.0397 -0.1552
10903TIP3    H154124   5.566   4.913  14.673  3.8061 -0.0555  0.0446
10903TIP3    H254125   5.598   4.819  14.787  1.2520  0.9104  1.6083
10904TIP3   OH254126   5.333   5.134  13.662 -1.0895 -0.7620 -0.2033
10904TIP3    H154127   5.323   5.160  13.754  0.7707 -0.0410 -0.1829
10904TIP3    H254128   5.248   5.097  13.638 -2.3066  1.0618  1.1725
10905TIP3   OH254129   3.781   6.405   5.211 -0.5916 -0.1643  0.6008
10905TIP3    H154130   3.738   6.445   5.135 -0.2441  0.8418  0.9309
10905TIP3    H254131   3.853   6.464   5.231  0.8814 -1.7791  0.1319
10906TIP3   OH254132   2.906   1.746   6.081 -0.2098  0.1805  0.5072
10906TIP3    H154133   2.825   1.717   6.038 -0.3151  1.0731  0.0784
10906TIP3    H254134   2.890   1.734   6.174 -0.6480 -0.1229  0.3919
10907TIP3   OH254135   5.888   3.639   4.466 -0.2433  0.5168 -0.2410
10907TIP3    H154136   5.944   3.715   4.454  2.4008 -1.1183  1.2527
10907TIP3    H254137   5.844   3.655   4.550  1.1234 -0.0885  0.5938
10908TIP3   OH254138   0.244   0.162   5.342  0.7030 -0.5707  0.1780
10908TIP3    H154139   0.183   0.229   5.373  1.1650 -1.3603  2.9103
10908TIP3    H254140   0.301   0.209   5.281  1.3618  1.6893  2.4286
10909TIP3   OH254141   6.267   0.444  13.238 -0.4828  0.2076  0.4849
10909TIP3    H154142   6.265   0.538  13.222  0.7968  0.1164 -0.2490
10909TIP3    H254143   6.237   0.405  13.156 -0.9311 -0.0303  0.7580
10910TIP3   OH254144   0.959   0.464  15.560 -0.2285  0.0789 -1.1790
10910TIP3    H154145   0.951   0.373  15.586 -1.4891  0.8117  1.1692
10910TIP3    H254146   1.053   0.483  15.568 -0.2927 -0.3383  0.7699
10911TIP3   OH254147   1.057   6.693   2.153  0.3512  0.0218  0.6574
10911TIP3    H154148   0.982   6.679   2.095  1.0982 -1.5566  0.0445
10911TIP3    H254149   1.036   6.773   2.201 -1.4563 -0.0815  0.0685
10912TIP3   OH254150   3.784   4.050  16.988  0.3449  0.2460  0.6444
10912TIP3    H154151   3.753   4.127  16.940  1.2958  0.5655  0.5241
10912TIP3    H254152   3.793   3.982  16.921  2.0780  0.8116  0.2618
10913TIP3   OH254153   3.836   3.635  15.412 -0.5093 -0.3019  0.0740
10913TIP3    H154154   3.789   3.711  15.378  0.6691  0.0323 -0.8215
10913TIP3    H254155   3.844   3.652  15.506 -0.0716  0.7974 -0.1534
10914TIP3   OH254156   0.521   1.444  11.864  0.1646 -0.5545 -0.2478
10914TIP3    H154157   0.587   1.499  11.907 -1.9426  1.7561  0.1217
10914TIP3    H254158   0.455   1.428  11.932 -2.5492  2.0492 -2.1181
10915TIP3   OH254159   1.621   2.066  15.881 -0.5605  0.8162  0.2420
10915TIP3    H154160   1.646   2.096  15.968 -0.2524  3.2585 -0.6527
10915TIP3    H254161   1.541   2.115  15.861 -1.9662 -1.4596  0.0772
10916TIP3   OH254162   0.103   4.391  12.918  0.3363  0.2934 -0.2860
10916TIP3    H154163   0.161   4.370  12.845  1.7691  1.1578  0.5884
10916TIP3    H254164   0.084   4.484  12.908 -2.5231 -0.3637 -1.6721
10917TIP3   OH254165   6.452   0.163  13.919 -0.3858 -0.0809  0.2791
10917TIP3    H154166   6.449   0.244  13.867 -1.0478 -0.2815  0.0080
10917TIP3    H254167   6.505   0.187  13.995  2.0001 -0.2689 -1.2879
10918TIP3   OH254168   0.811   0.288  16.391  0.2113 -0.4765  0.5577
10918TIP3    H154169   0.814   0.194  16.377  0.6282 -0.3299 -0.3500
10918TIP3    H254170   0.896   0.320  16.361  0.1636  0.1616  1.0794
10919TIP3   OH254171   0.863   4.123   5.961  0.2985 -0.0314 -0.7824
10919TIP3    H154172   0.795   4.104   6.026  0.4809 -0.3074 -0.6699
10919TIP3    H254173   0.818   4.119   5.877  0.0273  0.4863 -0.6639
10920TIP3   OH254174   0.048   6.416   5.289 -0.0592  0.0578  0.5297
10920TIP3    H154175   0.082   6.354   5.354 -2.1702 -0.8873  0.7784
10920TIP3    H254176  -0.024   6.461   5.334 -1.5175 -0.5803 -1.1192
10921TIP3   OH254177   0.835   2.881   1.536  0.1636 -0.1140 -0.7505
10921TIP3    H154178   0.789   2.964   1.523  0.3484  0.0119 -0.6067
10921TIP3    H254179   0.919   2.906   1.574  0.8673 -0.2426 -2.1656
10922TIP3   OH254180   5.525   5.098  13.489 -0.0009  0.2809 -0.2361
10922TIP3    H154181   5.582   5.172  13.510 -0.6754  0.4580  1.0028
10922TIP3    H254182   5.465   5.092  13.563 -0.6788 -0.8025 -0.8623
10923TIP3   OH254183   1.278   1.566  16.953 -0.3468 -0.3041  0.7700
10923TIP3    H154184   1.356   1.511  16.943  0.6802  1.6209 -3.1017
10923TIP3    H254185   1.208   1.517  16.909 -0.2707 -0.1356  0.4546
10924TIP3   OH254186   1.502   0.168   1.974 -0.1186 -0.1385 -0.5319
10924TIP3    H154187   1.540   0.251   1.945 -1.5699 -0.2788 -3.0156
10924TIP3    H254188   1.520   0.107   1.903 -3.1833 -0.6881 -0.9047
10925TIP3   OH254189   6.708   2.521  12.655  0.0704 -0.0282 -0.7548
10925TIP3    H154190   6.628   2.544  12.608 -0.5488  1.7534  1.0863
10925TIP3    H254191   6.686   2.536  12.747  1.9066 -1.4352 -0.0594
10926TIP3   OH254192   6.682   5.377  12.542 -0.2328 -0.0956  0.1052
10926TIP3    H154193   6.774   5.402  12.550  0.6275 -2.5612 -1.4551
10926TIP3    H254194   6.644   5.443  12.485  1.0697 -0.1210 -0.8239
10927TIP3   OH254195   6.458   3.847   0.649  0.0684  0.7153  0.8375
10927TIP3    H154196   6.369   3.844   0.684 -0.0709 -0.3415  0.4104
10927TIP3    H254197   6.512   3.809   0.718 -0.3120 -2.1264 -0.3727
10928TIP3   OH254198   5.929   2.279   1.378 -0.0314 -0.4166 -0.4834
10928TIP3    H154199   5.991   2.286   1.306 -0.1121  2.8717 -0.3072
10928TIP3    H254200   5.982   2.255   1.454  0.6901  0.2554 -0.7764
10929TIP3   OH254201   3.173   1.094   0.713 -0.3416  0.5705 -0.0993
10929TIP3    H154202   3.164   1.084   0.618 -1.4567  0.5948 -0.0075
10929TIP3    H254203   3.139   1.181   0.731 -1.0367  0.1928  0.4331
10930TIP3   OH254204   4.033   6.090  14.684 -0.8596 -0.5995  0.2591
10930TIP3    H154205   4.072   6.174  14.708  1.2788 -1.1246 -1.2873
10930TIP3    H254206   3.958   6.113  14.628  0.7116  0.2402 -1.5255
10931TIP3   OH254207   1.320   1.746   4.170 -0.3348  0.2691 -0.0106
10931TIP3    H154208   1.279   1.717   4.089 -1.4519 -2.0612  1.3335
10931TIP3    H254209   1.291   1.837   4.180 -0.4511  0.4754 -2.0328
10932TIP3   OH254210   4.011   4.605  16.480  0.2418  0.3534  0.0670
10932TIP3    H154211   3.925   4.646  16.476  0.1069  0.0096 -0.6588
10932TIP3    H254212   4.061   4.649  16.411  0.9690  1.2833  1.1784
10933TIP3   OH254213   6.492   5.228  14.749  0.1102 -0.4972  0.4636
10933TIP3    H154214   6.419   5.177  14.783 -0.7000  0.1806 -0.2240
10933TIP3    H254215   6.462   5.319  14.753  1.2589 -0.1365  1.0119
10934TIP3   OH254216   3.831   1.469   3.589 -0.2053  0.0332  0.5175
10934TIP3    H154217   3.840   1.525   3.512 -1.3468  0.0435  0.3838
10934TIP3    H254218   3.814   1.529   3.661  0.6364  0.0057  0.7509
10935TIP3   OH254219   4.315   2.012   2.554  0.0844  0.2013  0.1426
10935TIP3    H154220   4.302   2.098   2.514 -1.6998 -0.4225 -0.6435
10935TIP3    H254221   4.348   1.957   2.483  1.8679  0.3747  0.8037
10936TIP3   OH254222   2.035   2.590  11.525 -0.0983 -0.0791  0.0613
10936TIP3    H154223   2.004   2.630  11.444  0.0015  0.3586  0.2376
10936TIP3    H254224   1.999   2.501  11.523  0.1768 -0.1813 -0.6185
10937TIP3   OH254225   3.332   4.531  14.319  0.1766  0.5787  1.0486
10937TIP3    H154226   3.328   4.460  14.255  1.5845  1.5521 -0.1354
10937TIP3    H254227   3.416   4.519  14.364  0.4948  1.5698  0.7379
10938TIP3   OH254228   4.307   3.699   1.119 -0.1918  0.0903  0.1212
10938TIP3    H154229   4.234   3.758   1.139 -0.0548  1.3514 -2.7383
10938TIP3    H254230   4.278   3.653   1.040  0.6976 -1.9583  0.9672
10939TIP3   OH254231   2.629   6.343  14.121  0.5044  0.3014 -0.1736
10939TIP3    H154232   2.645   6.387  14.204  0.1155  1.8665 -0.9108
10939TIP3    H254233   2.714   6.307  14.096  0.4866 -0.7433  1.2038
10940TIP3   OH254234   6.165   6.769   1.093 -0.1707  0.0305 -0.6270
10940TIP3    H154235   6.119   6.775   1.009 -0.9401  2.6275 -0.0761
10940TIP3    H254236   6.124   6.695   1.137 -1.5754  0.2610 -1.4876
10941TIP3   OH254237   4.087   1.826   4.656  0.2087  0.0177  0.0552
10941TIP3    H154238   3.997   1.802   4.633  0.0139  0.7766  0.0243
10941TIP3    H254239   4.078   1.905   4.709  0.7663 -0.7262  1.2808
10942TIP3   OH254240   5.272   4.573   5.753 -0.1904  0.6680  0.5872
10942TIP3    H154241   5.367   4.583   5.763  0.0029 -0.5635  0.1079
10942TIP3    H254242   5.249   4.506   5.818 -0.7454  1.0091  0.7398
10943TIP3   OH254243   6.391   0.866  11.868 -0.0443 -0.3483 -0.0531
10943TIP3    H154244   6.467   0.925  11.862  0.1795 -0.8111 -2.7501
10943TIP3    H254245   6.353   0.884  11.954  1.5098  1.8821  0.2266
10944TIP3   OH254246   2.360   4.055   2.205 -0.2408 -0.3175  0.2400
10944TIP3    H154247   2.294   4.122   2.188 -0.1691 -0.2686  0.1506
10944TIP3    H254248   2.405   4.084   2.284 -0.0742 -0.1535  0.0859
10945TIP3   OH254249   0.796   0.018   2.172 -0.3985 -0.4077 -0.3429
10945TIP3    H154250   0.744   0.049   2.099 -0.1958  0.2608 -0.2058
10945TIP3    H254251   0.756   0.057   2.249  0.5291  0.4311 -0.2708
10946TIP3   OH254252   0.306   3.829   2.641 -0.0994  0.1517  0.3507
10946TIP3    H154253   0.278   3.818   2.732  0.3831  1.0417  0.6079
10946TIP3    H254254   0.344   3.916   2.638  1.2732 -0.4550 -0.3573
10947TIP3   OH254255   0.411   5.891   3.866 -0.5057 -0.1436  0.3515
10947TIP3    H154256   0.401   5.799   3.844  0.5276 -1.1062  3.6614
10947TIP3    H254257   0.506   5.907   3.862 -0.5599  0.4155  1.1409
10948TIP3   OH254258   3.896   2.770   0.770  0.2905  0.4873 -0.0952
10948TIP3    H154259   3.925   2.690   0.725  0.3768  0.3335  0.2304
10948TIP3    H254260   3.802   2.773   0.756  0.4379  0.9057 -1.0290
10949TIP3   OH254261   5.656   6.156  10.580  0.0986  0.2412  0.3383
10949TIP3    H154262   5.682   6.221  10.514  1.6908  2.4677  3.0576
10949TIP3    H254263   5.565   6.178  10.600  0.6661  1.7300  1.3304
10950TIP3   OH254264   3.680   5.096   0.397  0.0818 -0.2448 -0.1718
10950TIP3    H154265   3.724   5.011   0.394  0.6047  0.0480 -1.3353
10950TIP3    H254266   3.611   5.089   0.330  0.3742  0.3689 -0.5461
10951TIP3   OH254267   2.614   2.953   0.072  0.2987 -0.0406  0.2920
10951TIP3    H154268   2.572   2.878   0.113  1.0970 -0.7059 -0.0813
10951TIP3    H254269   2.567   3.029   0.106  0.4019 -0.6302  1.7697
10952TIP3   OH254270   3.052   3.852   4.030  0.0362 -0.5633 -0.1044
10952TIP3    H154271   2.982   3.888   3.975 -0.5371 -1.6512 -0.1018
10952TIP3    H254272   3.015   3.772   4.066  1.0923 -0.8538  0.3460
10953TIP3   OH254273   5.424   2.187   0.966 -0.5139  0.0054  0.7189
10953TIP3    H154274   5.422   2.093   0.986  3.7237 -0.2589  0.4623
10953TIP3    H254275   5.399   2.192   0.873  0.9796 -1.0953  0.2388
10954TIP3   OH254276   2.311   1.636   3.690  0.0477 -0.3105  0.1587
10954TIP3    H154277   2.276   1.642   3.779 -1.3881 -1.5751 -0.3085
10954TIP3    H254278   2.328   1.543   3.677  0.6814 -0.0757 -0.7296
10955TIP3   OH254279   1.988   6.521   0.856 -0.1684 -0.3050  0.4314
10955TIP3    H154280   2.049   6.492   0.788 -0.1878 -0.8913  0.6610
10955TIP3    H254281   1.927   6.448   0.866 -1.3576  0.5654 -0.3162
10956TIP3   OH254282   3.270   5.498   6.448 -0.8970  0.0961 -0.8649
10956TIP3    H154283   3.323   5.577   6.438  0.7756 -0.7132  1.2908
10956TIP3    H254284   3.298   5.442   6.376 -1.1342  0.9347 -1.6217
10957TIP3   OH254285   1.290   5.455   3.822 -0.0057  0.3659 -0.2383
10957TIP3    H154286   1.381   5.476   3.845  0.5308 -0.4637 -1.5308
10957TIP3    H254287   1.238   5.505   3.884  1.3189  1.8888 -0.3062
10958TIP3   OH254288   2.932   0.943   3.580 -0.1702  0.2689 -0.1486
10958TIP3    H154289   2.844   0.929   3.613  0.6888 -0.8919  1.7559
10958TIP3    H254290   2.949   0.868   3.524 -1.0811  1.4896 -2.1250
10959TIP3   OH254291   6.435   3.072   3.721  0.1689  0.2037  0.0282
10959TIP3    H154292   6.497   3.040   3.656  1.4682  0.0559  1.3141
10959TIP3    H254293   6.382   2.995   3.743  0.1020  0.1181 -0.4200
10960TIP3   OH254294   3.763   0.327   3.374 -0.3839 -0.2294 -0.0507
10960TIP3    H154295   3.698   0.331   3.304  0.6178 -0.8062 -1.0415
10960TIP3    H254296   3.751   0.408   3.423  0.3667  1.2913 -2.2613
10961TIP3   OH254297   4.511   1.633  14.969 -0.0110  0.0269  0.3691
10961TIP3    H154298   4.551   1.689  14.902 -0.0265  0.4647  0.7273
10961TIP3    H254299   4.418   1.656  14.966  0.0897  0.5128  0.9941
10962TIP3   OH254300   2.033   0.419   3.224 -0.3520 -0.2722  0.2620
10962TIP3    H154301   2.075   0.342   3.261  0.8498 -0.5012 -1.5270
10962TIP3    H254302   1.942   0.393   3.212 -0.0535 -1.2606  0.1024
10963TIP3   OH254303   3.877   6.362  12.146 -0.3526  0.3165 -0.4459
10963TIP3    H154304   3.966   6.332  12.167 -0.5065  0.1877  0.0292
10963TIP3    H254305   3.821   6.290  12.175 -0.5628  0.1120 -1.3644
10964TIP3   OH254306   2.676   0.208  12.886 -0.5959 -0.5283 -0.2689
10964TIP3    H154307   2.736   0.194  12.960 -0.0661  1.2610 -0.3373
10964TIP3    H254308   2.730   0.190  12.808  0.0835  1.7080 -0.3561
10965TIP3   OH254309   4.985   0.664  13.880  0.3323  0.1373 -0.0390
10965TIP3    H154310   5.002   0.592  13.820 -1.1542 -0.9519  0.8272
10965TIP3    H254311   5.026   0.637  13.962  2.8136  1.8491 -0.6437
10966TIP3   OH254312   4.226   1.846   1.118 -0.4112  0.5024  0.1311
10966TIP3    H154313   4.139   1.858   1.157 -1.1441  0.3043 -1.3841
10966TIP3    H254314   4.233   1.916   1.053  0.5780  0.5452  0.2894
10967TIP3   OH254315   5.614   1.208   6.216  0.3568 -0.5350  0.1874
10967TIP3    H154316   5.646   1.293   6.246 -2.9008  0.3768  1.2551
10967TIP3    H254317   5.629   1.208   6.122 -1.1348  1.9245 -0.0754
10968TIP3   OH254318   1.048   6.571  11.191 -0.0396 -0.2938  0.7519
10968TIP3    H154319   1.101   6.514  11.248  1.9150 -0.7578 -1.4656
10968TIP3    H254320   1.016   6.514  11.122 -2.0313  0.3669  1.0758
10969TIP3   OH254321   1.906   2.949  12.440 -0.4642  0.1189 -0.0911
10969TIP3    H154322   1.983   2.954  12.496 -0.3116 -0.0674 -0.2803
10969TIP3    H254323   1.876   3.039  12.431  0.5004  0.3621 -1.0723
10970TIP3   OH254324   4.897   2.615   0.875  0.0293 -0.2209 -0.8064
10970TIP3    H154325   4.972   2.579   0.827  0.8675  1.2851 -0.6689
10970TIP3    H254326   4.927   2.623   0.965 -0.8672 -1.1638 -0.4167
10971TIP3   OH254327   6.506   5.099  17.126  0.7577 -0.0409 -0.2727
10971TIP3    H154328   6.490   5.012  17.090 -1.1154 -0.2826  1.0960
10971TIP3    H254329   6.584   5.089  17.180 -0.8927 -1.4888  1.9107
10972TIP3   OH254330   5.956   0.125   0.194 -0.0796 -0.0254 -0.1850
10972TIP3    H154331   5.867   0.159   0.185  0.2119  0.5083 -1.1405
10972TIP3    H254332   5.946   0.031   0.204 -0.6553 -0.2270 -2.4330
10973TIP3   OH254333   4.422   4.307   4.826  0.2153 -0.4219  0.1282
10973TIP3    H154334   4.450   4.219   4.800  0.9454  0.0744 -0.7854
10973TIP3    H254335   4.337   4.319   4.784 -0.4268 -1.1227  1.1927
10974TIP3   OH254336   1.893   5.180  16.954 -0.2417 -0.2594 -0.0435
10974TIP3    H154337   1.979   5.191  16.913  0.1100 -2.4053  0.0797
10974TIP3    H254338   1.831   5.183  16.881  0.0972 -0.6048 -0.3452
10975TIP3   OH254339   1.241   1.251  12.117  0.4513 -0.7853 -0.2726
10975TIP3    H154340   1.295   1.306  12.174  1.6972 -1.9088 -0.3230
10975TIP3    H254341   1.253   1.163  12.152 -0.8860 -1.1247 -0.6760
10976TIP3   OH254342   2.357   0.060  10.888 -0.1616  0.4613  0.1976
10976TIP3    H154343   2.385   0.067  10.980 -0.0317  2.2982  0.0385
10976TIP3    H254344   2.308  -0.022  10.885  2.8145 -1.4760  1.0990
10977TIP3   OH254345   5.699   0.773  11.485 -0.1590 -0.0740  0.1061
10977TIP3    H154346   5.682   0.861  11.451  0.5781 -0.4323 -1.1858
10977TIP3    H254347   5.747   0.789  11.567 -1.8195  0.7700  0.9360
10978TIP3   OH254348   3.774   2.086   4.736  0.6809  0.1145 -0.2060
10978TIP3    H154349   3.690   2.123   4.710  0.1662 -0.8183  0.0982
10978TIP3    H254350   3.777   2.001   4.692  1.0626 -0.2465  0.5160
10979TIP3   OH254351   6.428   4.849  17.059 -0.2094  0.0286 -0.3314
10979TIP3    H154352   6.389   4.767  17.030 -0.7666  0.4953 -0.9185
10979TIP3    H254353   6.390   4.865  17.145  0.7018 -0.8569  0.2519
10980TIP3   OH254354   5.364   0.582   3.715 -0.2264 -0.5797  0.0652
10980TIP3    H154355   5.404   0.569   3.629 -3.4044 -2.7471 -1.1850
10980TIP3    H254356   5.347   0.493   3.747  2.4041  0.1152  3.7586
10981TIP3   OH254357   5.850   3.159   0.628  0.1490  0.0287  0.1575
10981TIP3    H154358   5.787   3.231   0.630 -0.6018 -0.5858 -1.1163
10981TIP3    H254359   5.895   3.168   0.544  0.1139 -0.9292  0.0239
10982TIP3   OH254360   4.135   0.084  15.925 -0.7240  1.0725 -0.0087
10982TIP3    H154361   4.159   0.174  15.903 -1.3254  1.5208  1.1252
10982TIP3    H254362   4.213   0.032  15.903 -0.4187  1.8412 -0.7760
10983TIP3   OH254363   5.759   3.049  16.629 -0.2054 -0.3899  0.6746
10983TIP3    H154364   5.701   3.004  16.691  0.1005 -0.5284  0.8590
10983TIP3    H254365   5.732   3.141  16.633 -0.1516 -0.3905  1.0516
10984TIP3   OH254366   3.923   0.404  14.139  0.0344 -0.0998  0.3728
10984TIP3    H154367   3.932   0.316  14.101  0.7251  0.1521 -0.0502
10984TIP3    H254368   3.995   0.454  14.101 -1.3735  1.1276 -0.7610
10985TIP3   OH254369   0.403   1.094  11.924  0.2980  0.0822  0.1840
10985TIP3    H154370   0.391   1.136  12.009  0.8373  0.6433 -0.0162
10985TIP3    H254371   0.456   1.155  11.874 -2.5396  1.1262 -1.6311
10986TIP3   OH254372   4.562   0.471   1.113 -0.2687 -0.2316  0.2721
10986TIP3    H154373   4.479   0.495   1.073 -0.9706  0.4273  2.0443
10986TIP3    H254374   4.539   0.442   1.201  1.4141  0.5301  0.9967
10987TIP3   OH254375   4.355   5.315   0.118  0.4980 -0.0949  0.0707
10987TIP3    H154376   4.283   5.326   0.056 -0.3236  0.8861  1.1692
10987TIP3    H254377   4.397   5.401   0.120  0.8533 -0.2775  0.4777
10988TIP3   OH254378   5.826   3.364  12.132  0.4337  0.4416 -0.3552
10988TIP3    H154379   5.912   3.398  12.108  0.5440  0.2532 -0.2279
10988TIP3    H254380   5.797   3.313  12.056  2.1460 -2.7911  1.0377
10989TIP3   OH254381   1.711   4.541  16.759  0.5186  0.1118  0.4355
10989TIP3    H154382   1.732   4.455  16.796  1.8329  0.6799  1.0478
10989TIP3    H254383   1.737   4.533  16.667  0.3207 -0.2563  0.4077
10990TIP3   OH254384   4.756   0.190  12.749 -0.1053 -0.4300  0.5500
10990TIP3    H154385   4.738   0.111  12.799  2.8145 -0.3484  1.8505
10990TIP3    H254386   4.831   0.231  12.793  1.0545  0.9051 -2.4448
10991TIP3   OH254387   1.384   2.424   3.319  0.2498  0.0941  0.1214
10991TIP3    H154388   1.327   2.491   3.357  0.0514 -0.2217  0.3812
10991TIP3    H254389   1.452   2.410   3.385 -0.2410 -0.6424  0.4784
10992TIP3   OH254390   0.436   1.604  16.776  0.0491  0.3437 -0.2713
10992TIP3    H154391   0.527   1.614  16.806  0.9066  1.3130 -3.0751
10992TIP3    H254392   0.440   1.534  16.710 -1.7029 -1.3386  1.3506
10993TIP3   OH254393   0.651   2.844   5.096  0.1022 -0.4044 -0.1723
10993TIP3    H154394   0.596   2.768   5.114 -0.5784  0.1052 -0.0762
10993TIP3    H254395   0.672   2.836   5.002  1.2476 -1.4896  0.1616
10994TIP3   OH254396   3.304   0.513  12.974 -0.5462  0.0424 -0.1281
10994TIP3    H154397   3.372   0.467  12.924 -0.7667 -0.2194 -0.1834
10994TIP3    H254398   3.222   0.490  12.931 -0.5150  1.7722 -1.1456
10995TIP3   OH254399   5.821   3.948  15.556  0.2707 -0.3317  0.1472
10995TIP3    H154400   5.838   3.997  15.636 -0.1199  0.4191 -0.2302
10995TIP3    H254401   5.728   3.963  15.538  0.0992 -1.3485  0.1245
10996TIP3   OH254402   4.400   4.164   2.774 -0.0420  0.4235 -0.4190
10996TIP3    H154403   4.465   4.167   2.704 -1.2745  0.8713 -1.5574
10996TIP3    H254404   4.322   4.127   2.734 -0.1244 -1.3136  1.2668
10997TIP3   OH254405   4.048   4.201   3.963 -0.5341 -0.5105  0.6379
10997TIP3    H154406   4.141   4.179   3.949 -0.4495  0.3530 -0.2130
10997TIP3    H254407   4.001   4.130   3.920 -0.2571  0.0606 -0.6396
10998TIP3   OH254408   3.181   3.513   5.927  0.3469 -0.0222 -0.5543
10998TIP3    H154409   3.168   3.481   5.838 -1.8708  0.7210 -0.5231
10998TIP3    H254410   3.167   3.436   5.982  0.2533 -0.1630 -0.7719
10999TIP3   OH254411   4.662   5.427   3.701  0.0457 -0.4546  0.4131
10999TIP3    H154412   4.641   5.361   3.766  0.9015  1.5359  2.8143
10999TIP3    H254413   4.741   5.394   3.657 -0.8451 -2.0546  0.0013
11000TIP3   OH254414   2.554   3.019   2.495  0.3933  0.7232 -1.0384
11000TIP3    H154415   2.540   3.080   2.423 -0.0804  1.0746 -0.6545
11000TIP3    H254416   2.494   3.049   2.564 -0.4655 -0.6633 -1.1480
11001TIP3   OH254417   6.103   5.740  11.945 -0.5910 -0.0551 -0.3260
11001TIP3    H154418   6.144   5.653  11.941 -0.0643  0.2185 -1.0062
11001TIP3    H254419   6.177   5.801  11.942 -0.7920  0.4047  2.5491
11002TIP3   OH254420   3.603   4.619  13.721 -0.3036  0.1226 -0.2554
11002TIP3    H154421   3.674   4.679  13.699 -0.5399  0.2527 -0.6688
11002TIP3    H254422   3.559   4.659  13.795  0.8454 -0.5933  0.8351
11003TIP3   OH254423   1.335   3.069  16.492 -0.5028  0.1892 -0.3313
11003TIP3    H154424   1.359   2.977  16.480  2.6706  1.0563 -0.9255
11003TIP3    H254425   1.326   3.079  16.587 -2.1136 -0.9899 -0.3313
11004TIP3   OH254426   3.195   4.732  13.328 -0.1593 -0.4880  0.7012
11004TIP3    H154427   3.257   4.722  13.401 -0.1605  0.8258  0.8970
11004TIP3    H254428   3.151   4.647  13.322  1.1340 -1.2012  1.0391
11005TIP3   OH254429   3.533   3.567   4.091 -0.2766  0.1640  0.0054
11005TIP3    H154430   3.610   3.566   4.035 -0.5414 -0.7137 -0.3397
11005TIP3    H254431   3.495   3.653   4.077 -0.1540  0.0748 -0.9020
11006TIP3   OH254432   1.491   3.972   1.345 -0.1465 -0.6144  0.0510
11006TIP3    H154433   1.462   3.886   1.374  1.9193 -1.2098  0.4450
11006TIP3    H254434   1.545   3.955   1.267  2.6784 -0.0065  1.7926
11007TIP3   OH254435   6.346   4.842  15.080  0.1551  0.0678 -0.0199
11007TIP3    H154436   6.395   4.760  15.082 -0.8609 -0.6384 -2.2302
11007TIP3    H254437   6.411   4.910  15.091  1.8756 -0.7778 -4.1246
11008TIP3   OH254438   2.729   2.026  14.257 -0.5536  0.1598 -0.0540
11008TIP3    H154439   2.712   2.036  14.351  1.2665  5.0639 -0.1235
11008TIP3    H254440   2.641   2.024  14.217 -1.3252 -1.4841  1.6740
11009TIP3   OH254441   4.234   5.710  12.115  0.4749  0.6793  0.4274
11009TIP3    H154442   4.234   5.777  12.046 -0.6692  0.7568  0.4798
11009TIP3    H254443   4.162   5.737  12.174 -0.8116 -1.2553 -0.2086
11010TIP3   OH254444   3.918   3.438  10.705  0.7810  0.2909  0.0974
11010TIP3    H154445   3.941   3.381  10.631 -0.2611  0.8886 -0.7060
11010TIP3    H254446   3.856   3.501  10.668 -0.1335  0.2997  1.6019
11011TIP3   OH254447   1.478   0.906   3.992  0.0111  0.6952  0.5310
11011TIP3    H154448   1.556   0.855   3.968 -0.8766  0.4011 -1.8739
11011TIP3    H254449   1.445   0.863   4.071  1.6300  0.1092  0.9080
11012TIP3   OH254450   3.095   5.721   2.533  0.5495  0.1749 -0.3379
11012TIP3    H154451   3.002   5.737   2.551  0.8098 -0.3194  1.5066
11012TIP3    H254452   3.131   5.808   2.517  0.5039  0.7689  2.5993
11013TIP3   OH254453   0.718   1.342   1.898 -0.3764  0.6073 -1.1048
11013TIP3    H154454   0.629   1.329   1.929 -0.0683 -0.8500 -0.7840
11013TIP3    H254455   0.770   1.351   1.978  0.0836 -0.8660 -1.2183
11014TIP3   OH254456   2.714   4.802   1.787  0.8432  0.1070 -0.5286
11014TIP3    H154457   2.763   4.752   1.722  0.8812  1.0298 -1.2283
11014TIP3    H254458   2.763   4.885   1.795  0.4061  0.3084  0.1011
11015TIP3   OH254459   6.687   3.516   4.273 -0.1938  0.1551 -0.5037
11015TIP3    H154460   6.687   3.596   4.325 -1.9832 -0.8494  1.0915
11015TIP3    H254461   6.595   3.504   4.246  0.2615 -0.7068 -1.7432
11016TIP3   OH254462   1.073   0.357   1.502 -0.5619 -0.0910  0.1226
11016TIP3    H154463   1.121   0.292   1.450 -1.1275 -0.5984  0.2180
11016TIP3    H254464   1.125   0.368   1.581 -0.0763  0.1308 -0.2302
11017TIP3   OH254465   4.728   4.571   1.248 -0.2297  0.3626 -0.7542
11017TIP3    H154466   4.734   4.586   1.342 -2.0602  0.3116 -0.6119
11017TIP3    H254467   4.671   4.496   1.239  2.1738 -1.3971 -1.8285
11018TIP3   OH254468   0.931   5.205  12.236  0.0612 -0.4007 -1.0570
11018TIP3    H154469   0.891   5.129  12.278  0.2914 -1.3504 -2.5438
11018TIP3    H254470   0.857   5.251  12.195  0.0308 -0.2305 -0.8147
11019TIP3   OH254471   0.111   0.127  13.114 -0.2679  0.0312  0.2908
11019TIP3    H154472   0.081   0.043  13.149 -1.7017 -0.7639 -2.6002
11019TIP3    H254473   0.086   0.192  13.180 -1.8026 -1.5042  1.2606
11020TIP3   OH254474   3.914   5.006  14.368  0.4540  0.2704 -0.4167
11020TIP3    H154475   4.007   4.984  14.377  0.2531 -0.2495  0.5077
11020TIP3    H254476   3.896   4.996  14.275  0.8681 -1.5260 -0.3209
11021TIP3   OH254477   4.245   4.508  16.863 -0.6327 -0.3106 -0.0631
11021TIP3    H154478   4.158   4.510  16.824 -1.3309  0.0650  1.4806
11021TIP3    H254479   4.286   4.429  16.827 -1.8543 -0.8511 -0.2714
11022TIP3   OH254480   1.345   1.472  10.792 -0.0376 -0.3949  0.0771
11022TIP3    H154481   1.325   1.446  10.702 -1.5000 -2.7548  1.0331
11022TIP3    H254482   1.413   1.539  10.783  0.1537 -0.9036 -2.7604
11023TIP3   OH254483   2.706   4.474   5.515  0.0892 -0.6983 -0.2068
11023TIP3    H154484   2.688   4.437   5.429 -0.8115 -0.6769 -0.0326
11023TIP3    H254485   2.774   4.418   5.552  0.2182 -0.9204 -0.7876
11024TIP3   OH254486   3.755   3.189   3.531 -0.4041  0.8039  0.2564
11024TIP3    H154487   3.688   3.220   3.470  0.3005 -2.8920 -2.6074
11024TIP3    H254488   3.838   3.207   3.487  0.3916  2.3007  2.2798
11025TIP3   OH254489   2.839   4.226   1.045 -0.9194 -0.1632 -0.2318
11025TIP3    H154490   2.850   4.193   0.956 -0.7229 -0.1648 -0.2083
11025TIP3    H254491   2.898   4.301   1.050 -1.4088  0.2278 -0.3037
11026TIP3   OH254492   3.398   6.062  13.915  0.0483  0.0057 -0.2462
11026TIP3    H154493   3.491   6.040  13.920  0.0763  0.1428 -0.1247
11026TIP3    H254494   3.370   6.067  14.007 -0.0351  0.1433 -0.2800
11027TIP3   OH254495   6.325   4.981   5.884 -0.4909  0.0350 -0.3955
11027TIP3    H154496   6.235   5.004   5.907  0.2130  1.1918  1.3673
11027TIP3    H254497   6.378   5.022   5.953  1.3089 -1.4955 -0.8354
11028TIP3   OH254498   5.193   5.827   0.799  0.3801 -0.4103 -0.0088
11028TIP3    H154499   5.152   5.757   0.749 -2.2951 -0.7602  2.5503
11028TIP3    H254500   5.241   5.783   0.869  0.0518  0.2186  0.6255
11029TIP3   OH254501   4.372   0.068   3.227 -0.3663  0.6011  0.2899
11029TIP3    H154502   4.463   0.042   3.246 -0.7885 -1.1234  0.1099
11029TIP3    H254503   4.370   0.077   3.132 -1.2152 -2.9704 -0.1199
11030TIP3   OH254504   5.104   3.876   1.373 -0.3970 -0.0622 -0.6792
11030TIP3    H154505   5.157   3.853   1.297 -2.0304  1.2863 -2.2825
11030TIP3    H254506   5.121   3.969   1.387 -0.7677 -0.1049  0.0966
11031TIP3   OH254507   0.023   0.314  11.718 -0.0010 -0.3488 -0.2501
11031TIP3    H154508   0.113   0.281  11.718 -0.6296 -2.0954 -1.6399
11031TIP3    H254509  -0.008   0.300  11.807  0.8650 -0.3679  0.0562
11032TIP3   OH254510   6.290   6.780   1.397  0.2928 -0.7453  0.8468
11032TIP3    H154511   6.199   6.775   1.426  0.0384 -1.1091  0.0150
11032TIP3    H254512   6.309   6.692   1.363  0.1332  0.0255 -1.3495
11033TIP3   OH254513   1.298   2.790   2.940 -0.0564 -0.0541  0.1920
11033TIP3    H154514   1.280   2.702   2.974 -0.5377 -0.2625 -0.5902
11033TIP3    H254515   1.212   2.832   2.936  0.0940  0.2389 -0.0180
11034TIP3   OH254516   6.594   0.842  16.102 -0.0231  0.5236  0.6673
11034TIP3    H154517   6.643   0.787  16.164  0.3777  0.5530  0.3774
11034TIP3    H254518   6.651   0.916  16.085  0.5491 -0.2626 -0.9542
11035TIP3   OH254519   2.642   5.052  14.277  0.1349  0.1777 -0.3243
11035TIP3    H154520   2.568   4.997  14.252 -1.7977  1.9692  1.2855
11035TIP3    H254521   2.712   5.026  14.217 -1.7067 -1.6887 -1.7607
11036TIP3   OH254522   2.741   3.772  11.152  0.0744 -0.6072  0.4333
11036TIP3    H154523   2.691   3.766  11.234  0.3139  0.2336  0.6541
11036TIP3    H254524   2.833   3.772  11.180  0.1458  0.8601  0.2754
11037TIP3   OH254525   1.855   0.641   4.692  0.2452 -0.1908  0.2952
11037TIP3    H154526   1.933   0.638   4.747  0.5866 -1.4001 -0.2535
11037TIP3    H254527   1.823   0.551   4.690 -0.2995  0.0233 -0.7117
11038TIP3   OH254528   4.902   6.479   0.574 -0.5359 -0.4530  0.0968
11038TIP3    H154529   4.893   6.570   0.602  0.0345 -0.7802  1.3860
11038TIP3    H254530   4.827   6.464   0.516 -0.6177  0.8358 -0.1458
11039TIP3   OH254531   5.851   3.597  16.720  0.0743  0.5456 -0.1052
11039TIP3    H154532   5.820   3.628  16.805  0.8397 -0.0952  0.4165
11039TIP3    H254533   5.897   3.672  16.683  3.5107 -0.4180  1.9509
11040TIP3   OH254534   2.833   1.310   4.782 -0.0189  0.1792  1.0595
11040TIP3    H154535   2.828   1.310   4.686 -1.1264 -1.0098  1.1013
11040TIP3    H254536   2.909   1.364   4.802  1.1553 -0.8138 -0.5615
11041TIP3   OH254537   2.207   0.792   3.482  0.6703 -0.0508  0.5003
11041TIP3    H154538   2.136   0.737   3.515  0.4754 -0.0390  0.1011
11041TIP3    H254539   2.227   0.756   3.395 -0.1478  1.1283 -0.2056
11042TIP3   OH254540   0.938   5.068  13.205 -0.0836  0.4190  0.1459
11042TIP3    H154541   0.893   5.045  13.124  2.6045  0.5265 -1.4300
11042TIP3    H254542   1.020   5.109  13.177 -0.5486  3.4818  2.9214
11043TIP3   OH254543   1.780   6.395  14.183  0.2400  0.2267  0.0743
11043TIP3    H154544   1.805   6.388  14.275  2.1475  2.1461 -0.2611
11043TIP3    H254545   1.863   6.390  14.136 -0.6473  0.0965 -1.5077
11044TIP3   OH254546   0.083   3.181  14.448  0.0762  0.3760 -0.5245
11044TIP3    H154547  -0.009   3.159  14.432  0.1726 -0.9014  0.5305
11044TIP3    H254548   0.080   3.247  14.517 -0.0116 -1.5310  1.3873
11045TIP3   OH254549   2.912   0.306   3.184 -0.1862 -0.2695  0.0320
11045TIP3    H154550   2.857   0.245   3.135 -0.3321  0.9729 -1.4041
11045TIP3    H254551   2.946   0.255   3.257 -1.2852 -1.7221 -0.4512
11046TIP3   OH254552   3.921   1.865  12.861  0.0716  0.5092  0.4047
11046TIP3    H154553   3.916   1.781  12.814  0.5626 -0.4662  2.0442
11046TIP3    H254554   3.860   1.855  12.934  0.7647  1.2661  1.0895
11047TIP3   OH254555   5.422   6.135   4.589  0.3969 -0.2741  0.6595
11047TIP3    H154556   5.408   6.199   4.518  1.0408 -0.6344  0.1966
11047TIP3    H254557   5.490   6.174   4.643  3.7866 -2.3784 -1.9198
11048TIP3   OH254558   6.110   0.553  16.867 -0.1108  0.0359  0.0831
11048TIP3    H154559   6.025   0.545  16.911 -0.2748  0.4459 -0.1601
11048TIP3    H254560   6.164   0.485  16.907 -0.3523  0.2145  0.7174
11049TIP3   OH254561   4.719   5.522  15.358  0.8853  0.6669  0.2771
11049TIP3    H154562   4.626   5.534  15.374  0.7096  0.5591 -0.6321
11049TIP3    H254563   4.756   5.498  15.443 -0.1137 -0.4940  0.3802
11050TIP3   OH254564   0.700   5.715  16.963 -0.8849  0.2454  0.1715
11050TIP3    H154565   0.762   5.729  17.034 -0.8436 -0.3662  0.2520
11050TIP3    H254566   0.618   5.690  17.006 -0.7763 -0.4232 -0.0110
11051TIP3   OH254567   5.671   2.741   4.681  0.2954  0.5219 -0.2630
11051TIP3    H154568   5.594   2.759   4.627  1.5684  4.3414 -0.9558
11051TIP3    H254569   5.718   2.673   4.634 -1.1558  0.2611 -1.3648
11052TIP3   OH254570   1.758   2.968  11.623  0.9320  0.1650 -0.3067
11052TIP3    H154571   1.851   2.984  11.636  1.0815  1.9333 -3.1909
11052TIP3    H254572   1.749   2.951  11.529 -1.4472 -1.5991  0.1833
11053TIP3   OH254573   2.101   0.363  15.709 -0.1294 -0.2411  0.0752
11053TIP3    H154574   2.090   0.357  15.614 -2.0724  3.1326  0.0502
11053TIP3    H254575   2.133   0.452  15.725  1.1188 -1.0629  2.5295
11054TIP3   OH254576   1.124   5.275  10.988  0.2417 -0.1757 -0.4322
11054TIP3    H154577   1.135   5.188  11.027  1.1739  0.2156  0.1908
11054TIP3    H254578   1.194   5.327  11.027  0.0311  0.7070 -1.2387
11055TIP3   OH254579   2.654   5.314   4.784 -0.5634 -0.3385 -0.1637
11055TIP3    H154580   2.583   5.287   4.842 -0.0090  1.3172  1.3450
11055TIP3    H254581   2.623   5.395   4.744  0.2595  0.1289  0.1330
11056TIP3   OH254582   5.617   4.524  12.986 -0.0560 -1.0997  0.4111
11056TIP3    H154583   5.601   4.481  13.071  1.0762  1.7960  2.1580
11056TIP3    H254584   5.701   4.488  12.958  0.4264 -0.7811  1.3971
11057TIP3   OH254585   4.223   3.230   2.482 -0.0949  0.3064 -0.3115
11057TIP3    H154586   4.289   3.234   2.413 -1.2127  1.7829 -1.2946
11057TIP3    H254587   4.149   3.186   2.442 -0.6927  1.0386 -0.0170
11058TIP3   OH254588   5.665   0.158   0.148 -0.4708 -0.1988  0.3163
11058TIP3    H154589   5.694   0.177   0.059 -0.7259  1.2655  0.5256
11058TIP3    H254590   5.576   0.124   0.137  0.1826 -1.7600 -0.1122
11059TIP3   OH254591   3.837   3.280   2.701 -0.6325  0.0190 -0.2930
11059TIP3    H154592   3.816   3.197   2.745  0.0719  0.7424  1.4800
11059TIP3    H254593   3.926   3.299   2.730 -1.1358  1.8702  0.0979
11060TIP3   OH254594   6.113   5.337  16.903 -0.2204  0.1521  0.2790
11060TIP3    H154595   6.087   5.309  16.816  1.2860 -3.6858  0.9620
11060TIP3    H254596   6.196   5.383  16.890 -0.7094  0.8398 -0.4456
11061TIP3   OH254597   6.187   5.679   3.773 -0.0214  0.0487  0.1078
11061TIP3    H154598   6.171   5.749   3.836  1.1731 -1.1794  1.8744
11061TIP3    H254599   6.253   5.714   3.714 -0.9394  1.1228 -0.2828
11062TIP3   OH254600   1.096   4.610  16.746  0.0239  0.6177 -0.0021
11062TIP3    H154601   1.033   4.673  16.711  0.2621  1.1292  0.4994
11062TIP3    H254602   1.125   4.648  16.829  1.0643  0.4256 -0.2739
11063TIP3   OH254603   6.486   1.846  13.490  0.3879 -0.2822  0.5935
11063TIP3    H154604   6.509   1.938  13.505 -0.1113 -0.2831  1.4075
11063TIP3    H254605   6.564   1.797  13.518  0.7579 -0.0895 -0.1085
11064TIP3   OH254606   0.133   0.396   5.535  0.0691 -0.0977 -0.2907
11064TIP3    H154607   0.192   0.471   5.522 -0.3750  0.3841  0.4233
11064TIP3    H254608   0.169   0.352   5.613  0.3215 -0.6248 -0.7019
11065TIP3   OH254609   2.833   6.628  15.792 -0.4700  0.2338  0.0238
11065TIP3    H154610   2.816   6.722  15.785  0.7013  0.5516  1.1927
11065TIP3    H254611   2.749   6.591  15.820 -1.5234  0.6305 -2.5198
11066TIP3   OH254612   4.987   5.606   1.823  0.2011 -0.7813 -0.1764
11066TIP3    H154613   5.031   5.536   1.776  3.0948 -0.2013  1.5520
11066TIP3    H254614   5.012   5.686   1.776  0.7234 -0.4876  0.5880
11067TIP3   OH254615   6.608   4.360  11.360  0.5088  0.7199 -0.6708
11067TIP3    H154616   6.555   4.435  11.389  0.8077 -0.5565  3.4998
11067TIP3    H254617   6.547   4.286  11.359  0.9314  0.3821 -1.5434
11068TIP3   OH254618   4.084   2.067  12.169 -0.0532 -0.1648 -0.0889
11068TIP3    H154619   4.138   2.020  12.232  1.3679  1.3952 -0.1191
11068TIP3    H254620   3.998   2.024  12.174  0.9585 -2.1595  0.5200
11069TIP3   OH254621   1.466   0.656   0.570  0.2236 -0.7083 -0.5316
11069TIP3    H154622   1.530   0.721   0.600 -0.3156 -0.0854 -0.7336
11069TIP3    H254623   1.478   0.653   0.475  0.1229 -0.7720 -0.5422
11070TIP3   OH254624   6.032   4.788   3.935  0.4371  0.2417  0.0748
11070TIP3    H154625   6.008   4.861   3.878 -0.2019  0.5158  0.6890
11070TIP3    H254626   6.073   4.725   3.877  0.1174  0.6758 -0.6278
11071TIP3   OH254627   1.415   5.785   2.339 -0.0842 -0.6941  0.2219
11071TIP3    H154628   1.426   5.878   2.317 -1.1399 -0.9933 -1.6784
11071TIP3    H254629   1.434   5.780   2.433 -2.3937  1.8566  0.8880
11072TIP3   OH254630   5.412   0.237  14.162 -0.3222  0.2536 -0.1587
11072TIP3    H154631   5.498   0.267  14.191 -1.3151  1.5806  1.5189
11072TIP3    H254632   5.408   0.145  14.189  1.1862 -0.3318 -1.7654
11073TIP3   OH254633   4.435   3.172   4.213  0.1922  0.4258  0.0565
11073TIP3    H154634   4.356   3.217   4.182 -1.8627 -2.2026  1.3542
11073TIP3    H254635   4.432   3.086   4.171  3.4393  0.9470 -1.4183
11074TIP3   OH254636   1.487   6.194  11.375 -0.1746 -0.2739  0.2953
11074TIP3    H154637   1.575   6.215  11.344 -0.4548 -2.0250 -1.8242
11074TIP3    H254638   1.429   6.244  11.318 -0.5882  0.8870  1.6933
11075TIP3   OH254639   3.700   5.334   4.219 -0.0454 -0.2036  0.5422
11075TIP3    H154640   3.706   5.429   4.227 -0.1463 -0.2305  0.9445
11075TIP3    H254641   3.619   5.311   4.264  0.0301 -0.4912  0.5352
11076TIP3   OH254642   4.772   3.500   4.968 -0.4189 -0.7612  0.2228
11076TIP3    H154643   4.838   3.568   4.960  0.7274 -1.5004  2.9381
11076TIP3    H254644   4.700   3.541   5.016  0.0617 -1.3176  1.4221
11077TIP3   OH254645   6.678   3.263  16.235  0.9677  0.1839  0.0765
11077TIP3    H154646   6.602   3.206  16.225  1.3316 -0.2240 -0.4295
11077TIP3    H254647   6.650   3.331  16.295  0.9792 -1.3850  1.9199
11078TIP3   OH254648   1.002   6.732   0.458 -0.2885  0.1674 -0.4637
11078TIP3    H154649   0.993   6.655   0.513 -0.4478  0.9394  0.6018
11078TIP3    H254650   1.071   6.784   0.499  0.3816  0.2225 -1.6230
11079TIP3   OH254651   3.273   4.654  17.204 -0.3330  0.2811  0.1249
11079TIP3    H154652   3.234   4.733  17.167 -1.0177 -1.0000 -2.0202
11079TIP3    H254653   3.268   4.666  17.299 -1.8262  2.1370 -0.1641
11080TIP3   OH254654   5.283   2.465   5.245 -0.0223  0.3302  0.1269
11080TIP3    H154655   5.371   2.430   5.231  0.3431  0.9735  0.7939
11080TIP3    H254656   5.234   2.438   5.167  0.3154 -1.4456  0.4970
11081TIP3   OH254657   1.862   0.767   1.476  0.0312  0.4582  0.1325
11081TIP3    H154658   1.826   0.809   1.398  0.2650 -0.1683 -0.3180
11081TIP3    H254659   1.870   0.675   1.452 -0.4109  0.1706  1.0913
11082TIP3   OH254660   5.358   1.663  10.979 -0.0064  0.4634 -0.5141
11082TIP3    H154661   5.332   1.752  11.004  0.0934  1.0037 -2.2578
11082TIP3    H254662   5.347   1.661  10.884  0.8215 -1.1271 -0.5885
11083TIP3   OH254663   1.188   4.613  17.139  0.7955 -0.0495 -0.3735
11083TIP3    H154664   1.200   4.641  17.229  2.0920  0.2456 -0.6303
11083TIP3    H254665   1.222   4.685  17.086 -1.0448  0.2968 -1.1291
11084TIP3   OH254666   0.018   6.020  17.195 -0.4694  0.0670  0.3607
11084TIP3    H154667  -0.006   5.942  17.144 -2.5474  1.2626 -0.5344
11084TIP3    H254668   0.090   6.059  17.145 -0.9301 -0.0528 -0.4075
11085TIP3   OH254669   5.066   5.614   4.491  0.0919 -0.1521  0.5656
11085TIP3    H154670   5.155   5.629   4.458 -0.1385 -0.2258 -0.0943
11085TIP3    H254671   5.048   5.690   4.546  0.3749  0.1077  0.3004
11086TIP3   OH254672   6.408   0.965   3.232 -0.2225 -0.0138  0.5867
11086TIP3    H154673   6.387   0.878   3.267  1.5957 -0.5636  0.3450
11086TIP3    H254674   6.437   0.949   3.143  1.4806  0.6870  1.0046
11087TIP3   OH254675   5.296   5.484  11.730 -0.7392 -0.6224 -0.1969
11087TIP3    H154676   5.292   5.449  11.641 -0.3444 -0.0767 -0.4289
11087TIP3    H254677   5.208   5.469  11.766 -1.0398 -0.4159 -0.8378
11088TIP3   OH254678   0.429   6.653  14.367  0.3042  0.0207  0.2739
11088TIP3    H154679   0.395   6.564  14.369  0.8641 -0.2014  0.0486
11088TIP3    H254680   0.439   6.677  14.459  0.9290 -0.4521  0.3308
11089TIP3   OH254681   5.316   0.142  10.660 -0.0318 -0.6338 -0.0354
11089TIP3    H154682   5.395   0.089  10.647 -0.2325 -0.5980 -1.5357
11089TIP3    H254683   5.338   0.227  10.622 -1.2095 -1.0178 -1.6683
11090TIP3   OH254684   4.290   3.836  16.094 -0.1636 -0.3895 -0.1867
11090TIP3    H154685   4.229   3.850  16.166  1.0488  0.3248  0.7314
11090TIP3    H254686   4.245   3.870  16.017 -0.1847  1.9072  0.7951
11091TIP3   OH254687   4.144   3.473   3.177 -0.4066  0.5005 -0.1781
11091TIP3    H154688   4.105   3.478   3.264 -0.0402  1.1905 -0.0500
11091TIP3    H254689   4.161   3.380   3.163 -0.8788  0.3421  0.3044
11092TIP3   OH254690   0.074   1.693  10.756 -0.0286  0.0693  0.1977
11092TIP3    H154691   0.006   1.631  10.727 -1.5079  1.5124  0.4692
11092TIP3    H254692   0.025   1.761  10.803  1.5346  1.5043 -0.2085
11093TIP3   OH254693   4.451   0.902   1.562  0.2644 -0.3061 -0.1934
11093TIP3    H154694   4.462   0.938   1.474  0.8155 -0.2827 -0.1193
11093TIP3    H254695   4.527   0.846   1.575  0.7569  0.5332  0.6746
11094TIP3   OH254696   6.043   1.768   1.000  0.7122 -0.1040  0.3619
11094TIP3    H154697   6.123   1.715   0.997  0.8205  0.1220 -0.8225
11094TIP3    H254698   6.051   1.818   1.081  0.4169 -2.1861  1.7290
11095TIP3   OH254699   0.179   0.430   5.829  0.1267 -0.3412  0.1572
11095TIP3    H154700   0.222   0.515   5.819 -0.3495 -0.0486  0.5958
11095TIP3    H254701   0.185   0.411   5.922 -0.0479 -0.6412  0.1065
11096TIP3   OH254702   5.396   5.304  14.439  0.2609  0.0493 -0.0054
11096TIP3    H154703   5.425   5.370  14.376 -1.8720  0.8100 -0.2163
11096TIP3    H254704   5.383   5.352  14.521  0.3142 -0.4204  0.2836
11097TIP3   OH254705   2.921   6.419  11.541  0.6669 -0.0844 -0.3112
11097TIP3    H154706   2.968   6.335  11.535 -0.0744 -0.5013 -0.3750
11097TIP3    H254707   2.856   6.405  11.611 -0.6621 -0.1742 -1.5352
11098TIP3   OH254708   3.056   0.389   1.894 -0.1341 -0.2553 -0.0131
11098TIP3    H154709   3.019   0.475   1.913 -0.5340 -0.5516  0.6112
11098TIP3    H254710   3.150   0.398   1.909  0.1118  0.6118 -1.9937
11099TIP3   OH254711   5.798   1.871   3.603 -0.3191  0.1355  0.1725
11099TIP3    H154712   5.799   1.846   3.510 -0.6775  0.0035  0.2029
11099TIP3    H254713   5.888   1.895   3.623  0.0740 -1.3655  0.2081
11100TIP3   OH254714   0.135   5.997   4.386  0.4046 -0.2486 -0.0434
11100TIP3    H154715   0.212   5.941   4.377  0.9431  0.2208  1.4352
11100TIP3    H254716   0.171   6.085   4.396 -0.2445 -0.1479  1.7051
11101TIP3   OH254717   0.380   3.533   2.029  0.3980  0.4005 -0.3709
11101TIP3    H154718   0.467   3.517   2.066  0.1165 -1.0857 -0.3274
11101TIP3    H254719   0.385   3.494   1.941 -0.7557 -1.1964  0.2601
11102TIP3   OH254720   4.296   2.140  16.245 -0.2893  0.6690 -0.7636
11102TIP3    H154721   4.284   2.210  16.310 -2.2017  0.9240 -1.3494
11102TIP3    H254722   4.289   2.184  16.161  0.3376  0.0443 -1.1459
11103TIP3   OH254723   5.597   5.211  12.577 -0.3152 -0.2081 -0.3533
11103TIP3    H154724   5.543   5.283  12.608 -0.4417  0.0457 -1.1441
11103TIP3    H254725   5.664   5.252  12.523  0.3831 -0.5680  0.2272
11104TIP3   OH254726   0.223   2.965  11.293 -0.7505  0.3282  0.2131
11104TIP3    H154727   0.141   2.923  11.317  0.7491 -1.8791  1.6346
11104TIP3    H254728   0.251   2.919  11.214  0.6588 -1.0650  1.5030
11105TIP3   OH254729   4.581   4.605  10.587  0.4938 -0.1994 -0.1172
11105TIP3    H154730   4.606   4.517  10.559 -0.9947 -0.4838 -0.6245
11105TIP3    H254731   4.542   4.592  10.673  0.8591  0.0570  0.0876
11106TIP3   OH254732   0.780   0.993   4.535 -0.3483  0.2597  0.4943
11106TIP3    H154733   0.762   1.002   4.629 -1.1497  2.1836  0.1713
11106TIP3    H254734   0.871   1.019   4.526 -0.0762 -0.5548  0.8181
11107TIP3   OH254735   4.385   4.044  12.105  0.6568 -0.4515  0.0540
11107TIP3    H154736   4.422   4.128  12.133  1.9771 -1.1929  0.5607
11107TIP3    H254737   4.456   3.982  12.115 -1.6953 -2.6504  4.6709
11108TIP3   OH254738   5.659   1.924   0.966  0.1525  1.2757  0.6879
11108TIP3    H154739   5.565   1.923   0.945  0.3784  1.1746 -0.3737
11108TIP3    H254740   5.663   1.938   1.060 -0.9520  0.5704  0.8451
11109TIP3   OH254741   3.349   6.780   1.296 -0.4362 -0.2879 -0.0523
11109TIP3    H154742   3.384   6.765   1.208  2.1952  1.4036  0.6746
11109TIP3    H254743   3.304   6.864   1.290  2.6705  1.4914  1.0348
11110TIP3   OH254744   2.684   0.079   2.879  0.1463  0.1426  0.1588
11110TIP3    H154745   2.758   0.032   2.840 -0.3212 -0.8292  0.4263
11110TIP3    H254746   2.617   0.078   2.810 -0.9689 -2.2602  1.2050
11111TIP3   OH254747   4.320   0.468   3.967  0.3428  0.9060 -0.6633
11111TIP3    H154748   4.409   0.451   3.999 -0.2834  0.2252  0.7312
11111TIP3    H254749   4.269   0.392   3.994 -0.4139  0.6952 -2.5612
11112TIP3   OH254750   6.221   4.954   1.994  0.5101  0.4447  0.0995
11112TIP3    H154751   6.241   4.903   2.073 -1.6451 -0.9121 -0.1883
11112TIP3    H254752   6.286   4.924   1.929 -0.6122 -1.8528 -0.0159
11113TIP3   OH254753   1.274   0.765   1.876  0.9577  0.1400 -0.0437
11113TIP3    H154754   1.275   0.859   1.893  0.1087  0.5058 -1.8675
11113TIP3    H254755   1.285   0.758   1.781  0.2926 -1.5607 -0.0080
11114TIP3   OH254756   5.174   3.176   0.027  0.4443  0.4846 -0.5064
11114TIP3    H154757   5.205   3.092  -0.007 -0.8705 -0.7704  1.2997
11114TIP3    H254758   5.241   3.203   0.091 -0.0109 -0.0885  0.2213
11115TIP3   OH254759   2.689   1.918   4.635  0.0393 -0.2980  0.1438
11115TIP3    H154760   2.691   1.960   4.549 -0.9290  1.4329  0.9319
11115TIP3    H254761   2.771   1.944   4.677  0.6816 -1.4480 -0.3849
11116TIP3   OH254762   1.816   0.553  14.417 -0.1556 -0.1711 -0.3464
11116TIP3    H154763   1.804   0.586  14.327  0.7069  0.0272 -0.3945
11116TIP3    H254764   1.893   0.497  14.411  0.7329  0.9385  0.5580
11117TIP3   OH254765   3.691   1.570  12.186  0.4320 -0.3217 -0.3261
11117TIP3    H154766   3.717   1.599  12.099 -0.5669  0.9326 -0.2206
11117TIP3    H254767   3.760   1.603  12.244  0.6072 -0.3406 -0.5232
11118TIP3   OH254768   4.111   0.181   2.875 -0.2941 -0.3269  0.0613
11118TIP3    H154769   4.057   0.123   2.822  0.1272  1.1354 -2.0009
11118TIP3    H254770   4.054   0.210   2.946 -1.2272 -1.3103 -0.2793
11119TIP3   OH254771   5.708   3.461  11.531 -0.0059  0.5484 -0.2012
11119TIP3    H154772   5.770   3.531  11.551  2.9343 -1.8223 -0.7357
11119TIP3    H254773   5.722   3.443  11.438 -1.7759  0.2147 -0.4252
11120TIP3   OH254774   4.121   6.293  15.307 -0.2265 -0.1848  0.1356
11120TIP3    H154775   4.051   6.281  15.244  0.9632 -2.9675 -0.7425
11120TIP3    H254776   4.101   6.376  15.350 -1.9388  0.9628 -2.7351
11121TIP3   OH254777   1.449   3.171  13.015  0.0795 -0.0209 -0.4809
11121TIP3    H154778   1.535   3.198  13.048 -0.4947  0.1249  0.9655
11121TIP3    H254779   1.466   3.134  12.928  1.8511 -1.6487  0.5142
11122TIP3   OH254780   1.516   4.364  13.395  0.1623 -0.4160  0.0692
11122TIP3    H154781   1.548   4.445  13.435 -1.7662  0.2515  0.2854
11122TIP3    H254782   1.590   4.332  13.343  1.9740 -0.1521  2.4219
11123TIP3   OH254783   2.451   4.215   0.378 -0.6183  0.3702 -0.1504
11123TIP3    H154784   2.532   4.241   0.422 -0.9457 -0.7671  1.1969
11123TIP3    H254785   2.385   4.274   0.414 -0.4628  1.0204 -0.9309
11124TIP3   OH254786   2.105   2.885  11.433  0.5975  0.0303 -0.4019
11124TIP3    H154787   2.153   2.804  11.447  1.3209  0.8142  1.9419
11124TIP3    H254788   2.083   2.916  11.521 -0.4456  1.9187 -1.2732
11125TIP3   OH254789   3.171   2.273   1.279  0.1230  0.8195  0.5655
11125TIP3    H154790   3.228   2.342   1.311 -0.2272  1.3141  0.1294
11125TIP3    H254791   3.162   2.290   1.185 -0.5392  0.6019  0.5857
11126TIP3   OH254792   2.908   6.172   4.324 -0.1707 -0.0596 -0.5513
11126TIP3    H154793   2.829   6.198   4.372  0.5615 -0.4162  0.9055
11126TIP3    H254794   2.980   6.194   4.384  0.7934 -0.3238 -1.5983
11127TIP3   OH254795   0.972   0.363   3.139 -0.2390  0.6967 -0.3373
11127TIP3    H154796   0.976   0.313   3.058  0.0297  2.2354 -1.2975
11127TIP3    H254797   0.909   0.316   3.194  0.9689 -1.3929 -0.7024
11128TIP3   OH254798   4.240   3.241   1.930  0.4559  0.0915 -0.0448
11128TIP3    H154799   4.299   3.297   1.879  0.1089  0.6173  0.1278
11128TIP3    H254800   4.185   3.199   1.864  0.7735 -0.1184 -0.1804
11129TIP3   OH254801   5.749   5.828   2.025  0.4195  0.3207 -0.2330
11129TIP3    H154802   5.815   5.896   2.014 -0.1328  0.7248 -1.1320
11129TIP3    H254803   5.799   5.748   2.042  1.1389  0.6168 -0.9080
11130TIP3   OH254804   1.044   0.751  14.001 -0.0142  0.1692  0.1579
11130TIP3    H154805   1.078   0.824  14.053 -0.1282  1.2169 -1.2094
11130TIP3    H254806   1.096   0.753  13.921 -1.5461  0.1761 -0.8520
11131TIP3   OH254807   4.547   4.596  15.561 -0.0423  0.4754 -0.3935
11131TIP3    H154808   4.579   4.669  15.614  0.1626  0.1202 -0.0266
11131TIP3    H254809   4.469   4.630  15.517  0.0423  0.9079 -0.2079
11132TIP3   OH254810   3.400   5.357   2.441  0.3708  0.0426 -0.3007
11132TIP3    H154811   3.484   5.394   2.417  1.5044 -0.6282  2.4831
11132TIP3    H254812   3.360   5.421   2.500 -0.5606 -0.1829 -0.6676
11133TIP3   OH254813   0.321   6.044   2.498 -0.1342  0.4149 -0.4181
11133TIP3    H154814   0.337   6.138   2.487  0.2396  0.2663 -1.2292
11133TIP3    H254815   0.236   6.030   2.456 -0.1508  0.3735 -0.3706
11134TIP3   OH254816   2.996   5.536  13.125 -0.1656  0.0767  0.2506
11134TIP3    H154817   2.913   5.502  13.091 -0.8630  0.1004  1.8472
11134TIP3    H254818   3.044   5.458  13.154 -0.6025  0.2030  1.3777
11135TIP3   OH254819   3.867   4.732   4.802 -0.3105 -0.7918 -0.0516
11135TIP3    H154820   3.848   4.640   4.787  0.7213 -1.1726  0.8720
11135TIP3    H254821   3.959   4.734   4.829 -0.2902  0.5130 -0.1639
11136TIP3   OH254822   6.566   3.307   1.523  0.0615 -0.7297 -0.0626
11136TIP3    H154823   6.524   3.392   1.532 -0.4464 -0.6341 -2.7514
11136TIP3    H254824   6.500   3.252   1.481  1.2983 -1.6764 -0.8223
11137TIP3   OH254825   3.101   1.804  15.054  0.3206 -0.3867  0.3180
11137TIP3    H154826   3.064   1.873  14.998  3.2678  0.5656 -0.5062
11137TIP3    H254827   3.188   1.788  15.018  2.1610 -0.0555  4.3754
11138TIP3   OH254828   2.857   6.758   1.457 -0.4054 -0.0163 -0.0148
11138TIP3    H154829   2.875   6.841   1.412 -0.1641 -0.7531 -1.2818
11138TIP3    H254830   2.897   6.691   1.401  1.7663 -0.7798  2.3535
11139TIP3   OH254831   5.316   3.548   3.284  0.2369 -0.0414 -0.0672
11139TIP3    H154832   5.345   3.464   3.249  1.1158 -0.0799  0.7152
11139TIP3    H254833   5.373   3.613   3.243 -0.3322  0.1592 -0.5461
11140TIP3   OH254834   2.976   3.324   2.904 -0.1507 -0.1463  0.2511
11140TIP3    H154835   3.064   3.362   2.902 -0.7264  1.3105  1.5748
11140TIP3    H254836   2.987   3.240   2.947  0.8079 -0.5759 -0.8123
11141TIP3   OH254837   3.116   0.344   4.208 -0.5124 -0.4862  0.0582
11141TIP3    H154838   3.069   0.262   4.219 -3.0970  0.5944 -2.2586
11141TIP3    H254839   3.153   0.339   4.120 -0.4729  0.7005 -0.0021
11142TIP3   OH254840   3.501   0.698  16.479  0.5604  0.7035 -0.2341
11142TIP3    H154841   3.562   0.691  16.552 -0.4153  0.9436  0.6198
11142TIP3    H254842   3.479   0.791  16.475  2.4402  1.1118 -2.3817
11143TIP3   OH254843   3.965   3.573   5.132 -0.8179  0.2656 -0.4523
11143TIP3    H154844   4.008   3.489   5.147  1.2950  1.3440 -0.3213
11143TIP3    H254845   3.896   3.577   5.198 -0.7132 -1.2262 -0.2451
11144TIP3   OH254846   5.934   2.889   4.976 -0.3485 -0.3200 -0.4206
11144TIP3    H154847   5.957   2.796   4.978 -1.8889 -0.7031  0.8152
11144TIP3    H254848   6.006   2.933   5.021  0.7522 -0.8054 -1.6630
11145TIP3   OH254849   6.056   5.818   4.281  0.4113 -0.5157 -0.4832
11145TIP3    H154850   6.072   5.769   4.362 -0.3849 -1.0968 -0.6820
11145TIP3    H254851   6.088   5.906   4.301  1.3290 -0.9603  0.0649
11146TIP3   OH254852   4.953   6.446  16.087 -0.2487  0.2037  0.4860
11146TIP3    H154853   4.888   6.404  16.030 -0.6574  1.8006 -0.2333
11146TIP3    H254854   5.037   6.426  16.046 -0.4535  0.2337  0.0460
11147TIP3   OH254855   3.778   3.406  14.913 -0.0382  0.1764 -0.0442
11147TIP3    H154856   3.836   3.476  14.883 -2.1695  1.3228 -1.6164
11147TIP3    H254857   3.778   3.343  14.841  0.6878 -0.7475  0.7419
11148TIP3   OH254858   5.788   3.908   2.537  1.1060  0.0453  0.3918
11148TIP3    H154859   5.849   3.958   2.483 -1.0645  1.1719 -1.0856
11148TIP3    H254860   5.771   3.828   2.486  0.9088  0.0008  0.5236
11149TIP3   OH254861   4.936   3.974   6.499  0.7565  0.2251 -0.2171
11149TIP3    H154862   5.022   3.943   6.472  1.2788  0.9072  0.6295
11149TIP3    H254863   4.899   4.015   6.421  2.3122  2.3290  0.1192
11150TIP3   OH254864   2.747   6.101   2.596 -0.2907 -0.1929 -0.0003
11150TIP3    H154865   2.764   6.085   2.503  1.4896 -0.7904  0.4041
11150TIP3    H254866   2.702   6.022   2.626 -2.4568  0.7159 -0.7100
11151TIP3   OH254867   3.974   4.574   4.343  0.1395  0.1147  0.2603
11151TIP3    H154868   4.025   4.635   4.290 -1.5988  0.2366 -1.3259
11151TIP3    H254869   3.950   4.503   4.284  0.6133 -1.2210  1.6354
11152TIP3   OH254870   0.282   1.931   0.048 -0.3145 -0.2439  0.2627
11152TIP3    H154871   0.332   2.012   0.038 -1.0726  0.3329  0.9997
11152TIP3    H254872   0.238   1.920  -0.037  0.0536 -0.0562  0.0496
11153TIP3   OH254873   5.770   2.291  15.999  0.8068  0.4155  0.2515
11153TIP3    H154874   5.787   2.198  16.008  0.1043  0.1879 -0.6468
11153TIP3    H254875   5.735   2.318  16.083 -2.1104 -0.8408 -0.4918
11154TIP3   OH254876   5.393   3.094  11.209 -0.0585 -0.2712 -0.2810
11154TIP3    H154877   5.324   3.034  11.239 -2.0631  2.1142  0.0821
11154TIP3    H254878   5.345   3.174  11.184  2.7837  2.3295  2.2512
11155TIP3   OH254879   1.729   6.234  13.398 -0.4899 -0.3234  0.0323
11155TIP3    H154880   1.637   6.209  13.411 -0.2736 -1.4827 -0.5776
11155TIP3    H254881   1.778   6.175  13.455 -0.1186  0.3529  0.4181
11156TIP3   OH254882   2.234   2.871   3.144 -0.4358 -0.3997  0.4440
11156TIP3    H154883   2.149   2.861   3.102 -0.4791 -0.5376  0.5652
11156TIP3    H254884   2.253   2.964   3.139  0.2839 -0.6148 -1.3120
11157TIP3   OH254885   4.468   5.678   0.496 -0.0583 -0.2732 -0.2282
11157TIP3    H154886   4.547   5.624   0.496  0.8653  1.0159  0.9142
11157TIP3    H254887   4.479   5.734   0.573 -1.1727  1.2506 -1.1627
11158TIP3   OH254888   2.344   2.772   3.390  0.4119  0.1652  0.2350
11158TIP3    H154889   2.297   2.811   3.316  2.4923 -1.2717 -1.9334
11158TIP3    H254890   2.292   2.695   3.413  1.0111 -0.7176 -1.3165
11159TIP3   OH254891   4.388   4.279  11.244  0.2439  0.3989  0.2484
11159TIP3    H154892   4.328   4.352  11.257 -1.6645 -1.1608  0.4943
11159TIP3    H254893   4.430   4.267  11.329  0.0718  0.7870  0.3884
11160TIP3   OH254894   5.071   5.353   4.416 -0.3486  0.1651 -0.2328
11160TIP3    H154895   5.110   5.435   4.443 -2.4913  1.2162 -0.2271
11160TIP3    H254896   5.071   5.299   4.495  0.1413  0.5320  0.0148
11161TIP3   OH254897   4.698   4.349  12.619 -0.0629  0.0609 -0.3610
11161TIP3    H154898   4.773   4.297  12.592 -1.1185 -1.4037 -0.5372
11161TIP3    H254899   4.684   4.325  12.711  0.4873  1.3270  0.0641
11162TIP3   OH254900   2.621   2.527   4.413 -0.2462 -0.1344 -0.1279
11162TIP3    H154901   2.528   2.506   4.401 -0.0815 -1.5141  0.9420
11162TIP3    H254902   2.635   2.603   4.357 -1.8315 -0.4025 -0.9233
11163TIP3   OH254903   4.150   2.934   3.793 -0.2508  0.4636  0.1649
11163TIP3    H154904   4.202   2.977   3.860 -0.0632  3.5242 -1.8860
11163TIP3    H254905   4.066   2.915   3.836 -0.1028  2.2976  1.3039
11164TIP3   OH254906   5.797   3.913   1.526 -0.4207  0.0332  0.5649
11164TIP3    H154907   5.843   3.956   1.455 -0.7583 -0.8427 -0.1951
11164TIP3    H254908   5.834   3.824   1.529  0.5384  0.4669  2.3569
11165TIP3   OH254909   6.723   0.627  13.124 -0.0260 -0.3930  0.3118
11165TIP3    H154910   6.739   0.566  13.195  0.6515  0.1574  0.6373
11165TIP3    H254911   6.801   0.682  13.122 -0.2095 -0.1585 -0.6035
11166TIP3   OH254912   0.616   5.233  12.913  0.0940  0.1927 -0.1461
11166TIP3    H154913   0.687   5.290  12.943  1.3544 -0.8320 -1.1549
11166TIP3    H254914   0.582   5.194  12.994  2.1020 -0.9466  0.2035
11167TIP3   OH254915   5.995   5.108  15.476  0.2241  0.2737 -0.4576
11167TIP3    H154916   6.011   5.189  15.525 -0.4573 -0.4975  1.0399
11167TIP3    H254917   5.961   5.047  15.540  0.2505 -1.0643 -1.6971
11168TIP3   OH254918   2.138   5.657  15.530 -0.4909 -0.0966 -0.2842
11168TIP3    H154919   2.106   5.615  15.450 -0.5012 -1.6396  0.5236
11168TIP3    H254920   2.058   5.680  15.578 -0.4658  0.1942 -0.3771
11169TIP3   OH254921   5.023   6.347   2.189 -0.2522 -0.7568  0.1744
11169TIP3    H154922   5.063   6.406   2.253  1.5160 -0.2303 -1.3855
11169TIP3    H254923   5.040   6.259   2.223  0.8976 -0.4898  0.3006
11170TIP3   OH254924   0.730   3.025   5.577  0.0768  0.3094 -0.9507
11170TIP3    H154925   0.720   3.030   5.482  0.7563 -1.0638 -1.0995
11170TIP3    H254926   0.667   2.958   5.604 -2.1385  2.6170 -0.0709
11171TIP3   OH254927   3.376   6.186   1.465 -0.0987  0.0326  0.0513
11171TIP3    H154928   3.284   6.183   1.490  0.2867  0.3070  1.5865
11171TIP3    H254929   3.382   6.129   1.388 -0.9487 -2.7367  1.9543
11172TIP3   OH254930   4.747   6.556   1.531 -0.5126 -0.4218  0.4564
11172TIP3    H154931   4.736   6.481   1.589  1.7099 -1.4338 -0.3365
11172TIP3    H254932   4.796   6.620   1.582 -3.0561  0.8451  1.3838
11173TIP3   OH254933   0.112   6.234   0.635 -0.1024  0.2619  0.4594
11173TIP3    H154934   0.143   6.272   0.553  0.1798 -1.4546 -0.2437
11173TIP3    H254935   0.133   6.141   0.628 -1.4861 -0.1723  1.8240
11174TIP3   OH254936   3.034   2.329  13.879  0.2423 -0.0133 -0.9947
11174TIP3    H154937   2.968   2.341  13.811  0.0057  2.0894 -0.4146
11174TIP3    H254938   2.993   2.267  13.940 -1.4865  1.7322 -0.3295
11175TIP3   OH254939   4.899   5.299   6.004 -0.5606  0.2162  0.3863
11175TIP3    H154940   4.958   5.351   5.951 -1.4872  0.5177 -0.3725
11175TIP3    H254941   4.934   5.305   6.093  0.6454  0.2212 -0.0813
11176TIP3   OH254942   4.390   1.914   1.333 -0.0831  0.4348 -0.1673
11176TIP3    H154943   4.369   1.833   1.285  1.6663 -0.0309 -0.1993
11176TIP3    H254944   4.403   1.979   1.264 -0.8156  0.5771 -0.1728
11177TIP3   OH254945   3.950   6.308  12.494 -0.5436 -0.0538 -0.1606
11177TIP3    H154946   4.034   6.287  12.534 -1.8612 -3.1738  1.1221
11177TIP3    H254947   3.972   6.334  12.404  1.8128 -0.3859  0.2852
11178TIP3   OH254948   2.842   2.325   1.851  0.3422  0.6517 -0.0516
11178TIP3    H154949   2.852   2.312   1.757  0.7042  1.0414 -0.0733
11178TIP3    H254950   2.837   2.237   1.888  0.9443  0.4821 -0.3648
11179TIP3   OH254951   1.095   2.154   3.357  0.3903 -0.0245 -0.0410
11179TIP3    H154952   1.060   2.241   3.376  0.3428  0.6773 -3.1363
11179TIP3    H254953   1.165   2.143   3.421 -1.2576  1.2129  2.0456
11180TIP3   OH254954   1.250   2.150   5.149 -0.7187 -0.2255  0.0236
11180TIP3    H154955   1.188   2.160   5.221  2.4142  0.3365  2.7505
11180TIP3    H254956   1.268   2.056   5.147  1.2464  0.0847  1.8236
11181TIP3   OH254957   2.082   3.322  10.894 -0.6270  0.7995 -0.1708
11181TIP3    H154958   2.116   3.310  10.805 -0.4801  1.5294 -0.2202
11181TIP3    H254959   1.997   3.280  10.893 -0.9201  1.3932 -0.8597
11182TIP3   OH254960   2.599   3.222  10.427 -0.4545 -0.6194  0.4297
11182TIP3    H154961   2.678   3.167  10.435 -0.3677 -0.9000 -1.9725
11182TIP3    H254962   2.588   3.234  10.333 -3.3253 -0.5960  0.7318
11183TIP3   OH254963   5.568   1.780  13.194 -0.0343  0.0330  0.5511
11183TIP3    H154964   5.561   1.685  13.190  2.0387 -0.2367  2.2566
11183TIP3    H254965   5.495   1.812  13.141 -1.7007 -2.4807  1.2328
11184TIP3   OH254966   0.905   5.908  14.958 -0.1696 -0.4517  0.8756
11184TIP3    H154967   0.954   5.840  15.004  1.3894 -1.9554 -2.8177
11184TIP3    H254968   0.952   5.989  14.979  0.6634 -1.1235  1.6948
11185TIP3   OH254969   6.210   0.556   0.572 -0.2877  0.5728  0.0354
11185TIP3    H154970   6.283   0.614   0.551 -0.4559  0.4671 -0.8646
11185TIP3    H254971   6.160   0.551   0.491  0.3885 -1.7993 -0.2678
11186TIP3   OH254972   2.960   2.241  16.409 -0.5504  0.2798 -0.2568
11186TIP3    H154973   2.889   2.301  16.427 -0.8007  0.5515 -2.0063
11186TIP3    H254974   3.030   2.266  16.470 -0.8785  1.9415 -0.5371
11187TIP3   OH254975   3.440   5.084  15.379 -0.1760  0.0692  0.2834
11187TIP3    H154976   3.385   5.059  15.453  0.0120 -0.5876  0.1946
11187TIP3    H254977   3.487   5.005  15.355 -0.0438  0.3425 -0.3784
11188TIP3   OH254978   6.122   1.042  14.124  0.5276  0.8354  0.1834
11188TIP3    H154979   6.143   1.124  14.078 -1.4343  0.9146 -0.6242
11188TIP3    H254980   6.059   0.999  14.067  1.5172 -1.2488  0.6422
11189TIP3   OH254981   4.628   2.347  10.390  0.3407 -0.0659  0.5137
11189TIP3    H154982   4.695   2.386  10.334  0.1292  1.0710  1.0403
11189TIP3    H254983   4.677   2.313  10.465  0.2835  1.2850  1.1812
11190TIP3   OH254984   5.022   2.535   0.017  0.2299  0.2295 -0.2329
11190TIP3    H154985   5.087   2.512   0.084  0.2818  1.5650  0.1881
11190TIP3    H254986   5.073   2.550  -0.062  0.2784 -0.2532 -0.2934
11191TIP3   OH254987   2.829   0.962   1.899  0.0560 -0.2664 -0.4597
11191TIP3    H154988   2.915   1.001   1.882  2.2616 -4.1169  1.2879
11191TIP3    H254989   2.815   0.974   1.993 -1.7611  1.0834 -0.8758
11192TIP3   OH254990   1.367   3.036  11.671 -0.0358  0.4406  0.0300
11192TIP3    H154991   1.331   3.045  11.582  0.4695  0.7295 -0.1470
11192TIP3    H254992   1.406   2.949  11.672  3.7595  2.0360 -1.4329
11193TIP3   OH254993   1.868   1.354   1.262  0.4548  0.2916 -0.0293
11193TIP3    H154994   1.778   1.370   1.289  0.7001 -0.5465  1.3546
11193TIP3    H254995   1.862   1.323   1.172 -0.6555 -0.0060  0.1482
11194TIP3   OH254996   6.729   6.506  11.863 -0.2689  0.4714  0.0207
11194TIP3    H154997   6.736   6.601  11.872 -0.0684  0.5350 -0.7502
11194TIP3    H254998   6.808   6.481  11.814  0.6337 -0.3204  1.8400
11195TIP3   OH254999   4.800   5.161  11.917  0.4404  0.0320 -0.1172
11195TIP3    H155000   4.822   5.186  12.007  2.1644  0.0784 -0.5444
11195TIP3    H255001   4.744   5.232  11.886  1.5179  1.0440  0.2371
11196TIP3   OH255002   4.818   6.009  14.225 -0.2503 -0.4857  0.2127
11196TIP3    H155003   4.744   6.069  14.216  2.0108  2.6489  1.3662
11196TIP3    H255004   4.825   5.966  14.140 -1.8322  1.0492 -0.7301
11197TIP3   OH255005   4.508   5.819   5.901 -0.4504  0.2331  0.3389
11197TIP3    H155006   4.490   5.732   5.867 -0.3700 -0.3072  1.6568
11197TIP3    H255007   4.532   5.805   5.993  0.1762  1.5765  0.3945
11198TIP3   OH255008   4.526   4.414   1.005  0.0431  0.4446 -0.0717
11198TIP3    H155009   4.439   4.380   1.023  0.1228 -0.1295 -0.7450
11198TIP3    H255010   4.512   4.506   0.981 -0.3204  0.4929  0.3298
11199TIP3   OH255011   3.439   0.317  11.969  0.4123  0.1484  0.1602
11199TIP3    H155012   3.392   0.369  12.034 -1.4250 -0.2748 -0.8004
11199TIP3    H255013   3.437   0.228  12.004 -1.4922 -0.2696 -0.9289
11200TIP3   OH255014   4.612   4.107   5.613 -0.3088  0.2171  0.0683
11200TIP3    H155015   4.532   4.092   5.564 -0.6572 -1.5280  1.1248
11200TIP3    H255016   4.599   4.061   5.696  1.8939 -0.3578  0.1423
11201TIP3   OH255017   5.009   1.301   4.819  0.1423  0.1286 -0.2443
11201TIP3    H155018   5.064   1.380   4.826  0.1417  0.0746  0.3569
11201TIP3    H255019   4.972   1.289   4.907  0.6958 -0.9457 -0.1501
11202TIP3   OH255020   0.806   3.170   5.799  0.2206  0.5433  0.2178
11202TIP3    H155021   0.807   3.138   5.709  0.5227 -0.4823  0.5864
11202TIP3    H255022   0.797   3.092   5.853 -0.6918  1.2043  1.0567
11203TIP3   OH255023   4.392   5.004   0.710 -0.0087  0.2084  0.5411
11203TIP3    H155024   4.463   5.037   0.765  1.0777 -0.0984 -0.6656
11203TIP3    H255025   4.349   4.938   0.764  1.8006 -0.9520  0.5915
11204TIP3   OH255026   0.685   6.212   4.678 -0.0568  0.1110  0.5322
11204TIP3    H155027   0.774   6.186   4.704  0.4045  0.9005 -0.2259
11204TIP3    H255028   0.654   6.141   4.623 -1.1298 -1.6940  3.3634
11205TIP3   OH255029   1.188   3.019  12.745  0.4408  0.5669  0.2666
11205TIP3    H155030   1.191   2.926  12.723 -0.3086  0.8744 -1.1889
11205TIP3    H255031   1.147   3.061  12.669 -0.7202  1.8799  1.5800
11206TIP3   OH255032   1.058   5.671  17.053 -0.4220 -0.4122  0.5827
11206TIP3    H155033   1.063   5.671  16.957 -0.3654 -2.6165  0.5746
11206TIP3    H255034   1.069   5.763  17.077 -0.2401  0.1390 -1.5202
11207TIP3   OH255035   1.272   3.822   0.797  0.0438 -0.5865  0.1429
11207TIP3    H155036   1.228   3.769   0.731 -0.5460  0.5901 -0.4401
11207TIP3    H255037   1.309   3.759   0.859  0.5646 -1.7100 -1.2890
11208TIP3   OH255038   6.075   2.038  15.479  0.0189 -0.2362  0.3167
11208TIP3    H155039   6.039   1.957  15.515 -1.2705  0.7059  1.2126
11208TIP3    H255040   6.064   2.103  15.549  0.0965  0.9537 -0.7493
11209TIP3   OH255041   3.100   0.847  13.040 -0.3899 -0.2035 -0.0520
11209TIP3    H155042   3.054   0.797  13.107  0.4093  0.4817  1.0174
11209TIP3    H255043   3.038   0.916  13.015 -0.0497  0.5717  1.2099
11210TIP3   OH255044   5.386   4.238  12.005  0.5286  0.3492  0.3949
11210TIP3    H155045   5.360   4.185  11.930  1.9970  0.6196 -0.3406
11210TIP3    H255046   5.407   4.175  12.073  1.3315 -0.0065 -0.1655
11211TIP3   OH255047   1.361   0.105  16.790 -0.0773  0.0296  0.0554
11211TIP3    H155048   1.300   0.171  16.758 -0.3516 -0.4792 -0.4832
11211TIP3    H255049   1.430   0.155  16.834  0.2418  0.7398 -1.2228
11212TIP3   OH255050   6.214   2.610  13.203  0.5217 -0.0958 -0.0381
11212TIP3    H155051   6.213   2.700  13.237 -0.9895 -0.0851 -0.0885
11212TIP3    H255052   6.301   2.600  13.165  0.5379  1.5136 -0.4677
11213TIP3   OH255053   2.951   5.858  13.643 -0.7157  0.5356 -0.4356
11213TIP3    H155054   2.981   5.906  13.720 -2.2508  1.4697 -0.3997
11213TIP3    H255055   3.028   5.854  13.586  0.0321  1.0969  0.5111
11214TIP3   OH255056   3.788   2.522   4.381 -0.3418  0.1854  0.5793
11214TIP3    H155057   3.800   2.437   4.338 -1.4509 -0.2666  1.1238
11214TIP3    H255058   3.873   2.564   4.375 -0.1308 -0.4138 -0.8799
11215TIP3   OH255059   1.856   6.396  15.448  0.2017  0.0835  0.7071
11215TIP3    H155060   1.796   6.427  15.516 -1.1668  0.6397 -0.7145
11215TIP3    H255061   1.901   6.475  15.418 -1.6061  0.3796 -1.3125
11216TIP3   OH255062   5.561   2.955  16.804 -0.6497  0.7820 -0.3916
11216TIP3    H155063   5.538   2.922  16.717 -2.4467 -0.9362  0.6986
11216TIP3    H255064   5.613   2.884  16.843  3.3882  3.0480 -1.3820
11217TIP3   OH255065   3.054   3.845   3.011 -0.0610 -0.3548 -0.4945
11217TIP3    H155066   3.031   3.756   2.982  1.8056 -0.8104 -0.6728
11217TIP3    H255067   3.132   3.833   3.065  0.1160  1.1810 -0.3854
11218TIP3   OH255068   1.250   5.533   1.507  0.2054 -0.6046  0.3084
11218TIP3    H155069   1.236   5.626   1.528 -1.8664 -1.1264  1.3836
11218TIP3    H255070   1.343   5.527   1.487  0.6745  1.4400  1.6953
11219TIP3   OH255071   3.778   1.297  11.881 -0.2351  0.0142  0.3914
11219TIP3    H155072   3.763   1.208  11.850  0.8144  0.0311 -0.2154
11219TIP3    H255073   3.731   1.302  11.964 -0.3520 -1.0820  0.4028
11220TIP3   OH255074   3.600   2.315   1.014  0.4321 -0.1657  0.2975
11220TIP3    H155075   3.541   2.254   0.969  0.0117  1.3705 -1.3141
11220TIP3    H255076   3.580   2.400   0.975  0.4069  1.1744  3.0751
11221TIP3   OH255077   0.134   3.654   4.141 -0.1148 -0.2478 -0.1406
11221TIP3    H155078   0.066   3.700   4.091 -0.2029  1.4671  1.5064
11221TIP3    H255079   0.086   3.591   4.194 -0.2256 -0.5502 -0.6007
11222TIP3   OH255080   6.241   1.728   4.879 -0.4039 -0.5540 -0.9148
11222TIP3    H155081   6.220   1.750   4.970 -0.7212 -0.1966 -1.0715
11222TIP3    H255082   6.299   1.800   4.851  0.8165 -1.3874 -0.5685
11223TIP3   OH255083   3.496   5.497   0.895  0.0057 -0.4843  0.1761
11223TIP3    H155084   3.489   5.587   0.864  1.4891 -0.2933  0.3552
11223TIP3    H255085   3.468   5.501   0.987  0.1799 -0.1817  0.2168
11224TIP3   OH255086   5.257   3.661   2.797 -0.5335 -0.3193  0.2075
11224TIP3    H155087   5.223   3.577   2.830  0.6942 -0.4115  1.2426
11224TIP3    H255088   5.336   3.677   2.848  0.0558  0.7499 -1.0194
11225TIP3   OH255089   1.487   4.234  16.415  0.2091 -0.1263  0.3090
11225TIP3    H155090   1.527   4.319  16.394 -0.7676  0.2997  0.1598
11225TIP3    H255091   1.426   4.218  16.343  2.0159 -2.0353 -0.8587
11226TIP3   OH255092   2.123   5.601   2.245 -0.5718 -0.1878 -0.1240
11226TIP3    H155093   2.211   5.637   2.258 -0.5571 -0.6484  1.1468
11226TIP3    H255094   2.065   5.672   2.272 -0.5526 -0.6610  1.2275
11227TIP3   OH255095   2.689   5.639   0.604 -0.5955 -0.0378  0.7622
11227TIP3    H155096   2.738   5.619   0.684  0.8133  1.0650  0.1949
11227TIP3    H255097   2.685   5.734   0.600  0.3789 -0.0314 -1.0520
11228TIP3   OH255098   5.968   3.467   0.806 -0.2582  0.2322  0.0207
11228TIP3    H155099   5.980   3.531   0.876  3.8630 -1.4565  0.9701
11228TIP3    H255100   5.961   3.383   0.850 -1.3514 -0.4830 -1.4453
11229TIP3   OH255101   0.492   3.326   5.855 -0.7895  0.0955 -0.0229
11229TIP3    H155102   0.497   3.393   5.923 -1.6135 -0.7208  0.8475
11229TIP3    H255103   0.568   3.343   5.799 -0.4272  1.1218  0.7694
11230TIP3   OH255104   0.061   1.195  15.181 -0.3178  0.5789  0.3684
11230TIP3    H155105   0.035   1.285  15.158  0.9926 -0.0887 -4.4626
11230TIP3    H255106   0.143   1.182  15.133  0.2680 -2.7380  2.1549
11231TIP3   OH255107   0.354   4.500   0.507 -0.3013 -0.3505 -0.0562
11231TIP3    H155108   0.323   4.423   0.460 -0.5177  0.5717 -1.4715
11231TIP3    H255109   0.403   4.465   0.582  1.5827 -1.9029 -1.9346
11232TIP3   OH255110   5.295   1.536   6.306 -0.8805 -0.0992  0.6822
11232TIP3    H155111   5.372   1.578   6.269 -1.8582 -0.2890 -1.6400
11232TIP3    H255112   5.251   1.497   6.231 -1.7074 -2.4851  2.3609
11233TIP3   OH255113   3.331   2.061   1.336 -0.1732  0.1686 -0.0152
11233TIP3    H155114   3.412   2.067   1.286 -0.0291 -0.3362  0.1631
11233TIP3    H255115   3.283   2.140   1.312  0.1334  0.1997 -0.5349
11234TIP3   OH255116   1.705   0.240  13.971  0.4243 -0.5262 -0.2960
11234TIP3    H155117   1.766   0.299  14.016  1.8639  0.0949 -2.9648
11234TIP3    H255118   1.735   0.152  13.993  2.7093 -0.2368 -2.0173
11235TIP3   OH255119   2.177   0.460  10.794  0.3712  0.2354 -0.3848
11235TIP3    H155120   2.147   0.369  10.797 -0.0418  0.3895  0.0880
11235TIP3    H255121   2.272   0.453  10.801  0.2279 -0.0632  1.4254
11236TIP3   OH255122   6.702   4.470  17.205 -0.2544 -0.5395 -0.4653
11236TIP3    H155123   6.627   4.494  17.151  1.0366  1.1477 -1.5709
11236TIP3    H255124   6.754   4.550  17.211 -0.1607 -0.7480  3.0329
11237TIP3   OH255125   0.565   5.175   3.203 -0.0317  0.0083 -0.0379
11237TIP3    H155126   0.493   5.190   3.264 -0.1162  0.2338 -0.1942
11237TIP3    H255127   0.633   5.236   3.232 -0.0812  0.1337 -0.1814
11238TIP3   OH255128   1.164   4.461   2.731 -0.1110 -0.1466  0.2731
11238TIP3    H155129   1.197   4.548   2.755  1.7046 -0.9421  0.6767
11238TIP3    H255130   1.178   4.408   2.809 -2.4114 -0.5129  0.4824
11239TIP3   OH255131   6.205   0.525   1.775  0.3341  0.1257  0.0959
11239TIP3    H155132   6.159   0.452   1.733 -0.1666  0.5416 -0.0891
11239TIP3    H255133   6.297   0.510   1.755  0.4351 -1.4448  1.5918
11240TIP3   OH255134   4.630   2.965   2.282 -0.1033 -0.5789 -0.3400
11240TIP3    H155135   4.669   2.882   2.308  0.0881 -0.1432  0.8098
11240TIP3    H255136   4.671   3.030   2.340 -2.5575 -0.0999  0.9431
11241TIP3   OH255137   4.395   2.464  10.693 -0.5945 -0.6733  0.2104
11241TIP3    H155138   4.471   2.522  10.698 -1.4760  0.6231 -1.0643
11241TIP3    H255139   4.341   2.501  10.624 -1.5792 -2.5713 -0.0657
11242TIP3   OH255140   3.084   6.123   5.270 -0.1822 -0.7992 -0.5126
11242TIP3    H155141   3.039   6.173   5.201 -1.0967 -1.7202 -0.5831
11242TIP3    H255142   3.174   6.116   5.238 -0.4951 -0.8469 -1.4088
11243TIP3   OH255143   4.947   0.535  11.316 -0.3601  0.2140  0.4640
11243TIP3    H155144   5.029   0.564  11.277 -0.5707  0.0129 -0.1403
11243TIP3    H255145   4.885   0.532  11.242 -0.9367  0.4701  0.9270
11244TIP3   OH255146   0.878   2.896   0.300  0.6760 -0.5218 -0.3673
11244TIP3    H155147   0.970   2.891   0.277  1.2912  0.8794  1.6813
11244TIP3    H255148   0.867   2.831   0.370 -0.0892 -1.2997 -1.1980
11245TIP3   OH255149   4.072   6.104   2.883 -0.9154  0.3257 -0.0551
11245TIP3    H155150   4.032   6.045   2.947 -1.2699  0.2008 -0.3884
11245TIP3    H255151   4.144   6.146   2.931 -0.1713 -0.9452 -0.0351
11246TIP3   OH255152   1.660   3.922   1.146  0.1944  0.5077  0.0624
11246TIP3    H155153   1.691   3.832   1.141  1.6187  1.0350 -0.8583
11246TIP3    H255154   1.740   3.975   1.153 -0.5781  1.7568 -0.3741
11247TIP3   OH255155   3.517   6.412  16.727 -0.1980 -0.2505 -0.2632
11247TIP3    H155156   3.440   6.360  16.750 -2.1396  2.8628  0.6793
11247TIP3    H255157   3.552   6.440  16.812  0.6633  0.1685 -0.7559
11248TIP3   OH255158   4.090   0.379  12.997 -0.6791 -0.0932 -0.0200
11248TIP3    H155159   4.122   0.291  12.976 -1.3736 -0.4509  0.4139
11248TIP3    H255160   4.022   0.395  12.931 -1.5867 -0.4792  0.8221
11249TIP3   OH255161   0.708   2.619  16.229  0.6515  0.2414 -0.2831
11249TIP3    H155162   0.636   2.652  16.174  0.9672  0.1346 -0.7659
11249TIP3    H255163   0.667   2.551  16.282  0.5621 -0.3831 -1.1289
11250TIP3   OH255164   3.463   1.150  12.055 -0.2380  0.1075 -0.2724
11250TIP3    H155165   3.411   1.070  12.043  1.5667 -0.8753 -1.8687
11250TIP3    H255166   3.399   1.220  12.056 -1.8135 -1.3113  0.4658
11251TIP3   OH255167   5.581   6.192  13.592  0.0511  0.0272 -0.5202
11251TIP3    H155168   5.588   6.097  13.608 -0.5704  0.4165  2.2767
11251TIP3    H255169   5.669   6.225  13.610 -0.1000  0.1705 -0.0376
11252TIP3   OH255170   2.099   1.978   5.650  0.1270 -0.0739  0.0400
11252TIP3    H155171   2.021   1.928   5.629  0.6616 -1.3294  0.9663
11252TIP3    H255172   2.116   1.959   5.743  1.7681 -0.1910 -0.2583
11253TIP3   OH255173   1.348   4.324   4.693 -0.4360 -0.3192  0.6212
11253TIP3    H155174   1.364   4.418   4.703  0.2128 -0.3660  0.1058
11253TIP3    H255175   1.383   4.285   4.773  0.4849 -0.2474  0.2589
11254TIP3   OH255176   3.679   2.421  13.816  0.3910 -0.5154 -0.4988
11254TIP3    H155177   3.608   2.426  13.880  0.4495 -1.3602 -0.3622
11254TIP3    H255178   3.736   2.351  13.849  2.0164  1.0871  0.1091
11255TIP3   OH255179   5.407   6.272  12.081 -0.1950 -0.5789  0.1660
11255TIP3    H155180   5.412   6.321  12.163  0.5087 -0.6547  0.1749
11255TIP3    H255181   5.356   6.194  12.102  0.5368 -0.9239  0.7030
11256TIP3   OH255182   1.040   0.582   3.982  0.1324 -0.4902  0.2275
11256TIP3    H155183   1.115   0.633   4.014 -0.5396  0.0726  0.9548
11256TIP3    H255184   1.007   0.537   4.059  0.0168 -1.1120 -0.1863
11257TIP3   OH255185   2.289   3.813  13.071 -0.5849 -0.3874  0.9107
11257TIP3    H155186   2.289   3.722  13.040 -2.2141 -0.4030  0.9477
11257TIP3    H255187   2.197   3.839  13.069 -0.0832  1.3900  0.5364
11258TIP3   OH255188   0.656   6.135   1.103 -0.8019 -0.2977  0.0196
11258TIP3    H155189   0.691   6.111   1.017 -1.7818 -1.2088 -0.1322
11258TIP3    H255190   0.733   6.147   1.157 -0.2056 -1.1477 -0.6181
11259TIP3   OH255191   2.309   4.657   0.063  0.4150  0.1423  0.4032
11259TIP3    H155192   2.379   4.651   0.127 -0.9861  1.4251  2.0878
11259TIP3    H255193   2.354   4.677  -0.019  2.0662  0.2742  1.3136
11260TIP3   OH255194   2.021   5.115   5.547 -0.4852  0.1888 -0.1542
11260TIP3    H155195   1.950   5.170   5.580 -0.5615 -0.2952  0.4829
11260TIP3    H255196   2.092   5.176   5.529 -0.5123  0.4764  0.7017
11261TIP3   OH255197   5.911   5.452   0.101  0.2865 -0.1546 -0.4398
11261TIP3    H155198   5.909   5.435   0.007 -0.7208  0.4988 -0.5435
11261TIP3    H255199   5.923   5.365   0.141  1.3951 -0.3581 -1.1778
11262TIP3   OH255200   5.092   2.490  11.270 -0.2110 -0.4259  0.1607
11262TIP3    H155201   5.182   2.505  11.242 -0.6039  3.6952  0.8500
11262TIP3    H255202   5.095   2.496  11.365 -1.7249  3.6152  0.0597
11263TIP3   OH255203   0.766   0.257  14.452  0.6566 -0.4942 -0.1107
11263TIP3    H155204   0.736   0.169  14.430 -2.6039  0.5439 -0.0131
11263TIP3    H255205   0.781   0.298  14.367 -0.5311 -0.2629 -0.2166
11264TIP3   OH255206   5.712   6.625   5.286 -0.3186 -0.3674 -0.1866
11264TIP3    H155207   5.652   6.662   5.221 -1.0229 -0.5180  0.3682
11264TIP3    H255208   5.719   6.693   5.354 -0.0852 -0.4668 -0.1083
11265TIP3   OH255209   3.333   3.200  11.416  0.2913 -0.2349 -0.6556
11265TIP3    H155210   3.424   3.182  11.395  0.3050  0.0941 -0.8717
11265TIP3    H255211   3.304   3.122  11.464  1.3147  0.6127  1.3644
11266TIP3   OH255212   6.190   3.762   3.797  0.4425 -0.2127  0.0672
11266TIP3    H155213   6.203   3.673   3.831  2.9263 -0.0293 -0.3315
11266TIP3    H255214   6.277   3.791   3.770 -0.4653  2.0464 -0.5834
11267TIP3   OH255215   1.002   3.144  14.472  0.8465 -0.4090 -0.7131
11267TIP3    H155216   1.040   3.183  14.394  0.1949  1.2394 -0.2154
11267TIP3    H255217   0.974   3.218  14.526  0.8245 -1.5187  0.8608
11268TIP3   OH255218   6.285   5.686  12.612 -0.6261  1.2173 -0.6598
11268TIP3    H155219   6.374   5.682  12.577 -0.7875 -0.3285 -0.9212
11268TIP3    H255220   6.234   5.628  12.555 -1.6509  1.5472 -0.0869
11269TIP3   OH255221   1.923   0.263  15.956  0.0895  0.1663  0.0185
11269TIP3    H155222   1.958   0.255  15.867 -0.5459 -0.1513 -0.2029
11269TIP3    H255223   1.976   0.202  16.008  0.4194  0.3042 -0.1515
11270TIP3   OH255224   3.667   4.574   6.070 -0.0241  0.4452  0.5992
11270TIP3    H155225   3.712   4.506   6.021 -0.5417  0.2140  0.4448
11270TIP3    H255226   3.690   4.558   6.161  1.7596  1.4772  0.3575
11271TIP3   OH255227   4.409   5.801  16.088 -0.1147 -0.6108  0.3653
11271TIP3    H155228   4.392   5.799  15.993  1.0983 -1.7214  0.1595
11271TIP3    H255229   4.403   5.709  16.115 -0.2159 -0.3249  1.3247
11272TIP3   OH255230   0.149   2.579   6.150 -0.1239 -0.0306 -0.0045
11272TIP3    H155231   0.149   2.552   6.242  1.8415  2.9887  0.9629
11272TIP3    H255232   0.090   2.654   6.146  0.7020  0.5936 -0.9302
11273TIP3   OH255233   5.717   3.046   4.387  0.2016 -0.3712 -0.6934
11273TIP3    H155234   5.745   3.013   4.472  0.6218 -2.7314 -1.6909
11273TIP3    H255235   5.627   3.016   4.379 -0.3128  1.1217 -0.4540
11274TIP3   OH255236   5.563   6.091   3.526 -0.0049 -0.0150 -0.1491
11274TIP3    H155237   5.521   6.150   3.589  0.1718  1.3123 -1.2405
11274TIP3    H255238   5.653   6.122   3.521 -0.1048  0.1204 -1.3165
11275TIP3   OH255239   0.975   5.213   0.265 -0.2499  0.0321 -0.0294
11275TIP3    H155240   1.008   5.131   0.229  1.1991  0.9450 -0.7953
11275TIP3    H255241   1.042   5.242   0.326 -2.5562 -1.3600  3.3100
11276TIP3   OH255242   0.054   3.994   1.156  0.4040  0.3427  0.2036
11276TIP3    H155243   0.093   4.026   1.238 -0.0907 -2.6467  1.6676
11276TIP3    H255244   0.119   3.933   1.121 -1.3186 -1.8444  0.7394
11277TIP3   OH255245   1.260   4.782  16.915  0.2595 -0.2730  0.3124
11277TIP3    H155246   1.353   4.780  16.894  0.0922  0.6814 -0.5769
11277TIP3    H255247   1.227   4.861  16.872 -0.9248 -0.4940  0.7779
11278TIP3   OH255248   3.704   0.890   5.089 -0.1376  0.4953 -0.0082
11278TIP3    H155249   3.757   0.875   5.168  2.1752 -0.4984 -1.7020
11278TIP3    H255250   3.700   0.985   5.080 -2.5334  0.7135  2.6617
11279TIP3   OH255251   4.432   1.592  13.454 -0.6029 -0.2415  0.4808
11279TIP3    H155252   4.520   1.555  13.453  0.2982  1.8143  0.5130
11279TIP3    H255253   4.390   1.556  13.375  1.8595  2.3781 -2.1299
11280TIP3   OH255254   4.285   3.829  13.972  0.0789 -0.1219 -0.3919
11280TIP3    H155255   4.348   3.876  13.917  1.6493 -0.2261  1.2959
11280TIP3    H255256   4.332   3.810  14.053 -2.4785  0.9174  1.4355
11281TIP3   OH255257   3.523   5.432  11.815  0.5186  0.0672 -0.9513
11281TIP3    H155258   3.505   5.521  11.845  1.0769 -0.2284  0.3357
11281TIP3    H255259   3.600   5.441  11.759  1.1679  0.2945 -0.0547
11282TIP3   OH255260   2.353   1.349   2.259  0.1547  0.6322  0.3439
11282TIP3    H155261   2.403   1.334   2.339 -0.6504  2.1465  1.1711
11282TIP3    H255262   2.287   1.279   2.258  0.7455  0.0706  0.5260
11283TIP3   OH255263   3.466   2.984   6.509  0.2223 -0.1566 -0.3507
11283TIP3    H155264   3.418   3.014   6.431 -0.3229 -1.1425 -0.3936
11283TIP3    H255265   3.424   2.902   6.533  0.3383  0.1781  1.0380
11284TIP3   OH255266   4.097   6.199  16.106 -0.6059  0.2797  0.1634
11284TIP3    H155267   4.087   6.222  16.198 -2.2710 -0.7471  0.2783
11284TIP3    H255268   4.012   6.162  16.082 -0.4080  1.1725 -1.9757
11285TIP3   OH255269   3.073   1.122  12.173  0.4710 -0.0656  0.1591
11285TIP3    H155270   3.116   1.039  12.194  0.6288  0.1960  0.8998
11285TIP3    H255271   3.110   1.184  12.236  0.1220  0.4930 -0.1872
11286TIP3   OH255272   4.385   5.243   2.534  0.3578 -0.7197  0.0040
11286TIP3    H155273   4.428   5.186   2.471  1.1145 -0.8988  0.6794
11286TIP3    H255274   4.454   5.267   2.596 -0.0689  0.5027  0.0293
11287TIP3   OH255275   4.905   1.194   0.765 -1.0610  0.1370  0.0651
11287TIP3    H155276   4.981   1.156   0.808  1.0604  2.5284 -1.4315
11287TIP3    H255277   4.901   1.284   0.799 -1.3169  1.0210 -2.2190
11288TIP3   OH255278   1.874   5.596   0.904  0.1003 -0.3054  1.2369
11288TIP3    H155279   1.912   5.557   0.983 -0.0107 -0.0473  1.4194
11288TIP3    H255280   1.886   5.690   0.916  0.2558 -0.2752  0.8562
11289TIP3   OH255281   1.835   3.803  11.620 -0.5271 -0.0074 -0.2000
11289TIP3    H155282   1.899   3.827  11.553 -0.8069 -1.9672 -1.2018
11289TIP3    H255283   1.753   3.842  11.588  0.1259  2.6504  1.1710
11290TIP3   OH255284   1.471   5.659   5.713  0.9151 -0.0396  0.6952
11290TIP3    H155285   1.466   5.743   5.758  1.6904  0.5440 -0.2784
11290TIP3    H255286   1.564   5.648   5.692  1.4591 -2.8657  4.0102
11291TIP3   OH255287   0.991   4.906  13.749 -0.0578 -0.1294 -0.4294
11291TIP3    H155288   0.946   4.940  13.671 -0.2179 -0.0111 -0.2826
11291TIP3    H255289   0.956   4.957  13.822  2.5169  2.0355 -0.6535
11292TIP3   OH255290   3.084   3.832  14.653  0.0916  0.6659  0.7986
11292TIP3    H155291   3.041   3.865  14.732  3.2568  1.8421  2.1071
11292TIP3    H255292   3.051   3.889  14.583 -3.2280 -0.7807  1.0633
11293TIP3   OH255293   6.672   3.204   3.068 -0.0209  0.4119  0.5443
11293TIP3    H155294   6.613   3.240   3.135 -0.3342  1.8181 -0.4666
11293TIP3    H255295   6.681   3.275   3.004  0.2739 -0.9169 -0.9051
11294TIP3   OH255296   6.216   2.684  12.171  0.4257 -0.0808 -0.1153
11294TIP3    H155297   6.124   2.708  12.187 -0.6983 -1.5342 -3.7687
11294TIP3    H255298   6.224   2.595  12.206  0.3325 -0.0777 -0.0858
11295TIP3   OH255299   0.822   2.707   3.009 -0.3936  0.3897  0.3279
11295TIP3    H155300   0.789   2.620   3.032 -0.8565  0.3892 -0.3314
11295TIP3    H255301   0.916   2.694   2.995 -0.6988 -0.2901 -1.1724
11296TIP3   OH255302   0.689   1.898   4.701 -0.6039 -0.2089 -0.4085
11296TIP3    H155303   0.606   1.868   4.665 -2.3248  3.3143  0.4224
11296TIP3    H255304   0.680   1.883   4.795 -1.0740  1.8142 -0.1072
11297TIP3   OH255305   4.845   4.834  12.441  0.0995  0.1686  0.4612
11297TIP3    H155306   4.930   4.796  12.417 -0.6454 -1.9027  0.9766
11297TIP3    H255307   4.842   4.917  12.394  1.2685 -0.9704 -1.7015
11298TIP3   OH255308   3.675   1.520  14.019 -0.2675 -0.2295 -0.3036
11298TIP3    H155309   3.769   1.508  14.005 -0.0675 -0.6078  1.2458
11298TIP3    H255310   3.636   1.440  13.983  0.0775 -0.4061 -0.2939
11299TIP3   OH255311   3.465   5.792   2.608 -0.3218 -0.2810  0.5623
11299TIP3    H155312   3.402   5.798   2.537 -1.4278 -0.5312  1.5135
11299TIP3    H255313   3.525   5.722   2.581  0.1916  0.6696 -0.8228
11300TIP3   OH255314   5.549   5.482   2.341  0.9643 -0.1085 -0.6130
11300TIP3    H155315   5.505   5.399   2.359  1.1070 -0.3383 -1.3082
11300TIP3    H255316   5.483   5.549   2.359  0.7848 -0.3788 -0.2514
11301TIP3   OH255317   5.131   2.264   2.644 -0.0707  0.1519 -0.0053
11301TIP3    H155318   5.217   2.298   2.620 -0.1160  0.3745  0.1498
11301TIP3    H255319   5.150   2.178   2.681 -0.0673 -0.5297 -1.5478
11302TIP3   OH255320   2.588   2.833  13.107 -0.2945 -0.3379 -0.3699
11302TIP3    H155321   2.680   2.815  13.089 -0.2404 -0.1846 -0.2445
11302TIP3    H255322   2.586   2.861  13.199 -0.5732 -1.1425 -0.1286
11303TIP3   OH255323   0.725   6.143   3.312  0.2137  0.1348  0.7371
11303TIP3    H155324   0.679   6.062   3.289 -0.8758  0.9506  0.0497
11303TIP3    H255325   0.725   6.143   3.408 -0.0128 -0.5506  0.7437
11304TIP3   OH255326   5.449   0.199  15.187 -0.7642 -0.0874  0.0348
11304TIP3    H155327   5.403   0.117  15.171  0.3833 -0.6776 -0.2495
11304TIP3    H255328   5.429   0.253  15.110  0.1027 -0.8246 -0.7000
11305TIP3   OH255329   3.140   3.853  16.608 -0.0614  0.2703 -0.1043
11305TIP3    H155330   3.203   3.805  16.661 -0.7887 -1.9790 -1.2082
11305TIP3    H255331   3.055   3.831  16.647 -0.7472 -2.6137 -2.9535
11306TIP3   OH255332   1.299   5.930  11.720 -0.1265 -0.2287  0.2286
11306TIP3    H155333   1.314   5.937  11.814 -1.8500  2.5635  0.3312
11306TIP3    H255334   1.258   5.844  11.709  1.2747 -1.1426  1.8356
11307TIP3   OH255335   1.843   3.115  16.739  0.1597 -0.1092  0.5296
11307TIP3    H155336   1.755   3.146  16.761  0.7004  1.0316  1.1414
11307TIP3    H255337   1.862   3.153  16.653 -1.0169 -2.6207 -0.8826
11308TIP3   OH255338   0.437   1.449  10.553  0.0958  0.1604  0.0877
11308TIP3    H155339   0.456   1.480  10.465  1.0009 -0.5348  0.0246
11308TIP3    H255340   0.518   1.406  10.581 -0.2332  0.2514  1.1998
11309TIP3   OH255341   2.971   0.082  11.498  0.1949 -0.3797 -1.0012
11309TIP3    H155342   2.992  -0.008  11.473 -0.2483 -0.7553 -0.0244
11309TIP3    H255343   2.941   0.076  11.589  1.2891  0.9158 -0.5454
11310TIP3   OH255344   6.472   1.698   5.545  0.0149 -0.6131  0.7428
11310TIP3    H155345   6.383   1.729   5.564 -0.2223  0.1009 -1.4096
11310TIP3    H255346   6.467   1.603   5.552 -0.7858 -0.5368  1.1981
11311TIP3   OH255347   1.046   1.848  11.578 -0.2762 -0.4305 -0.1455
11311TIP3    H155348   0.986   1.907  11.623 -0.9049 -0.5805 -0.7965
11311TIP3    H255349   1.022   1.853  11.486  0.4814 -0.7520 -0.3706
11312TIP3   OH255350   3.508   4.504   0.570 -0.3140  0.2112  0.7089
11312TIP3    H155351   3.528   4.416   0.541 -1.6078  0.2950 -0.4924
11312TIP3    H255352   3.528   4.560   0.494  0.1301  0.9138  1.3284
11313TIP3   OH255353   1.442   2.325   0.354 -0.2327  0.6667 -0.5676
11313TIP3    H155354   1.535   2.347   0.357  0.3184 -1.4666 -1.0005
11313TIP3    H255355   1.428   2.293   0.265 -1.1271 -0.0833 -0.1640
11314TIP3   OH255356   1.202   0.994  12.174 -0.1471  0.5421 -0.2949
11314TIP3    H155357   1.278   0.966  12.226  1.1846  1.4690 -1.6762
11314TIP3    H255358   1.130   0.942  12.207  1.4364 -1.5697 -0.0583
11315TIP3   OH255359   1.153   1.032  14.628  0.2832 -0.2112  0.7094
11315TIP3    H155360   1.125   1.117  14.594  0.5360 -0.1834  0.5672
11315TIP3    H255361   1.119   1.029  14.718  0.3725  0.0904  0.7546
11316TIP3   OH255362   3.001   4.969   3.268  0.3549 -0.1218 -0.2576
11316TIP3    H155363   3.038   4.956   3.356 -1.0213  1.0794  0.5158
11316TIP3    H255364   3.018   4.887   3.223  2.9619 -0.0201  0.4333
11317TIP3   OH255365   0.409   3.147   4.659 -0.1592 -0.2461  0.1130
11317TIP3    H155366   0.408   3.193   4.743  3.1887  2.3349 -1.1198
11317TIP3    H255367   0.322   3.162   4.622 -0.3873  1.9054  1.4482
11318TIP3   OH255368   4.239   6.615  13.981  0.2667  0.1466 -0.6786
11318TIP3    H155369   4.237   6.521  13.963  0.2728  0.0754 -0.3207
11318TIP3    H255370   4.224   6.621  14.076  0.8790  0.4689 -0.6010
11319TIP3   OH255371   0.534   3.277  15.434 -0.0696 -0.3329  0.5299
11319TIP3    H155372   0.494   3.207  15.384  1.6144  0.1085 -1.5066
11319TIP3    H255373   0.463   3.313  15.487 -1.4412 -2.0803 -0.0988
11320TIP3   OH255374   4.532   4.388   2.231  0.1123 -0.5620  0.1010
11320TIP3    H155375   4.543   4.463   2.172  2.6447 -1.2041 -0.3145
11320TIP3    H255376   4.565   4.419   2.315  1.9413 -1.4422 -0.2752
11321TIP3   OH255377   3.246   1.221   1.625  0.4640  0.2767  0.0761
11321TIP3    H155378   3.324   1.276   1.612  1.4507 -1.2527 -0.6509
11321TIP3    H255379   3.278   1.145   1.673 -0.6203 -0.3124 -0.1174
11322TIP3   OH255380   2.290   2.245   1.092  0.5225 -0.2820 -0.3285
11322TIP3    H155381   2.199   2.234   1.120  1.0650 -0.3606  1.4760
11322TIP3    H255382   2.291   2.330   1.049 -0.7222 -0.9665 -1.7902
11323TIP3   OH255383   2.230   2.639  13.050  0.1046 -0.2094  0.0773
11323TIP3    H155384   2.236   2.545  13.034 -0.3740 -0.5702  1.9619
11323TIP3    H255385   2.174   2.647  13.127  0.5803  1.5992  0.2584
11324TIP3   OH255386   1.845   5.602  14.434 -0.2753  0.1616 -0.2704
11324TIP3    H155387   1.890   5.635  14.512 -1.4549  1.1275  0.0298
11324TIP3    H255388   1.780   5.541  14.468  1.9791 -2.6386 -0.8349
11325TIP3   OH255389   1.379   3.509   3.468 -0.1742  0.0261  0.0505
11325TIP3    H155390   1.336   3.589   3.497  1.8658  1.1934 -0.1081
11325TIP3    H255391   1.336   3.440   3.518 -0.4973  1.4354  1.7705
11326TIP3   OH255392   3.106   5.551   4.279 -0.0774  0.1019  0.3208
11326TIP3    H155393   3.147   5.621   4.329 -0.6619 -0.5490  1.7273
11326TIP3    H255394   3.014   5.552   4.307 -0.2807 -0.6516 -0.2972
11327TIP3   OH255395   3.462   2.053   4.876 -0.3773  0.1035 -0.1173
11327TIP3    H155396   3.534   2.109   4.848 -0.7635  1.4240  1.4777
11327TIP3    H255397   3.452   2.072   4.969 -0.7973 -2.2997  0.3685
11328TIP3   OH255398   3.702   0.138  16.209  0.0149  0.3838 -0.4782
11328TIP3    H155399   3.639   0.207  16.229 -0.3764  0.2879 -1.3509
11328TIP3    H255400   3.751   0.126  16.290 -1.0935  0.4417  0.2092
11329TIP3   OH255401   5.899   3.281  14.419  0.0465  0.6060 -0.1680
11329TIP3    H155402   5.843   3.250  14.491 -2.3469  2.8245 -1.0052
11329TIP3    H255403   5.917   3.202  14.368 -0.9683 -0.4502  1.0634
11330TIP3   OH255404   1.431   0.662   3.513 -0.7532  0.2974 -0.1659
11330TIP3    H155405   1.341   0.654   3.482 -0.3483  1.4807 -1.7151
11330TIP3    H255406   1.432   0.743   3.564 -0.7295 -0.1019  0.4739
11331TIP3   OH255407   2.717   2.210  12.727  0.3458 -0.1809  0.3735
11331TIP3    H155408   2.740   2.147  12.659 -1.8123 -0.2899 -0.3009
11331TIP3    H255409   2.762   2.178  12.805  1.1757 -1.2272 -0.5116
11332TIP3   OH255410   5.119   0.893   0.858 -0.7619 -0.3000 -0.4581
11332TIP3    H155411   5.073   0.815   0.828 -1.4121  0.1345 -0.6047
11332TIP3    H255412   5.201   0.860   0.894 -0.5122 -0.9531 -1.5826
11333TIP3   OH255413   4.926   4.065   6.221  0.5605 -0.5893 -0.4725
11333TIP3    H155414   4.990   4.132   6.196  0.4953  0.9344  3.1588
11333TIP3    H255415   4.847   4.087   6.172  0.9139  1.2783 -0.2244
11334TIP3   OH255416   3.861   5.275  14.025 -0.4697 -0.5519 -0.3061
11334TIP3    H155417   3.897   5.355  13.988 -0.0641 -1.4776 -2.0118
11334TIP3    H255418   3.766   5.287  14.021 -0.3894  0.4607  0.8851
11335TIP3   OH255419   1.803   0.530  15.325  0.2558  0.7020 -0.1404
11335TIP3    H155420   1.881   0.508  15.376  1.3347  2.5337 -0.9358
11335TIP3    H255421   1.823   0.500  15.236 -1.1058 -1.3447  0.2138
11336TIP3   OH255422   4.321   6.672   2.786 -0.3149  0.0302  0.3083
11336TIP3    H155423   4.310   6.699   2.694  3.0031 -0.9384 -0.4418
11336TIP3    H255424   4.318   6.577   2.783 -0.1308 -0.0081  1.2032
11337TIP3   OH255425   0.209   3.062   2.513  0.1040  0.0284  0.1619
11337TIP3    H155426   0.168   3.040   2.429 -1.6838  0.1275  0.9798
11337TIP3    H255427   0.246   2.979   2.544  3.9275  0.6677 -2.3264
11338TIP3   OH255428   3.188   5.810  13.472 -0.2446 -0.0107 -0.5081
11338TIP3    H155429   3.241   5.747  13.423 -0.7123 -1.2536  0.5482
11338TIP3    H255430   3.182   5.886  13.415 -2.6854 -2.2410 -3.3592
11339TIP3   OH255431   4.004   3.980  13.456 -0.0320 -0.3305  0.0879
11339TIP3    H155432   3.915   3.998  13.424 -0.4868 -3.5530 -0.6803
11339TIP3    H255433   4.058   3.981  13.377  0.4659  0.7015  0.4375
11340TIP3   OH255434   6.067   6.381  15.019  0.2375  0.5661  0.5492
11340TIP3    H155435   5.996   6.444  15.035 -0.0266 -0.1933  2.4755
11340TIP3    H255436   6.123   6.387  15.096  2.3308  1.1692 -0.9713
11341TIP3   OH255437   6.280   6.671   1.723  0.2382  0.0457 -0.3587
11341TIP3    H155438   6.264   6.703   1.812  1.3458  2.0331 -0.8600
11341TIP3    H255439   6.337   6.737   1.683 -0.6701 -0.5615 -2.7309
11342TIP3   OH255440   2.986   1.987  11.610 -0.0969 -0.3362  0.1568
11342TIP3    H155441   2.928   1.988  11.534  2.4292 -0.7538 -1.8694
11342TIP3    H255442   2.983   1.897  11.642 -1.2669 -0.1267  0.6464
11343TIP3   OH255443   0.686   2.068  16.089  0.1088  0.0687  0.4853
11343TIP3    H155444   0.773   2.047  16.124 -1.4970 -2.9797  2.8990
11343TIP3    H255445   0.648   2.126  16.155 -0.5682 -0.5147  0.6019
11344TIP3   OH255446   6.059   6.304   5.795  0.0552  0.9062  0.2381
11344TIP3    H155447   6.075   6.299   5.889 -0.3273 -0.4943  0.2269
11344TIP3    H255448   6.101   6.227   5.759 -0.0928  1.2650 -0.7122
11345TIP3   OH255449   4.324   2.143  13.658 -0.7088  0.2621 -0.4680
11345TIP3    H155450   4.267   2.070  13.683  1.1397 -1.0193  0.1367
11345TIP3    H255451   4.321   2.144  13.563 -0.7334 -0.6358 -0.4837
11346TIP3   OH255452   1.382   6.378   5.368  0.3082  0.6524 -0.3280
11346TIP3    H155453   1.462   6.400   5.415 -0.4590  0.1677  1.2476
11346TIP3    H255454   1.394   6.288   5.340 -0.3174  0.0373  1.3137
11347TIP3   OH255455   2.054   5.806   1.639  0.3668  0.1019  0.3051
11347TIP3    H155456   2.024   5.850   1.719 -1.4186 -0.2052 -0.1614
11347TIP3    H255457   2.131   5.756   1.666 -1.6542 -1.9925  2.4388
11348TIP3   OH255458   1.171   3.488  15.074  0.1919  0.3878  0.1909
11348TIP3    H155459   1.145   3.459  15.162  0.3702  3.3152  1.2731
11348TIP3    H255460   1.235   3.423  15.045  0.2436 -0.5503  2.3043
11349TIP3   OH255461   6.519   0.056   3.008 -0.0276 -0.3990  0.3373
11349TIP3    H155462   6.504   0.088   3.097  0.0757 -3.0320  1.3640
11349TIP3    H255463   6.438   0.010   2.985  0.6043 -1.2676 -0.2015
11350TIP3   OH255464   6.216   3.321  12.531  0.2671 -0.2900  0.5045
11350TIP3    H155465   6.255   3.408  12.543  0.7914 -0.0756 -2.3213
11350TIP3    H255466   6.289   3.260  12.543  0.5445 -0.1480 -0.4185
11351TIP3   OH255467   3.044   3.098   5.147 -0.3474 -0.4841  0.0873
11351TIP3    H155468   3.090   3.120   5.228 -0.9795  0.9175  0.0821
11351TIP3    H255469   3.103   3.125   5.077 -0.6673  0.2213  0.0842
11352TIP3   OH255470   3.972   6.424  16.920 -0.1026  0.4649 -0.2008
11352TIP3    H155471   3.880   6.406  16.939 -0.5124  2.2832 -0.4477
11352TIP3    H255472   3.999   6.353  16.862 -0.3583 -2.0755  2.6199
11353TIP3   OH255473   1.882   2.113  17.138 -0.1104 -0.4172  0.0961
11353TIP3    H155474   1.831   2.164  17.075 -0.6091  0.5629  1.2768
11353TIP3    H255475   1.836   2.030  17.146  0.6153 -1.0242 -1.7209
11354TIP3   OH255476   3.584   6.136  11.718 -1.0151  0.0451 -0.5272
11354TIP3    H155477   3.674   6.147  11.685 -1.1130 -0.1213 -0.8525
11354TIP3    H255478   3.590   6.161  11.810 -0.5146 -0.4774 -0.4087
11355TIP3   OH255479   6.183   4.743  15.931 -0.2736  0.6686 -0.1412
11355TIP3    H155480   6.228   4.665  15.899  1.0712  0.7564  1.4967
11355TIP3    H255481   6.252   4.807  15.947 -1.1712  1.5192  0.4144
11356TIP3   OH255482   4.697   6.165  11.180  0.1091 -0.1060  0.0126
11356TIP3    H155483   4.768   6.141  11.120 -0.3073  0.6833 -0.8062
11356TIP3    H255484   4.735   6.154  11.268  1.6310  1.4029 -0.4272
11357TIP3   OH255485   5.117   2.912   4.879  0.5765  1.2863  0.2428
11357TIP3    H155486   5.190   2.894   4.937 -0.4494 -0.7800  0.9176
11357TIP3    H255487   5.044   2.932   4.937 -0.6987 -1.7155 -0.2561
11358TIP3   OH255488   1.025   1.770   6.061  0.3650  0.5181 -0.2352
11358TIP3    H155489   1.028   1.703   6.129 -0.3969  0.2286 -0.4807
11358TIP3    H255490   1.059   1.849   6.102 -0.7460  0.5238  0.6797
11359TIP3   OH255491   3.697   2.899  13.484 -0.0797  0.1949  0.2881
11359TIP3    H155492   3.656   2.962  13.544 -1.0014 -0.7332  0.6513
11359TIP3    H255493   3.771   2.864  13.533  0.2728  0.7866  0.1867
11360TIP3   OH255494   2.887   2.833  12.005 -0.1557 -0.2228  0.4297
11360TIP3    H155495   2.957   2.775  11.975  1.3881  0.4771  2.5698
11360TIP3    H255496   2.807   2.781  11.997  0.7179 -1.3444 -1.1840
11361TIP3   OH255497   6.523   5.159   2.654  0.7588 -0.7395 -0.1751
11361TIP3    H155498   6.582   5.224   2.693 -0.4645  0.8559 -0.9652
11361TIP3    H255499   6.547   5.077   2.698  0.4500  0.7258  2.8790
11362TIP3   OH255500   5.346   2.861   3.066 -0.3719  0.1894  0.2495
11362TIP3    H155501   5.336   2.793   2.999  0.3481 -1.1697  1.5025
11362TIP3    H255502   5.430   2.842   3.107 -0.4363  1.4931  1.0065
11363TIP3   OH255503   1.345   0.260   0.358  0.0524  0.5574  0.4402
11363TIP3    H155504   1.274   0.296   0.304 -0.0899  1.6493  1.3306
11363TIP3    H255505   1.301   0.232   0.439  0.3008 -0.8424  0.0957
11364TIP3   OH255506   1.682   6.251  15.675 -0.1065 -0.2372  0.4631
11364TIP3    H155507   1.763   6.204  15.658 -0.1838 -0.4948  0.8009
11364TIP3    H255508   1.627   6.232  15.599 -0.2316 -0.8959  0.7155
11365TIP3   OH255509   0.282   4.914  12.723 -0.2497 -0.2522 -0.2425
11365TIP3    H155510   0.322   4.912  12.810 -1.4712 -2.4713  0.3114
11365TIP3    H255511   0.195   4.950  12.737  0.1542  0.9957 -0.8459
11366TIP3   OH255512   3.715   6.067  12.792 -0.6276 -0.3930  0.6288
11366TIP3    H155513   3.728   6.052  12.698  0.2522  2.1085  0.3119
11366TIP3    H255514   3.804   6.071  12.827 -0.9032  0.6105  1.2285
11367TIP3   OH255515   6.685   0.024  12.402  0.2552  0.4109 -0.5442
11367TIP3    H155516   6.669  -0.027  12.481 -3.3596  0.7889 -0.9740
11367TIP3    H255517   6.779   0.042  12.404  0.4463 -0.6563  2.9974
11368TIP3   OH255518   0.762   2.085  14.110  0.0986  0.0842  0.9078
11368TIP3    H155519   0.670   2.101  14.088  0.4592  1.2106  0.1804
11368TIP3    H255520   0.759   2.033  14.190 -1.1863 -0.4665  0.5211
11369TIP3   OH255521   1.702   4.953   0.826 -0.1666 -0.2725  0.2301
11369TIP3    H155522   1.641   4.931   0.756 -0.6451  0.4914  0.3941
11369TIP3    H255523   1.724   4.869   0.866  1.7455 -0.9372 -2.1408
11370TIP3   OH255524   5.859   3.737   3.249 -0.3838  0.0723 -0.1894
11370TIP3    H155525   5.936   3.759   3.301  0.4050 -0.8166 -0.9790
11370TIP3    H255526   5.838   3.818   3.202 -1.0469  0.8547  1.4176
11371TIP3   OH255527   4.034   1.690   3.172  0.2632 -0.2193 -0.1074
11371TIP3    H155528   3.973   1.684   3.099  1.8699 -1.1234 -1.4153
11371TIP3    H255529   4.045   1.784   3.186 -1.1854 -0.0549 -0.0566
11372TIP3   OH255530   0.477   0.028   4.093  0.2792  0.9668 -0.3281
11372TIP3    H155531   0.431   0.083   4.030 -0.9990  1.0840  0.7066
11372TIP3    H255532   0.445   0.056   4.178 -1.0304 -1.9034  0.2058
11373TIP3   OH255533   2.332   1.418   2.776 -0.7430  0.0474  0.2580
11373TIP3    H155534   2.245   1.380   2.763 -1.7433  2.0917  0.7463
11373TIP3    H255535   2.371   1.365   2.846 -1.4751 -1.0644 -0.1622
11374TIP3   OH255536   4.360   1.753  13.102  0.0265 -0.3060  0.0222
11374TIP3    H155537   4.363   1.818  13.032 -0.4057  0.8309  1.0495
11374TIP3    H255538   4.407   1.793  13.175 -1.0753 -0.7267  0.9905
11375TIP3   OH255539   1.983   1.668  13.788 -0.0506  0.2416  0.0302
11375TIP3    H155540   2.061   1.630  13.747 -2.1016 -3.6138 -0.5919
11375TIP3    H255541   1.934   1.707  13.715  0.6188  1.4188  0.2077
11376TIP3   OH255542   4.072   2.032  14.189  0.2207  0.5171  0.2122
11376TIP3    H155543   3.993   2.062  14.234 -0.5555 -0.3726 -0.5245
11376TIP3    H255544   4.121   2.111  14.171 -0.7407  1.1349  0.2468
11377TIP3   OH255545   2.531   1.861   2.148 -0.0602  0.1733 -0.1236
11377TIP3    H155546   2.550   1.822   2.234  1.4261  0.3507 -0.3669
11377TIP3    H255547   2.615   1.894   2.117 -0.5015 -0.2697 -1.8550
11378TIP3   OH255548   4.318   0.582  13.726 -0.5515  0.3585  0.2579
11378TIP3    H155549   4.327   0.645  13.797  0.3000  0.2797  0.2223
11378TIP3    H255550   4.361   0.623  13.651 -0.9346  0.1935 -0.0554
11379TIP3   OH255551   4.299   0.798  11.277 -0.3708  0.1247  0.0188
11379TIP3    H155552   4.222   0.742  11.270 -1.3134  1.3397  0.3298
11379TIP3    H255553   4.280   0.872  11.219 -0.6779  1.7956  2.1694
11380TIP3   OH255554   4.964   6.486  11.526  0.7489 -0.2902 -0.4383
11380TIP3    H155555   4.875   6.458  11.507 -0.4270  0.3379  3.7001
11380TIP3    H255556   4.997   6.518  11.442 -2.8639 -0.6022 -2.0842
11381TIP3   OH255557   6.717   0.014  16.849  0.2863 -0.5624 -0.3825
11381TIP3    H155558   6.658  -0.022  16.782  0.9714 -0.3111 -1.1297
11381TIP3    H255559   6.701  -0.040  16.926 -1.3013 -0.1801 -0.4117
11382TIP3   OH255560   6.667   0.670   1.508 -0.4440  0.5812  0.4659
11382TIP3    H155561   6.740   0.609   1.506 -0.9193  0.0228 -2.0453
11382TIP3    H255562   6.590   0.615   1.493 -0.9966  1.6338 -0.6300
11383TIP3   OH255563   4.178   0.039   4.316  0.2057 -0.2061  0.3523
11383TIP3    H155564   4.140  -0.009   4.389 -0.8089  0.6526  0.4117
11383TIP3    H255565   4.192  -0.027   4.248 -1.6207 -0.5294  0.2478
11384TIP3   OH255566   0.852   0.113  15.337 -0.5736  0.3883 -0.0558
11384TIP3    H155567   0.809   0.185  15.290 -0.5956  0.7226  0.4776
11384TIP3    H255568   0.910   0.157  15.400  1.4071 -0.0215 -1.5278
11385TIP3   OH255569   5.383   2.763   4.032 -0.5713 -0.1971 -0.0245
11385TIP3    H155570   5.382   2.805   4.118  1.6591 -0.2835  0.0624
11385TIP3    H255571   5.456   2.804   3.986 -0.4652 -1.6173 -1.1447
11386TIP3   OH255572   5.801   6.418   2.407 -0.0009  0.1641 -0.8586
11386TIP3    H155573   5.874   6.440   2.349  0.8768 -1.7688 -0.5237
11386TIP3    H255574   5.781   6.327   2.386 -0.7416 -0.0512  0.7401
11387TIP3   OH255575   3.008   0.245  13.519 -0.2366  0.3671 -0.0910
11387TIP3    H155576   3.002   0.270  13.612 -0.7904 -1.3112  0.3506
11387TIP3    H255577   3.073   0.175  13.517 -0.9444 -0.2781 -0.8239
11388TIP3   OH255578   1.898   2.570   2.461 -0.2294 -0.1628  0.1687
11388TIP3    H155579   1.825   2.620   2.425  0.0095  0.1006  0.0467
11388TIP3    H255580   1.946   2.538   2.384 -0.6933 -1.0394  0.2426
11389TIP3   OH255581   0.478   5.177  15.050  0.0504 -0.6316 -0.0793
11389TIP3    H155582   0.531   5.240  15.002  0.0126 -2.3242 -2.4590
11389TIP3    H255583   0.388   5.205  15.033  0.0534 -0.8918 -0.5372
11390TIP3   OH255584   1.259   4.743  12.391  0.1425  0.1202 -0.2308
11390TIP3    H155585   1.345   4.719  12.424 -0.9580 -1.6672  1.4136
11390TIP3    H255586   1.251   4.836  12.411  0.6515 -0.2856  2.0084
11391TIP3   OH255587   2.740   3.810  15.341  0.4402  0.3730 -0.2354
11391TIP3    H155588   2.698   3.876  15.286 -1.0154  0.9653  1.5604
11391TIP3    H255589   2.808   3.858  15.388  1.3146 -0.0248 -1.0640
11392TIP3   OH255590   0.503   0.809   5.842  0.3134 -0.1402 -0.0918
11392TIP3    H155591   0.551   0.825   5.923 -0.5700  1.2388  0.1698
11392TIP3    H255592   0.544   0.868   5.778  1.0760 -1.2980 -0.6754
11393TIP3   OH255593   1.044   3.157  16.873 -0.6497  0.4419  0.2609
11393TIP3    H155594   1.004   3.176  16.788 -1.8434 -0.1063  0.6917
11393TIP3    H255595   1.120   3.215  16.876 -1.6579  1.8472 -0.3812
11394TIP3   OH255596   6.688   5.084  12.038 -0.0540  0.1283 -0.3713
11394TIP3    H155597   6.680   5.091  12.134  0.9767 -1.3465 -0.1603
11394TIP3    H255598   6.781   5.096  12.021 -0.1799  0.0005 -1.1510
11395TIP3   OH255599   2.752   5.310  14.263 -0.4296  0.2537 -0.1973
11395TIP3    H155600   2.734   5.326  14.170  4.1948 -1.6455 -1.6075
11395TIP3    H255601   2.702   5.231  14.284  1.6198 -1.7452 -2.3839
11396TIP3   OH255602   0.546   1.210   1.397  0.6853 -0.0335 -0.2568
11396TIP3    H155603   0.600   1.273   1.445  1.5315 -0.1108 -1.0774
11396TIP3    H255604   0.561   1.127   1.442  0.9534  0.0202 -0.2441
11397TIP3   OH255605   3.652   2.317   5.001  0.2834  0.3429 -0.4921
11397TIP3    H155606   3.606   2.319   4.917  1.1310  0.4783 -0.9580
11397TIP3    H255607   3.687   2.228   5.008  1.1867  0.6622 -0.8234
11398TIP3   OH255608   0.318   2.796  13.141  0.0573 -0.1054 -0.0675
11398TIP3    H155609   0.399   2.846  13.137 -0.0858  0.0461 -1.9008
11398TIP3    H255610   0.342   2.707  13.114 -0.3810 -0.0393 -0.7103
11399TIP3   OH255611   5.341   1.006   3.267  0.7376 -0.0097 -0.5860
11399TIP3    H155612   5.389   1.007   3.350 -0.9874  0.4418  0.4224
11399TIP3    H255613   5.403   1.042   3.204  1.6542  0.7876  0.7384
11400TIP3   OH255614   4.593   5.422  14.684 -0.4313  0.2216 -0.4452
11400TIP3    H155615   4.632   5.339  14.656  4.1980  1.6960  1.2207
11400TIP3    H255616   4.539   5.399  14.760  0.6359 -1.2877 -0.1340
11401TIP3   OH255617   3.048   4.392  16.621  0.3407  0.2412  0.2410
11401TIP3    H155618   3.112   4.405  16.691  0.6530  0.0820 -0.0167
11401TIP3    H255619   2.997   4.473  16.620 -0.4099 -0.2033  1.4150
11402TIP3   OH255620   5.804   3.762   0.036  0.3590  0.2419 -0.6198
11402TIP3    H155621   5.770   3.849   0.012  1.3115  0.7359 -0.2168
11402TIP3    H255622   5.753   3.738   0.114  1.4232  1.3211  0.4422
11403TIP3   OH255623   4.610   1.781   2.357 -0.1969 -0.3789  0.7251
11403TIP3    H155624   4.519   1.811   2.355 -0.3932 -0.8515  1.8557
11403TIP3    H255625   4.647   1.821   2.436 -0.0444 -1.8677  1.4389
11404TIP3   OH255626   4.980   0.783  13.568 -0.2358 -0.0001  0.6683
11404TIP3    H155627   5.056   0.753  13.518  0.2977 -0.0420  1.4833
11404TIP3    H255628   5.002   0.760  13.659  0.2254  2.9311  1.3313
11405TIP3   OH255629   0.278   2.011   2.590  0.4556  0.4012 -0.6184
11405TIP3    H155630   0.225   2.031   2.668  0.7166  2.6810 -0.9992
11405TIP3    H255631   0.350   1.958   2.623 -1.2260 -1.4871  0.1457
11406TIP3   OH255632   2.066   0.826   2.176  0.5106  0.1444  0.1500
11406TIP3    H155633   2.088   0.898   2.117 -2.0603  0.5639 -0.3403
11406TIP3    H255634   2.078   0.747   2.123 -2.0470  0.5323 -1.0617
11407TIP3   OH255635   6.289   5.228  16.527 -0.0467 -0.0504 -0.0579
11407TIP3    H155636   6.204   5.197  16.558  0.0162  1.5768  1.8663
11407TIP3    H255637   6.279   5.322  16.518  1.2479  0.0225 -0.8583
11408TIP3   OH255638   5.083   6.119  14.953 -0.5213 -0.5576  0.3595
11408TIP3    H155639   5.005   6.146  15.001 -0.6179 -0.3831  0.1072
11408TIP3    H255640   5.052   6.050  14.894 -0.7461  0.4085 -0.6585
11409TIP3   OH255641   4.811   1.033   1.970 -0.2567 -0.2336  0.3455
11409TIP3    H155642   4.789   1.007   2.060 -0.1578  0.3505  0.5380
11409TIP3    H255643   4.905   1.019   1.964 -0.4259 -1.2666  0.0029
11410TIP3   OH255644   5.453   4.900   2.753  0.5480  0.6387  0.5383
11410TIP3    H155645   5.434   4.825   2.808  1.1475 -0.5619 -0.8662
11410TIP3    H255646   5.374   4.954   2.758 -0.0902 -0.3449  1.1340
11411TIP3   OH255647   1.834   3.191   6.803 -0.2026 -0.5940 -0.0917
11411TIP3    H155648   1.910   3.234   6.765  0.2699 -1.4519 -0.1366
11411TIP3    H255649   1.853   3.097   6.795 -1.6855 -0.8369 -0.9958
11412TIP3   OH255650   1.325   5.422   6.629 -0.2836  0.3200  0.0061
11412TIP3    H155651   1.360   5.436   6.540 -0.2570 -1.6376 -0.3079
11412TIP3    H255652   1.381   5.476   6.685 -0.1548  1.4045 -1.1367
11413TIP3   OH255653   5.770   0.800   3.514  0.2013  0.0885 -0.0279
11413TIP3    H155654   5.818   0.791   3.432  0.2391  1.3183 -0.1391
11413TIP3    H255655   5.747   0.892   3.520 -0.4846 -0.1279  0.9671
11414TIP3   OH255656   5.999   6.021   3.004 -0.1898  0.3656 -0.1703
11414TIP3    H155657   6.025   6.019   2.912 -0.2492  1.3838 -0.2211
11414TIP3    H255658   6.026   5.936   3.039 -1.3900 -0.5599 -1.4443
11415TIP3   OH255659   4.576   5.018  12.136  0.2632  1.1176  0.0850
11415TIP3    H155660   4.505   5.013  12.072  0.0399 -0.2151  0.4134
11415TIP3    H255661   4.533   5.010  12.221  0.7676  0.5884  0.2987
11416TIP3   OH255662   5.717   6.431  15.149  0.6703  0.0444  0.7378
11416TIP3    H155663   5.747   6.348  15.187  0.4670  0.3600  1.5995
11416TIP3    H255664   5.700   6.487  15.224  1.6445  1.1711  0.1336
11417TIP3   OH255665   5.448   4.252   5.242 -0.1364 -0.1183  0.1484
11417TIP3    H155666   5.435   4.235   5.148  0.0354  1.6156 -0.2016
11417TIP3    H255667   5.382   4.318   5.263  0.8439  0.6398  0.8881
11418TIP3   OH255668   2.671   6.343   4.339  0.3548 -0.0407 -0.0968
11418TIP3    H155669   2.720   6.403   4.284 -0.2521  0.6118  0.0779
11418TIP3    H255670   2.609   6.300   4.280  0.5095 -0.2015 -0.1437
11419TIP3   OH255671   3.841   2.285   4.286  0.4371  0.0539  0.3218
11419TIP3    H155672   3.806   2.228   4.218 -1.1553  2.3933 -0.8858
11419TIP3    H255673   3.932   2.301   4.260  0.5419 -0.9410  0.0488
11420TIP3   OH255674   2.210   3.369   1.718  0.5730  0.5499 -0.4327
11420TIP3    H155675   2.132   3.421   1.737  1.1328  1.6799 -1.1561
11420TIP3    H255676   2.182   3.278   1.726 -0.1912  0.9546  1.8555
11421TIP3   OH255677   4.708   3.666  12.501  0.4060  0.4833  0.4203
11421TIP3    H155678   4.796   3.653  12.538 -0.2004  1.4803  2.2555
11421TIP3    H255679   4.650   3.621  12.562 -0.3005 -1.2098 -1.4248
11422TIP3   OH255680   3.876   4.669   1.989  0.2216 -0.4346 -0.3715
11422TIP3    H155681   3.803   4.650   2.048  0.8803 -2.5311 -0.2019
11422TIP3    H255682   3.937   4.721   2.042 -0.1189 -0.5814  0.1675
11423TIP3   OH255683   3.809   6.457   3.788  0.0202 -0.7323 -0.0305
11423TIP3    H155684   3.865   6.487   3.716  0.4582  0.2546  0.7178
11423TIP3    H255685   3.854   6.381   3.824 -0.5723 -1.6847 -1.2705
11424TIP3   OH255686   1.033   1.727   0.169  0.4372 -0.7131  0.0509
11424TIP3    H155687   1.031   1.669   0.094  0.3721 -0.0021 -0.5024
11424TIP3    H255688   1.102   1.790   0.150  1.3938 -1.3689  1.2318
11425TIP3   OH255689   5.555   3.444   5.942 -0.1733 -0.1001 -0.0242
11425TIP3    H155690   5.584   3.484   6.024  1.7179 -1.8484  0.1986
11425TIP3    H255691   5.559   3.515   5.877 -1.7774  1.3112  1.3670
11426TIP3   OH255692   2.028   1.408   0.947 -0.1273  0.5514 -0.1664
11426TIP3    H155693   2.068   1.354   0.879  0.8790 -1.5302  2.0114
11426TIP3    H255694   2.073   1.492   0.939  0.1743  0.2646 -1.8685
11427TIP3   OH255695   6.076   3.766  17.074  0.3459 -0.3179  0.1393
11427TIP3    H155696   6.043   3.695  17.128 -0.4860 -0.7131 -0.8867
11427TIP3    H255697   6.126   3.723  17.004 -1.0216  0.0382 -1.0778
11428TIP3   OH255698   2.527   4.462   0.881  0.4932 -0.0253 -0.4011
11428TIP3    H155699   2.536   4.398   0.811 -1.0590  0.3806 -0.9785
11428TIP3    H255700   2.615   4.499   0.890  1.0136 -1.0365 -1.2024
11429TIP3   OH255701   4.794   2.165   0.993 -0.1665  1.2901  0.4321
11429TIP3    H155702   4.826   2.075   0.996  1.2966  1.7759 -0.5221
11429TIP3    H255703   4.872   2.219   1.003 -0.8410  2.4785 -0.6445
11430TIP3   OH255704   0.184   5.376   2.910 -0.5109  0.0481  0.1396
11430TIP3    H155705   0.268   5.332   2.893 -0.4286  0.0426  0.5526
11430TIP3    H255706   0.209   5.466   2.931 -0.8083  0.8240 -2.6500
11431TIP3   OH255707   5.530   6.537  14.094  0.3757  0.7604 -0.3016
11431TIP3    H155708   5.572   6.461  14.055 -1.2692 -0.7500  0.7891
11431TIP3    H255709   5.599   6.580  14.144  1.5065  0.4315 -1.5620
11432TIP3   OH255710   3.877   1.840  12.047  0.4716  0.8060 -0.1725
11432TIP3    H155711   3.786   1.828  12.023 -0.0145  0.3993  1.8448
11432TIP3    H255712   3.926   1.805  11.972 -1.0028  0.6973 -1.1070
11433TIP3   OH255713   1.805   6.381   3.127  0.0496  0.3127 -0.4462
11433TIP3    H155714   1.794   6.388   3.222  1.0817  1.0088 -0.3600
11433TIP3    H255715   1.733   6.326   3.098  0.4200 -0.9276  0.9045
11434TIP3   OH255716   5.648   0.815   0.406  0.1409  0.3644  0.4286
11434TIP3    H155717   5.574   0.858   0.363  0.7027  0.6481 -0.2582
11434TIP3    H255718   5.623   0.723   0.412  0.0414  0.3261 -0.4824
11435TIP3   OH255719   1.578   5.113  16.223 -0.8321  0.4467  0.2065
11435TIP3    H155720   1.555   5.021  16.240 -1.5187  0.7744  1.0662
11435TIP3    H255721   1.669   5.110  16.195 -0.6651 -0.4295  0.8252
11436TIP3   OH255722   1.493   5.967   2.601  0.1023 -0.4239 -0.5693
11436TIP3    H155723   1.524   5.910   2.671 -3.5027 -0.3063  1.2546
11436TIP3    H255724   1.461   6.045   2.647  1.3075  1.3851 -2.7005
11437TIP3   OH255725   3.673   5.370   5.498  0.2565 -0.3648  0.2524
11437TIP3    H155726   3.693   5.403   5.410 -0.9685  1.4421  0.6056
11437TIP3    H255727   3.597   5.313   5.486 -0.7119  0.8992  0.2940
11438TIP3   OH255728   1.138   1.777  12.519  0.8353  0.0496  0.2764
11438TIP3    H155729   1.168   1.855  12.567  0.4074  1.1978 -1.2637
11438TIP3    H255730   1.196   1.707  12.548  1.2403  0.9526  1.6871
11439TIP3   OH255731   0.015   6.441  16.033  0.3364  0.1348  0.3382
11439TIP3    H155732   0.077   6.475  16.098  0.5787  0.5665 -0.1190
11439TIP3    H255733   0.060   6.447  15.950  0.1851 -0.8497  0.1845
11440TIP3   OH255734   2.086   6.694  12.110 -0.3388 -0.7314 -0.3260
11440TIP3    H155735   2.049   6.659  12.191  0.4990 -0.3087  0.2466
11440TIP3    H255736   2.012   6.735  12.065 -0.9193 -1.4582 -0.0445
11441TIP3   OH255737   1.986   3.004  12.173  0.1304 -0.2223  0.0550
11441TIP3    H155738   1.918   3.071  12.162  1.8219  1.5604  0.2146
11441TIP3    H255739   1.967   2.966  12.259  0.2701  1.4049  0.8360
11442TIP3   OH255740   2.002   2.187   4.087 -0.0971  0.1293 -0.0611
11442TIP3    H155741   1.972   2.272   4.056  0.0739  1.0141  2.1689
11442TIP3    H255742   1.952   2.170   4.167  1.6990 -0.6641  0.9350
11443TIP3   OH255743   5.437   4.737  12.050  0.0532 -0.2898 -0.5490
11443TIP3    H155744   5.439   4.699  12.138 -1.1608  0.3593 -0.2328
11443TIP3    H255745   5.389   4.819  12.061  1.2432  0.5531 -1.5283
11444TIP3   OH255746   1.635   6.267   0.218  0.5027  0.1905  0.2598
11444TIP3    H155747   1.660   6.339   0.160  0.6153  0.1715  0.2851
11444TIP3    H255748   1.718   6.230   0.248  0.4459 -0.4276 -0.3419
11445TIP3   OH255749   4.580   2.302  15.389 -0.5811  0.3411  0.3676
11445TIP3    H155750   4.504   2.350  15.422 -1.3514 -1.2055  0.9199
11445TIP3    H255751   4.543   2.242  15.323 -0.0931 -1.3898  1.6146
11446TIP3   OH255752   0.134   5.158   0.838 -0.0321  0.4121  0.6758
11446TIP3    H155753   0.180   5.237   0.867  1.2152 -0.2288  0.4520
11446TIP3    H255754   0.072   5.190   0.772 -1.0257  1.5010  2.0886
11447TIP3   OH255755   3.205   3.779  11.098  0.0337 -0.3227  0.2942
11447TIP3    H155756   3.140   3.746  11.161 -0.6654  0.4161 -0.0383
11447TIP3    H255757   3.188   3.873  11.093  1.5170 -0.0329  0.6427
11448TIP3   OH255758   0.023   5.371  16.735  0.0357  0.0416 -0.0258
11448TIP3    H155759  -0.008   5.346  16.822  0.1834 -0.2969 -0.0719
11448TIP3    H255760  -0.046   5.341  16.676 -2.0426  3.8105  0.3064
11449TIP3   OH255761   1.570   4.661  15.020  0.0313  0.5933  0.5563
11449TIP3    H155762   1.509   4.587  15.025 -2.3732  2.5293  1.1354
11449TIP3    H255763   1.527   4.723  14.961  2.8866  0.7876 -1.4101
11450TIP3   OH255764   0.669   2.329   1.145  0.3383  0.1363  0.3204
11450TIP3    H155765   0.722   2.273   1.088 -0.3362 -0.5624  0.3684
11450TIP3    H255766   0.600   2.362   1.087  1.1907  1.5622  0.1016
11451TIP3   OH255767   3.451   6.670   3.538 -0.1474 -0.6605  0.3173
11451TIP3    H155768   3.525   6.724   3.509 -0.0026 -0.1350  1.6234
11451TIP3    H255769   3.474   6.581   3.512  0.7156 -0.4266  0.2705
11452TIP3   OH255770   1.073   1.851  14.634  0.5045  0.6127 -0.2703
11452TIP3    H155771   1.118   1.813  14.710  1.4607  0.5190 -0.8759
11452TIP3    H255772   1.050   1.939  14.662 -0.2112  0.1727  0.5461
11453TIP3   OH255773   6.588   3.407   6.085  0.0910  0.4442  0.3408
11453TIP3    H155774   6.590   3.502   6.089 -0.9372  0.4251  1.5946
11453TIP3    H255775   6.509   3.382   6.133  1.0705 -1.1001  1.1972
11454TIP3   OH255776   6.033   5.037  16.910  0.2789  0.5064  0.1211
11454TIP3    H155777   6.031   5.124  16.870 -0.4468  0.5652  0.2810
11454TIP3    H255778   6.028   5.053  17.004 -0.0969  0.2792  0.1403
11455TIP3   OH255779   3.846   6.044  12.561 -0.3970  0.0503 -0.5910
11455TIP3    H155780   3.858   5.991  12.482 -1.9229  0.3877 -1.0737
11455TIP3    H255781   3.866   6.134  12.533  0.1270  0.0213 -0.3125
11456TIP3   OH255782   6.003   5.218  16.668 -0.1131  0.1277 -0.3616
11456TIP3    H155783   5.979   5.263  16.588 -0.1732 -0.0903 -0.4676
11456TIP3    H255784   5.976   5.127  16.653 -1.3900  0.3680  0.4375
11457TIP3   OH255785   3.420   1.636  12.170 -0.0216 -0.8918 -0.1696
11457TIP3    H155786   3.425   1.611  12.078  1.2436  0.1267 -0.3990
11457TIP3    H255787   3.501   1.602  12.208  1.4959  2.2879 -0.3879
11458TIP3   OH255788   2.135   0.012  15.323  0.6177 -0.0493  0.0961
11458TIP3    H155789   2.052   0.005  15.276  0.6776  0.8616 -0.1735
11458TIP3    H255790   2.153   0.106  15.324  1.8859 -0.2732 -0.2801
11459TIP3   OH255791   5.395   1.570   1.259  0.2238 -0.1624 -0.4565
11459TIP3    H155792   5.399   1.540   1.168 -1.8451 -1.6125 -0.1105
11459TIP3    H255793   5.438   1.501   1.309 -2.3898 -1.4933  0.0746
11460TIP3   OH255794   0.118   5.467   4.901 -0.0687  0.7113 -0.0838
11460TIP3    H155795   0.201   5.514   4.905  0.6752 -0.6624  1.4323
11460TIP3    H255796   0.132   5.400   4.834  0.2346  0.1569  0.5275
11461TIP3   OH255797   3.938   5.502  16.476  0.1462 -0.0107 -0.4034
11461TIP3    H155798   3.976   5.448  16.407  0.6367 -1.0522  0.6536
11461TIP3    H255799   3.869   5.552  16.433  0.7896 -0.2710 -1.7426
11462TIP3   OH255800   0.645   0.339  12.700  0.2882 -0.2656  0.0977
11462TIP3    H155801   0.612   0.260  12.656 -0.6351  0.5423 -0.6731
11462TIP3    H255802   0.575   0.403  12.690  0.5138  0.2699  1.8377
11463TIP3   OH255803   3.743   1.402  16.826  0.8837  0.2742 -0.0095
11463TIP3    H155804   3.746   1.479  16.884 -0.2406 -0.0989  0.5523
11463TIP3    H255805   3.739   1.440  16.738 -0.2138  0.8764  0.2866
11464TIP3   OH255806   5.042   6.444   5.463 -0.2274  0.1162 -0.0516
11464TIP3    H155807   5.091   6.526   5.456 -1.3384  0.7351 -0.8516
11464TIP3    H255808   4.961   6.461   5.415 -0.7817 -1.2200  0.3926
11465TIP3   OH255809   0.260   1.116  14.025 -0.0884  0.1915  0.5821
11465TIP3    H155810   0.288   1.053  14.091 -1.2180 -0.8293  0.0939
11465TIP3    H255811   0.250   1.198  14.074  0.8264 -0.1246  1.3228
11466TIP3   OH255812   2.912   1.738  15.998 -0.3730 -0.0051  0.3249
11466TIP3    H155813   2.885   1.819  16.042  0.1713  1.0134 -1.2159
11466TIP3    H255814   2.835   1.711  15.948 -0.3513 -0.1437  0.3635
11467TIP3   OH255815   1.163   0.761   2.646  0.2153  0.1194 -0.5957
11467TIP3    H155816   1.180   0.725   2.558 -2.0709 -1.2240 -0.5252
11467TIP3    H255817   1.194   0.693   2.705  0.3367  0.3712 -0.3699
11468TIP3   OH255818   4.138   5.479   4.384 -0.4277  0.0919 -0.2095
11468TIP3    H155819   4.068   5.416   4.371  0.9963 -1.4966 -0.4189
11468TIP3    H255820   4.176   5.456   4.469 -1.0458  1.8327  0.5651
11469TIP3   OH255821   3.410   4.079  16.713 -0.1913 -0.0876  0.1715
11469TIP3    H155822   3.388   4.150  16.653  3.3380 -1.4360 -2.8699
11469TIP3    H255823   3.427   4.004  16.656  1.1917 -2.0161  3.0167
11470TIP3   OH255824   2.417   5.624   4.187  0.2963  0.3550 -0.2729
11470TIP3    H155825   2.415   5.692   4.119 -0.0311  0.0986 -0.5196
11470TIP3    H255826   2.489   5.567   4.162  0.9367  0.9322  0.2448
11471TIP3   OH255827   0.133   5.993   1.013 -0.1127  0.6016  0.0208
11471TIP3    H155828   0.159   5.906   0.982 -2.1592 -0.6014  1.5453
11471TIP3    H255829   0.215   6.038   1.032  0.9428 -1.9105  1.6341
11472TIP3   OH255830   1.606   1.677  16.598  0.4339  0.3598 -0.0928
11472TIP3    H155831   1.554   1.704  16.523  0.9610  0.5772 -0.3799
11472TIP3    H255832   1.551   1.697  16.674  0.1390  0.6828 -0.3921
11473TIP3   OH255833   3.308   3.823  13.006 -0.3885 -0.1024  0.4365
11473TIP3    H155834   3.283   3.731  13.010  0.3791 -0.2638  1.5944
11473TIP3    H255835   3.266   3.856  12.926  1.6866 -2.1403 -1.5420
11474TIP3   OH255836   4.821   0.437   4.353 -0.6197 -0.3128  0.3927
11474TIP3    H155837   4.788   0.522   4.326  0.6109  0.1970  0.4540
11474TIP3    H255838   4.830   0.387   4.272 -0.1223  0.0624  0.2150
11475TIP3   OH255839   1.121   1.464   6.050  0.4375  0.1741  0.1451
11475TIP3    H155840   1.084   1.512   6.124 -2.2481  0.4784 -1.3032
11475TIP3    H255841   1.159   1.532   5.994  2.4721 -0.0564  1.2311
11476TIP3   OH255842   5.715   0.598   1.775  0.1069 -0.4284  0.0387
11476TIP3    H155843   5.625   0.622   1.752  0.1823  1.5914  1.6506
11476TIP3    H255844   5.769   0.651   1.718  0.2739 -0.4011  0.2217
11477TIP3   OH255845   5.367   3.984  11.851 -0.0994  0.6359 -0.3002
11477TIP3    H155846   5.328   3.948  11.930  1.8016 -0.5206  0.1440
11477TIP3    H255847   5.292   4.015  11.799 -1.5514 -0.9036  0.8078
11478TIP3   OH255848   5.911   5.775  11.114 -0.1396 -0.0951  0.7667
11478TIP3    H155849   5.969   5.805  11.183 -1.3401 -0.6612  2.0417
11478TIP3    H255850   5.877   5.855  11.074  1.5621  0.2377 -0.0449
11479TIP3   OH255851   5.803   3.120  14.118  0.0561  0.4980  0.2570
11479TIP3    H155852   5.891   3.148  14.145  0.0183  1.7611 -0.8987
11479TIP3    H255853   5.784   3.045  14.175  1.7667  0.3748  0.7088
11480TIP3   OH255854   5.064   0.639   0.789  0.0440 -0.1307  0.1682
11480TIP3    H155855   5.083   0.630   0.883 -1.0607 -0.2344  0.3826
11480TIP3    H255856   4.973   0.611   0.780 -0.1327  0.7476 -0.8062
11481TIP3   OH255857   3.091   2.127  12.401 -0.2573 -0.2190 -0.2600
11481TIP3    H155858   3.002   2.150  12.428  0.0368  1.5240 -0.7434
11481TIP3    H255859   3.148   2.182  12.454  0.4808 -0.1999 -1.0629
11482TIP3   OH255860   6.643   5.653   2.427 -0.0341 -0.1346 -0.3268
11482TIP3    H155861   6.674   5.707   2.500  0.1624  0.4249 -0.8220
11482TIP3    H255862   6.571   5.601   2.465  1.7181 -1.7184  0.9184
11483TIP3   OH255863   0.987   6.777   5.151  0.0322  0.5702 -0.2421
11483TIP3    H155864   0.982   6.854   5.094  1.3937  0.6792 -0.2442
11483TIP3    H255865   1.069   6.734   5.126  0.9002  0.8822  1.9030
11484TIP3   OH255866   3.987   2.850   2.375  0.0528 -0.0637 -0.1159
11484TIP3    H155867   3.988   2.944   2.357 -0.2354 -0.0130  0.1303
11484TIP3    H255868   3.904   2.836   2.420  0.2147 -0.3971  0.0710
11485TIP3   OH255869   3.532   4.398  14.459  0.2590 -0.2224  0.6892
11485TIP3    H155870   3.559   4.310  14.487 -0.1628 -0.7424 -0.5204
11485TIP3    H255871   3.611   4.437  14.422 -0.2585 -1.2350 -1.5827
11486TIP3   OH255872   6.323   4.508   1.829  0.0985 -0.2082 -0.1636
11486TIP3    H155873   6.368   4.592   1.829 -0.1794 -0.0338 -1.8686
11486TIP3    H255874   6.372   4.454   1.767  0.6466 -1.5226  1.3719
11487TIP3   OH255875   1.097   6.690  13.950  0.6194  0.8233  0.4555
11487TIP3    H155876   1.026   6.753  13.940 -0.3105 -0.3358 -0.3716
11487TIP3    H255877   1.173   6.744  13.972 -0.6803  1.9932  2.1834
11488TIP3   OH255878   1.713   5.400   5.849  0.0412  0.1840 -0.0117
11488TIP3    H155879   1.654   5.452   5.903 -1.2276 -1.6399  0.4262
11488TIP3    H255880   1.784   5.375   5.908 -1.5061 -2.0768  0.9628
11489TIP3   OH255881   2.942   1.694   3.020  0.2934 -0.4281 -0.1915
11489TIP3    H155882   2.931   1.772   2.965 -1.2611 -1.2151 -1.0466
11489TIP3    H255883   2.916   1.722   3.108 -1.8758 -0.3930 -0.8203
11490TIP3   OH255884   1.439   3.555  15.670 -0.2737  0.7770 -0.0569
11490TIP3    H155885   1.424   3.634  15.618 -0.4057 -0.1806 -1.4796
11490TIP3    H255886   1.352   3.525  15.694 -0.3418 -0.2424 -1.5076
11491TIP3   OH255887   1.135   3.546   2.137  0.2219 -0.0678  0.4900
11491TIP3    H155888   1.162   3.455   2.136 -1.0945 -0.4709  1.0071
11491TIP3    H255889   1.192   3.588   2.202  0.7715 -0.5280  0.3050
11492TIP3   OH255890   5.681   1.099   4.775 -0.3462 -0.2475  0.2790
11492TIP3    H155891   5.594   1.136   4.759  0.0738  0.3929 -0.5416
11492TIP3    H255892   5.733   1.172   4.807  0.1458 -0.4216 -0.1274
11493TIP3   OH255893   3.214   4.037  10.992 -0.1719 -0.1656  0.4532
11493TIP3    H155894   3.287   4.010  10.936  0.2748 -0.3323  1.1171
11493TIP3    H255895   3.236   4.126  11.019 -0.5025  0.0012  0.1739
11494TIP3   OH255896   6.725   0.986  12.544  0.2881  0.7357  0.2291
11494TIP3    H155897   6.710   1.027  12.459 -0.8670 -0.2288 -0.0518
11494TIP3    H255898   6.751   0.896  12.522 -2.6774 -0.3536  0.9004
11495TIP3   OH255899   3.651   5.976  13.914 -0.6856 -0.1102  0.3552
11495TIP3    H155900   3.628   5.895  13.868 -0.2374 -1.1919  1.9941
11495TIP3    H255901   3.737   5.999  13.879 -0.4045 -0.8467  0.5504
11496TIP3   OH255902   5.267   6.360   5.765  0.8471  0.1375  0.9514
11496TIP3    H155903   5.246   6.274   5.802 -0.0229 -0.1613 -0.2145
11496TIP3    H255904   5.285   6.344   5.673 -2.2572  1.5718  0.0131
11497TIP3   OH255905   6.457   5.045  16.449  0.5218  0.1742  0.5026
11497TIP3    H155906   6.407   5.019  16.372  0.9659  0.6395  0.0477
11497TIP3    H255907   6.399   5.104  16.497  0.2574 -0.0862  0.5020
11498TIP3   OH255908   3.189   4.658   5.155  0.2429  0.0239 -0.5879
11498TIP3    H155909   3.177   4.565   5.132  0.7711 -0.4634  1.0718
11498TIP3    H255910   3.239   4.656   5.236 -0.1376  1.7709 -0.3061
11499TIP3   OH255911   5.804   0.043   4.344  1.1034 -0.6437  0.2881
11499TIP3    H155912   5.827   0.014   4.256 -1.6733  0.5455 -0.8797
11499TIP3    H255913   5.846   0.129   4.352  0.9424 -0.5357 -0.0457
11500TIP3   OH255914   2.507   4.065  14.845 -0.3056  0.1028  0.1668
11500TIP3    H155915   2.507   3.970  14.855 -0.1165  0.1633  0.7956
11500TIP3    H255916   2.472   4.098  14.928  1.2027  0.6398  0.6088
11501TIP3   OH255917   1.963   5.018  14.166 -0.3747  0.6871  0.0744
11501TIP3    H155918   1.950   5.084  14.099  3.2329  2.3825  0.9169
11501TIP3    H255919   1.980   4.937  14.117  0.3123  1.4909 -1.0286
11502TIP3   OH255920   3.376   1.341  15.425  0.4532  0.4523  0.7090
11502TIP3    H155921   3.359   1.311  15.335  0.5257  0.9554  0.5300
11502TIP3    H255922   3.303   1.400  15.445  1.0957  1.3057  0.5395
11503TIP3   OH255923   0.095   2.931   3.782 -0.3735  0.0580  0.4135
11503TIP3    H155924   0.173   2.963   3.737 -0.6115 -2.9456 -2.3564
11503TIP3    H255925   0.124   2.853   3.828 -0.8638  1.3188  2.9590
11504TIP3   OH255926   6.501   6.205  10.268 -0.4937  0.1123 -0.4149
11504TIP3    H155927   6.530   6.258  10.193  0.3996 -1.1351 -0.9798
11504TIP3    H255928   6.474   6.122  10.229  0.0444 -0.5760  0.6539
11505TIP3   OH255929   4.209   3.827  12.042  0.1531  0.5359 -0.7525
11505TIP3    H155930   4.243   3.915  12.030  1.4861  0.2329  0.7757
11505TIP3    H255931   4.272   3.783  12.098 -2.0002 -0.4827  0.9764
11506TIP3   OH255932   5.290   6.448  11.497 -0.1947  0.2004 -0.0057
11506TIP3    H155933   5.230   6.427  11.426 -0.0583 -0.4107  0.0547
11506TIP3    H255934   5.341   6.368  11.510  0.2523  0.5314  0.3171
11507TIP3   OH255935   2.599   0.791   4.978  0.8523 -0.5293  0.0435
11507TIP3    H155936   2.592   0.886   4.989 -0.7616 -0.5908 -0.2816
11507TIP3    H255937   2.690   0.771   5.002  1.6096  1.2675 -1.1161
11508TIP3   OH255938   5.389   3.649   4.326  0.5486  0.2713 -0.1600
11508TIP3    H155939   5.387   3.628   4.420  1.6305 -1.4650 -0.5077
11508TIP3    H255940   5.481   3.670   4.308  0.2031  1.3554 -0.6789
11509TIP3   OH255941   1.099   0.660  11.580 -0.1990 -0.0507 -0.3190
11509TIP3    H155942   1.087   0.640  11.672 -1.5304  1.3568 -0.1747
11509TIP3    H255943   1.193   0.672  11.569 -0.1398  0.7982  1.0757
11510TIP3   OH255944   3.326   4.287   0.847  0.5696  0.2977  0.0537
11510TIP3    H155945   3.255   4.249   0.898 -0.3841  2.0683  0.0899
11510TIP3    H255946   3.375   4.212   0.813 -0.9433 -0.9195  0.5444
11511TIP3   OH255947   1.712   5.024   0.218 -0.6152 -0.5282  0.0948
11511TIP3    H155948   1.748   5.009   0.130  1.0780  1.0472  0.4758
11511TIP3    H255949   1.732   5.116   0.236 -0.5568 -0.9546  2.2927
11512TIP3   OH255950   0.500   5.314  16.320  0.3587 -0.1736 -0.1807
11512TIP3    H155951   0.501   5.219  16.305  0.0893 -0.3018  0.5896
11512TIP3    H255952   0.510   5.323  16.415 -0.3265  0.5517 -0.1720
11513TIP3   OH255953   0.530   2.243   2.660  0.4317  0.0579 -0.5454
11513TIP3    H155954   0.623   2.226   2.666  0.3889  0.1084  0.3982
11513TIP3    H255955   0.499   2.187   2.590  1.0674 -0.3861 -0.4709
11514TIP3   OH255956   0.609   2.216  16.327  0.2890  0.3897  0.0319
11514TIP3    H155957   0.697   2.197  16.360  0.2738  0.4333  0.1001
11514TIP3    H255958   0.590   2.304  16.361 -0.0911  0.0648  0.6660
11515TIP3   OH255959   3.716   1.630  16.245 -0.3384  0.0018 -0.0988
11515TIP3    H155960   3.689   1.721  16.256  0.9424  0.4380 -0.5041
11515TIP3    H255961   3.635   1.579  16.256 -1.0037  1.1598  0.4194
11516TIP3   OH255962   0.969   3.313  11.594  0.1698  0.1865  0.0336
11516TIP3    H155963   0.972   3.221  11.570 -1.6125  0.1064  0.0374
11516TIP3    H255964   1.037   3.354  11.542  1.0831 -1.1504  0.1413
11517TIP3   OH255965   1.818   2.755  13.534  0.7105  0.7441  0.0907
11517TIP3    H155966   1.794   2.758  13.441 -0.3829 -0.4407  0.3207
11517TIP3    H255967   1.792   2.841  13.567 -3.1534 -0.3810  0.2719
11518TIP3   OH255968   0.752   2.461   5.444 -0.1682 -0.2918  0.0384
11518TIP3    H155969   0.776   2.438   5.354 -0.6854 -0.9340  0.0579
11518TIP3    H255970   0.757   2.556   5.447  2.2714 -0.3822  0.0069
11519TIP3   OH255971   4.415   0.092  16.117 -0.5478 -0.0989  0.4329
11519TIP3    H155972   4.448   0.084  16.028  1.9844 -0.5699  1.3777
11519TIP3    H255973   4.346   0.025  16.122  0.2250 -1.0068 -0.7495
11520TIP3   OH255974   4.151   3.773   3.192  0.4396  0.0870 -0.4401
11520TIP3    H155975   4.153   3.678   3.190 -0.2946  0.0547 -0.0355
11520TIP3    H255976   4.149   3.795   3.285 -2.3225  0.4069 -0.5428
11521TIP3   OH255977   4.240   2.322  12.487  0.0610  0.2153  0.0935
11521TIP3    H155978   4.215   2.382  12.418  1.4315  1.7108  0.8604
11521TIP3    H255979   4.294   2.374  12.546  0.9205 -1.6502  1.0130
11522TIP3   OH255980   2.782   2.654  12.206 -0.8028  1.0201  0.3227
11522TIP3    H155981   2.796   2.599  12.283 -2.2839 -0.0514 -0.1491
11522TIP3    H255982   2.870   2.680  12.178 -0.1752  0.1236  1.4503
11523TIP3   OH255983   3.897   3.170   1.973 -0.1315 -0.1390 -0.0530
11523TIP3    H155984   3.947   3.155   1.893 -1.7321 -2.7226 -0.6280
11523TIP3    H255985   3.963   3.180   2.041  1.2325  1.3708 -1.5544
11524TIP3   OH255986   1.141   0.072   0.976 -0.0561  0.3181 -0.0795
11524TIP3    H155987   1.097  -0.003   0.936  0.9924 -0.6047  0.4633
11524TIP3    H255988   1.138   0.054   1.070  0.7839  0.6265  0.0093
11525TIP3   OH255989   6.467   1.948   3.774 -0.5521  0.1673 -0.2309
11525TIP3    H155990   6.395   1.914   3.722 -0.5174 -0.2333 -0.0244
11525TIP3    H255991   6.544   1.940   3.717 -0.3546 -1.1034  0.1838
11526TIP3   OH255992   3.370   4.584   1.143  0.0471 -0.1634 -0.4210
11526TIP3    H155993   3.418   4.531   1.206  0.8175  0.8891 -0.1080
11526TIP3    H255994   3.399   4.552   1.057 -1.6668 -2.2031 -0.2940
11527TIP3   OH255995   5.333   5.097  15.914 -0.4877 -0.0143 -0.0209
11527TIP3    H155996   5.350   5.054  15.830  0.4943 -0.1877  0.2573
11527TIP3    H255997   5.331   5.190  15.893  0.3028 -0.0208 -0.1589
11528TIP3   OH255998   1.483   3.872   0.584  0.1209 -0.5783  0.0422
11528TIP3    H155999   1.410   3.817   0.612 -0.6082  0.7618  0.8070
11528TIP3    H256000   1.512   3.916   0.664 -2.4193  3.8213 -1.3159
11529TIP3   OH256001   2.431   6.708  14.835  0.0464  0.3544 -0.1722
11529TIP3    H156002   2.434   6.731  14.742 -1.4067  2.4737  0.2732
11529TIP3    H256003   2.386   6.624  14.838 -0.0720  0.3732 -1.3661
11530TIP3   OH256004   4.329   2.755   3.213  0.6417  0.1614 -0.0382
11530TIP3    H156005   4.384   2.776   3.288 -0.0844  1.5097  0.1333
11530TIP3    H256006   4.388   2.709   3.153  1.1018 -1.3709  1.5425
11531TIP3   OH256007   1.036   4.050  12.139 -0.5078 -0.1851 -0.5084
11531TIP3    H156008   1.109   4.064  12.080 -1.2231  1.6907 -1.0146
11531TIP3    H256009   1.044   4.121  12.204 -0.7581 -1.1270  0.5678
11532TIP3   OH256010   4.336   4.094   0.569  0.2912  0.0799 -0.3414
11532TIP3    H156011   4.247   4.083   0.603 -0.2739  1.5116 -1.2700
11532TIP3    H256012   4.393   4.080   0.645 -0.5314 -3.7272 -0.3268
11533TIP3   OH256013   1.354   4.196  13.606  0.1625  0.3727 -0.3959
11533TIP3    H156014   1.359   4.226  13.515 -0.1209 -1.0443 -0.8897
11533TIP3    H256015   1.393   4.109  13.605 -0.9230 -0.1369  0.6145
11534TIP3   OH256016   3.138   5.442   3.163  0.6689  0.0152  0.4512
11534TIP3    H156017   3.089   5.364   3.188  0.9622 -0.2649  0.1553
11534TIP3    H256018   3.070   5.506   3.141  0.4258 -0.4207 -0.1137
11535TIP3   OH256019   1.036   0.187  14.147  0.5079  0.3614 -0.0255
11535TIP3    H156020   0.978   0.147  14.082  0.9072  0.4904 -0.4668
11535TIP3    H256021   0.978   0.235  14.206 -0.0328 -1.4299  0.9107
11536TIP3   OH256022   1.540   3.472  17.073 -0.1525  0.0786 -0.5962
11536TIP3    H156023   1.507   3.428  17.151 -1.1172  0.0628 -1.0102
11536TIP3    H256024   1.472   3.534  17.049  1.1117  1.6665 -0.1527
11537TIP3   OH256025   2.820   2.304   0.255 -0.7377 -0.2156  0.5523
11537TIP3    H156026   2.876   2.252   0.312  2.0788  1.2390 -0.8254
11537TIP3    H256027   2.778   2.240   0.198 -0.1826 -1.2857  1.3187
11538TIP3   OH256028   6.098   1.848   2.381  0.1608  0.0382  0.8231
11538TIP3    H156029   6.165   1.808   2.436  0.2067 -0.8846  0.1031
11538TIP3    H256030   6.146   1.900   2.317  0.1121  1.0139  1.5811
11539TIP3   OH256031   4.860   6.058  17.097 -0.1984  0.0789 -0.3989
11539TIP3    H156032   4.816   6.096  17.021  0.2204  1.2745 -0.0584
11539TIP3    H256033   4.835   5.966  17.096 -1.6231  0.4657 -0.9665
11540TIP3   OH256034   2.102   5.753  14.985 -0.6388  0.3077 -0.0517
11540TIP3    H156035   2.197   5.753  15.000 -0.4465  0.5515 -1.2260
11540TIP3    H256036   2.079   5.846  14.976 -0.8925  0.2086 -0.3980
11541TIP3   OH256037   2.124   2.590  10.880 -0.2569  0.3900 -0.6656
11541TIP3    H156038   2.162   2.514  10.836  0.2616 -1.2208  2.3994
11541TIP3    H256039   2.197   2.651  10.890 -0.1830  0.4032 -1.2631
11542TIP3   OH256040   3.976   3.126  16.437  0.4735 -0.2448  0.3267
11542TIP3    H156041   3.917   3.195  16.469 -1.1921 -1.0742 -0.8889
11542TIP3    H256042   4.064   3.157  16.460 -0.3621  1.4992  1.2644
11543TIP3   OH256043   3.957   6.087   2.097 -0.3928 -0.0060 -0.3656
11543TIP3    H156044   3.968   6.072   2.003 -0.8313 -0.7949 -0.2927
11543TIP3    H256045   3.869   6.055   2.116 -1.1610  2.2096 -0.0964
11544TIP3   OH256046   4.085   3.120   2.900 -0.4094  0.0695  0.4767
11544TIP3    H156047   4.111   3.116   2.992 -2.7150  1.2106  1.2094
11544TIP3    H256048   4.167   3.106   2.851  0.9801  0.3083  2.6849
11545TIP3   OH256049   5.771   0.548  11.774 -0.2761  0.9117 -0.2599
11545TIP3    H156050   5.717   0.498  11.712 -0.3883 -0.6971  1.0904
11545TIP3    H256051   5.710   0.580  11.839  0.3666 -1.1992  1.4625
11546TIP3   OH256052   4.718   5.823  15.568  0.3348 -1.3200 -0.4736
11546TIP3    H156053   4.783   5.849  15.503  0.2068  0.2339 -0.0019
11546TIP3    H256054   4.709   5.900  15.625 -1.3986 -1.7626 -0.1304
11547TIP3   OH256055   3.351   6.425  15.729  0.1406 -0.2792 -0.3535
11547TIP3    H156056   3.377   6.480  15.803 -0.4861 -1.8550  1.0531
11547TIP3    H256057   3.258   6.445  15.716  0.6252  1.2063 -1.8068
11548TIP3   OH256058   1.140   2.471   2.208 -0.0906 -0.5366 -0.0971
11548TIP3    H156059   1.184   2.453   2.292 -0.0262  0.8995  0.1918
11548TIP3    H256060   1.066   2.527   2.232  0.1649  0.2168 -1.0580
11549TIP3   OH256061   5.005   4.467  14.628  0.2143  0.6034  0.4676
11549TIP3    H156062   4.922   4.462  14.581  0.5762  0.5121 -0.1708
11549TIP3    H256063   5.031   4.559  14.622 -0.0697  0.7241  1.0675
11550TIP3   OH256064   5.380   2.637   2.893  0.5162  0.1243  0.0866
11550TIP3    H156065   5.460   2.584   2.898  0.4617 -0.0974 -1.2620
11550TIP3    H256066   5.407   2.718   2.850 -0.0822 -0.1555 -0.8336
11551TIP3   OH256067   5.974   2.167   4.704 -0.1284 -0.0127  0.0658
11551TIP3    H156068   6.014   2.085   4.677  1.9196  0.9058  0.2023
11551TIP3    H256069   5.993   2.174   4.797 -0.6002  0.4463  0.1303
11552TIP3   OH256070   0.029   2.120  15.191 -0.2692  0.2451  0.1328
11552TIP3    H156071  -0.020   2.151  15.267 -2.6438  0.6934 -1.5486
11552TIP3    H256072   0.116   2.159  15.202 -1.3645  2.4601  1.2736
11553TIP3   OH256073   1.219   5.017  12.916 -0.1438  0.4113 -0.2230
11553TIP3    H156074   1.159   5.090  12.904  0.9329  0.9705 -2.4268
11553TIP3    H256075   1.206   4.961  12.839 -0.1560 -1.1633  0.8782
11554TIP3   OH256076   0.859   0.244   1.657  0.5989 -0.1269 -0.6533
11554TIP3    H156077   0.931   0.262   1.597  0.6515  1.1674 -0.2166
11554TIP3    H256078   0.898   0.254   1.744 -0.2599  1.2401 -0.4153
11555TIP3   OH256079   0.030   3.440  13.831 -0.3076  0.5743  0.4061
11555TIP3    H156080   0.033   3.420  13.737  1.5075 -2.9728  1.1542
11555TIP3    H256081   0.042   3.535  13.835  1.1150  0.6045 -2.8811
11556TIP3   OH256082   0.836   6.309   5.776 -0.2247  0.0641  0.6887
11556TIP3    H156083   0.788   6.238   5.732 -0.5857  0.6823  0.0710
11556TIP3    H256084   0.797   6.314   5.863  1.2843 -1.9487  1.5140
11557TIP3   OH256085   3.469   1.150  14.254  0.0874 -0.0896  0.5077
11557TIP3    H156086   3.423   1.098  14.320  2.6488 -1.1174  1.5301
11557TIP3    H256087   3.407   1.220  14.232 -2.0903 -1.5957  1.5863
11558TIP3   OH256088   3.572   6.624  15.264 -0.2135 -0.2650  0.6851
11558TIP3    H156089   3.501   6.630  15.200  1.0049  0.9951 -0.5720
11558TIP3    H256090   3.614   6.710  15.262  0.8884 -0.7557  1.9486
11559TIP3   OH256091   5.875   3.083   5.643  0.0019 -0.5270  0.2014
11559TIP3    H156092   5.926   3.150   5.689 -0.7917  0.4975 -0.4013
11559TIP3    H256093   5.916   3.076   5.557  0.0211 -0.7435  0.2285
11560TIP3   OH256094   3.387   3.753  15.003  0.5890 -0.0088 -0.3852
11560TIP3    H156095   3.440   3.809  14.946  1.1242 -1.7189 -1.6155
11560TIP3    H256096   3.451   3.697  15.047  0.0255  0.0086  0.4655
11561TIP3   OH256097   3.627   2.453  14.898  0.0418 -0.0021 -0.2313
11561TIP3    H156098   3.717   2.426  14.915  0.1258  1.8767  2.6399
11561TIP3    H256099   3.573   2.383  14.936  0.2777 -0.5800 -0.9551
11562TIP3   OH256100   4.803   5.023   4.298 -0.1839 -0.5110  0.0770
11562TIP3    H156101   4.788   5.118   4.303  2.2992 -0.0899 -0.0113
11562TIP3    H256102   4.772   4.990   4.382 -1.8153  0.2587 -0.2019
11563TIP3   OH256103   2.694   1.605  15.532 -0.0551  0.3177 -0.1589
11563TIP3    H156104   2.642   1.565  15.601  0.6089  0.1671  0.2552
11563TIP3    H256105   2.785   1.581  15.552  0.2464  1.1438 -0.4946
11564TIP3   OH256106   2.373   1.766  16.770  0.9574  0.0520  0.7412
11564TIP3    H156107   2.466   1.787  16.778  1.2857 -0.9397 -0.2767
11564TIP3    H256108   2.370   1.699  16.702 -0.6083  0.8590 -0.0185
11565TIP3   OH256109   5.019   1.799   2.006  0.4809  0.0721 -0.6857
11565TIP3    H156110   5.000   1.882   2.050  0.0882 -0.0816 -0.5554
11565TIP3    H256111   5.110   1.780   2.028  0.3678  0.1302 -0.1413
11566TIP3   OH256112   6.768   2.233  15.919  0.2914  0.1970  0.3202
11566TIP3    H156113   6.705   2.305  15.923  0.7469  0.7407 -1.7861
11566TIP3    H256114   6.780   2.207  16.010 -2.3822  0.5956  0.8147
11567TIP3   OH256115   5.015   2.751  16.752  0.3909 -0.0059  0.8455
11567TIP3    H156116   4.924   2.781  16.747 -0.0503 -1.2509  1.1012
11567TIP3    H256117   5.063   2.809  16.693 -0.5637  0.6789  0.7209
11568TIP3   OH256118   2.651   1.247  11.580 -0.2889 -0.1144  0.0077
11568TIP3    H156119   2.558   1.242  11.602  0.3848 -0.1567  3.0922
11568TIP3    H256120   2.666   1.338  11.556 -1.0785 -0.0803 -0.3570
11569TIP3   OH256121   4.851   0.394   4.772  0.6532  0.3865  0.0508
11569TIP3    H156122   4.810   0.346   4.843  0.1847 -0.0323 -0.4954
11569TIP3    H256123   4.859   0.484   4.804 -1.0404  0.5573  0.0226
11570TIP3   OH256124   6.225   0.950   5.436  0.3722 -0.0797 -0.3008
11570TIP3    H156125   6.187   1.034   5.460  1.5614  0.6560 -0.9767
11570TIP3    H256126   6.209   0.894   5.512 -1.3703  0.4210 -0.2658
11571TIP3   OH256127   2.560   2.917  16.962 -0.0477  0.6008 -0.1537
11571TIP3    H156128   2.587   3.005  16.988  0.3037  0.6897 -0.7992
11571TIP3    H256129   2.557   2.920  16.866  0.2780 -0.1701 -0.1980
11572TIP3   OH256130   2.600   4.443   5.793 -0.2401  0.7822 -0.2940
11572TIP3    H156131   2.567   4.435   5.703  0.9748  1.7508 -0.8340
11572TIP3    H256132   2.632   4.356   5.814  0.7427  0.8864 -1.3150
11573TIP3   OH256133   4.322   0.771  13.449 -0.4583 -0.4321 -0.7893
11573TIP3    H156134   4.228   0.783  13.457 -0.2562 -0.7917  3.1452
11573TIP3    H256135   4.360   0.855  13.474  0.2767 -0.9234 -0.1864
11574TIP3   OH256136   1.153   6.277   0.793 -1.1371 -0.3092 -0.1149
11574TIP3    H156137   1.237   6.292   0.836 -1.0498 -1.2246  0.0356
11574TIP3    H256138   1.091   6.265   0.865 -1.4361  0.5270 -0.2229
11575TIP3   OH256139   3.922   4.973  13.523 -0.0171  0.3095 -0.3115
11575TIP3    H156140   4.005   5.018  13.536  0.5807 -0.9271  0.2683
11575TIP3    H256141   3.868   5.035  13.475  0.1271  2.3849  2.1034
11576TIP3   OH256142   3.464   4.104   4.056 -0.0745 -0.6187  0.0074
11576TIP3    H156143   3.439   4.062   4.138 -2.4702  1.4142  0.4029
11576TIP3    H256144   3.514   4.181   4.083 -1.8429  0.6826 -0.3445
11577TIP3   OH256145   3.043   4.451  13.492  0.0986  0.1362  0.5789
11577TIP3    H156146   3.099   4.422  13.419 -1.4311 -1.3557 -0.0526
11577TIP3    H256147   2.954   4.437  13.460 -0.6002 -1.0791  2.9366
11578TIP3   OH256148   0.903   3.073   0.924  0.0364  0.1270  0.1457
11578TIP3    H156149   0.817   3.092   0.959  0.2530 -0.0054  0.7520
11578TIP3    H256150   0.933   3.157   0.888  0.4355  0.6286  1.6181
11579TIP3   OH256151   4.448   3.831   2.263 -0.0457  0.1381  0.2061
11579TIP3    H156152   4.423   3.740   2.246 -1.0271  0.3244  0.6501
11579TIP3    H256153   4.402   3.882   2.197  0.8171  0.2854 -0.2933
11580TIP3   OH256154   4.342   0.166   0.749  0.2947 -0.6686 -0.2125
11580TIP3    H156155   4.258   0.125   0.767  1.5704 -3.8694 -1.3027
11580TIP3    H256156   4.389   0.162   0.833 -0.5818  1.0634  0.3792
11581TIP3   OH256157   5.258   0.292   4.664  0.0703  0.2977 -0.1249
11581TIP3    H156158   5.299   0.377   4.674  2.9537 -0.6956 -2.8918
11581TIP3    H256159   5.174   0.310   4.620 -0.2896  1.8600  1.1814
11582TIP3   OH256160   3.965   0.653  12.677 -0.2437  0.5558 -0.3165
11582TIP3    H156161   3.967   0.741  12.713  0.9505  0.4080  0.0159
11582TIP3    H256162   4.023   0.602  12.734 -0.9208 -0.4497 -0.4948
11583TIP3   OH256163   0.330   1.749  10.734 -0.1199 -0.5693  0.1024
11583TIP3    H156164   0.236   1.732  10.732  0.0859 -1.7860  0.2317
11583TIP3    H256165   0.345   1.811  10.662 -1.2371  0.8181  1.0522
11584TIP3   OH256166   1.599   5.794  12.920  0.4600 -0.1323  0.4749
11584TIP3    H156167   1.658   5.801  12.844 -1.2081  2.3317 -0.6433
11584TIP3    H256168   1.634   5.857  12.983 -0.1926  0.3583  0.3486
11585TIP3   OH256169   0.019   5.108  14.056  0.1792  0.1727  0.1103
11585TIP3    H156170   0.110   5.086  14.073  1.1632  0.8183 -3.8996
11585TIP3    H256171  -0.025   5.023  14.048  1.5936 -0.3112 -3.4503
11586TIP3   OH256172   4.498   6.002  12.313 -0.3415 -0.5142 -0.5215
11586TIP3    H156173   4.590   6.028  12.317 -0.8014  0.9062  3.5638
11586TIP3    H256174   4.499   5.909  12.292  2.0716 -0.7172  0.3806
11587TIP3   OH256175   4.391   5.875   3.832  0.0569 -0.2791  0.1050
11587TIP3    H156176   4.383   5.867   3.927  0.5354  0.8743  0.2545
11587TIP3    H256177   4.435   5.795   3.805  1.2245  0.0312  1.0469
11588TIP3   OH256178   1.432   4.458   2.464  0.1191 -0.4667 -0.2996
11588TIP3    H156179   1.479   4.446   2.382  0.6886 -1.2950  0.1356
11588TIP3    H256180   1.457   4.382   2.517  0.2473  0.3824  0.8754
11589TIP3   OH256181   0.616   0.071  14.334  0.0262 -0.2738  0.0467
11589TIP3    H156182   0.560   0.137  14.292 -0.4749 -0.1450  0.9186
11589TIP3    H256183   0.561  -0.008  14.336 -0.0615 -0.1903  0.7594
11590TIP3   OH256184   3.679   1.050   4.383 -0.0204  0.4378 -0.1101
11590TIP3    H156185   3.650   0.990   4.314  2.5485 -0.8167 -0.1577
11590TIP3    H256186   3.747   1.103   4.341  0.7669  0.4368  1.1517
11591TIP3   OH256187   1.483   0.945  12.209 -0.1259  0.1609 -0.4689
11591TIP3    H156188   1.549   0.982  12.151 -0.5404  1.6769 -0.0051
11591TIP3    H256189   1.530   0.925  12.290 -0.3177  1.7446  0.0534
11592TIP3   OH256190   3.125   0.084  14.590 -0.1936  0.1350 -0.1162
11592TIP3    H156191   3.094   0.031  14.664 -0.5259  0.5744  0.0597
11592TIP3    H256192   3.087   0.171  14.605  0.7757  0.5653 -0.1303
11593TIP3   OH256193   1.304   4.127   4.521 -0.3010 -0.2686 -0.0159
11593TIP3    H156194   1.339   4.200   4.572  1.8628  0.0760 -1.9040
11593TIP3    H256195   1.290   4.057   4.585  0.4808  0.7783  1.3283
11594TIP3   OH256196   4.719   1.954  14.157  0.3878 -0.2245  0.1868
11594TIP3    H156197   4.670   2.034  14.137  3.8323  1.6322 -1.2745
11594TIP3    H256198   4.736   1.959  14.251  1.1638  1.1139 -0.0139
11595TIP3   OH256199   5.426   1.267   0.788  0.0303 -0.3151 -0.0359
11595TIP3    H156200   5.395   1.202   0.725 -0.3210 -0.7403  0.5738
11595TIP3    H256201   5.495   1.314   0.741 -0.6473 -0.2123 -0.9595
11596TIP3   OH256202   1.354   3.092  14.576  1.1291 -0.4636 -0.5596
11596TIP3    H156203   1.405   3.023  14.617  0.2071 -0.3705  0.7699
11596TIP3    H256204   1.291   3.119  14.643 -0.0532  0.0530 -1.8535
11597TIP3   OH256205   2.906   5.057  16.786  0.4926 -0.1877  0.7878
11597TIP3    H156206   2.901   5.140  16.833 -0.8099  0.1989 -0.0324
11597TIP3    H256207   2.960   5.001  16.843  1.0131  1.0612  1.5492
11598TIP3   OH256208   5.033   0.720  14.712 -0.3523 -0.7259 -0.2359
11598TIP3    H156209   5.029   0.777  14.789 -0.3895 -2.3636  0.9851
11598TIP3    H256210   4.943   0.719  14.678 -0.6929 -1.3007  0.6650
11599TIP3   OH256211   2.819   1.882   1.444  0.1983  0.8039 -0.1556
11599TIP3    H156212   2.868   1.874   1.362  2.5407  0.5952  1.2320
11599TIP3    H256213   2.804   1.792   1.472 -0.9413  0.8688 -0.5330
11600TIP3   OH256214   6.645   4.139   3.232 -0.4653 -0.4097  0.1397
11600TIP3    H156215   6.704   4.074   3.195 -2.1509 -0.3021 -2.9491
11600TIP3    H256216   6.672   4.222   3.192 -2.1013 -0.2186 -0.6285
11601TIP3   OH256217   0.029   5.986   2.478  0.1922  0.2120 -0.3750
11601TIP3    H156218  -0.047   5.970   2.423  0.3177 -0.6740 -0.2884
11601TIP3    H256219  -0.007   6.019   2.561 -0.0160  1.1352 -0.8237
11602TIP3   OH256220   3.182   0.462  13.457 -0.3514  0.5120  0.5781
11602TIP3    H156221   3.107   0.404  13.449 -0.6037  0.6321  1.9566
11602TIP3    H256222   3.169   0.506  13.540  0.9186  1.0058  0.5195
11603TIP3   OH256223   4.982   0.175  15.893  0.4289 -0.1563  0.7002
11603TIP3    H156224   5.076   0.156  15.894  0.8462  1.7109 -0.9432
11603TIP3    H256225   4.953   0.153  15.805 -0.6866 -0.7291  1.1971
11604TIP3   OH256226   5.948   1.995   2.984 -0.1521  0.1129 -0.0318
11604TIP3    H156227   6.036   1.991   3.022 -0.1710  0.2546  0.0286
11604TIP3    H256228   5.895   2.035   3.053  0.2322  2.3722 -1.0048
11605TIP3   OH256229   1.792   2.228  14.352 -0.1251  0.0218  0.6517
11605TIP3    H156230   1.820   2.190  14.435  1.2198  0.2010  0.2871
11605TIP3    H256231   1.763   2.153  14.300  1.3981 -0.3820  0.3693
11606TIP3   OH256232   6.098   5.062   4.666 -0.1083  0.0780 -0.0536
11606TIP3    H156233   6.164   5.036   4.601 -0.8629 -1.6415 -0.1315
11606TIP3    H256234   6.016   5.025   4.634 -0.7065  0.2258  1.2690
11607TIP3   OH256235   5.233   1.902  15.906 -0.2149  0.4638  0.4760
11607TIP3    H156236   5.157   1.934  15.954  0.0948 -0.9349  1.9646
11607TIP3    H256237   5.213   1.811  15.887  1.3465 -0.1255  1.5167
11608TIP3   OH256238   1.513   3.149  14.836  0.1377 -0.7917  0.1680
11608TIP3    H156239   1.579   3.177  14.773 -0.8253  1.4530  0.1247
11608TIP3    H256240   1.525   3.054  14.842  1.5078 -0.7860 -1.9302
11609TIP3   OH256241   3.443   6.517   5.665 -0.3368 -0.1831 -0.1746
11609TIP3    H156242   3.401   6.437   5.696 -1.2329  0.7789  1.1770
11609TIP3    H256243   3.491   6.550   5.741  0.6250  0.1865 -0.9307
11610TIP3   OH256244   1.827   0.544   5.061  0.7791  0.1288 -0.1085
11610TIP3    H156245   1.879   0.581   5.132  1.3441 -0.8211 -0.0238
11610TIP3    H256246   1.736   0.555   5.090  0.9851  0.4421  0.4128
11611TIP3   OH256247   2.565   3.038  12.115  0.1289 -0.0735  0.0642
11611TIP3    H156248   2.550   3.125  12.153  1.5934 -0.5495  1.8086
11611TIP3    H256249   2.477   3.005  12.096 -0.6780  0.2398  3.0116
11612TIP3   OH256250   3.881   5.012  14.081 -0.2070  0.3201 -0.0781
11612TIP3    H156251   3.884   5.107  14.091 -1.2402  0.2930  0.5770
11612TIP3    H256252   3.802   4.995  14.030 -0.1622 -0.2071  0.0178
11613TIP3   OH256253   4.945   2.485  15.051  0.2806  0.6331 -0.0433
11613TIP3    H156254   4.984   2.441  15.127 -1.6590 -0.7900  0.1648
11613TIP3    H256255   4.882   2.546  15.089 -1.2879 -0.6648 -0.4899
11614TIP3   OH256256   0.509   3.395   4.436 -0.1658  0.0944 -0.3425
11614TIP3    H156257   0.512   3.402   4.532 -0.8142  1.1456 -0.3935
11614TIP3    H256258   0.578   3.453   4.406  0.5173 -0.7872 -0.5020
11615TIP3   OH256259   6.306   4.676  11.202 -0.2743 -0.2738  0.3928
11615TIP3    H156260   6.367   4.713  11.138 -0.2702  0.8989  1.0749
11615TIP3    H256261   6.220   4.706  11.173 -0.4945 -1.4841 -0.2567
11616TIP3   OH256262   4.047   1.220   4.332 -0.0225 -0.4417 -0.4439
11616TIP3    H156263   4.047   1.157   4.403 -1.8267  0.3743  0.3007
11616TIP3    H256264   3.997   1.179   4.262  0.5177 -0.6520 -0.7096
11617TIP3   OH256265   1.806   5.468  10.745  0.2216  0.7043  0.2273
11617TIP3    H156266   1.846   5.539  10.795 -0.5929 -0.8398  3.1558
11617TIP3    H256267   1.877   5.406  10.730 -0.0256  0.1103  1.4617
11618TIP3   OH256268   1.422   5.543   0.011 -0.3722  0.2179 -0.4780
11618TIP3    H156269   1.467   5.461   0.035  1.2964  0.7185 -1.8305
11618TIP3    H256270   1.442   5.602   0.083  1.1703  0.4268 -1.0441
11619TIP3   OH256271   3.657   2.822  14.550 -0.0903 -0.0451 -0.4219
11619TIP3    H156272   3.567   2.848  14.527 -0.0862 -1.5277 -2.2345
11619TIP3    H256273   3.646   2.765  14.626 -0.6485  0.0960 -0.3897
11620TIP3   OH256274   5.068   0.211  13.352 -0.3326  0.5381 -0.3582
11620TIP3    H156275   5.097   0.147  13.287 -1.7237  0.8577 -1.3211
11620TIP3    H256276   5.133   0.281  13.348  0.9069 -0.5684  0.3306
11621TIP3   OH256277   1.917   2.903  14.925 -0.1351 -0.4287 -0.1372
11621TIP3    H156278   1.960   2.902  14.839 -0.1758 -0.7553 -0.1520
11621TIP3    H256279   1.937   2.990  14.960 -0.6370 -0.0693 -0.7406
11622TIP3   OH256280   3.956   2.652   1.053 -0.1477  1.3363 -0.5108
11622TIP3    H156281   3.992   2.579   1.003  1.0229  1.2827  0.3900
11622TIP3    H256282   3.911   2.706   0.988 -1.5241 -0.4765 -1.1013
11623TIP3   OH256283   5.972   1.396  16.934 -0.0732 -0.4775  0.8710
11623TIP3    H156284   6.051   1.409  16.882  0.4766 -1.0769  1.5543
11623TIP3    H256285   6.001   1.405  17.025 -0.6576 -1.3767  1.1577
11624TIP3   OH256286   1.192   3.959   0.536  0.2148  1.2752  0.2378
11624TIP3    H156287   1.171   3.881   0.588  0.1460  0.6466 -0.7092
11624TIP3    H256288   1.158   4.032   0.587 -2.2193  0.4579 -0.1323
11625TIP3   OH256289   2.770   0.289   4.609 -0.5856  0.5555  0.2561
11625TIP3    H156290   2.725   0.255   4.686 -1.9300  0.6713 -0.4707
11625TIP3    H256291   2.844   0.230   4.597 -0.0407  0.8644  1.9593
11626TIP3   OH256292   5.712   4.893   4.765  0.0913 -0.4126 -0.4948
11626TIP3    H156293   5.760   4.944   4.700 -0.1003 -2.2548 -2.1329
11626TIP3    H256294   5.621   4.919   4.755 -0.0966 -1.5199 -1.7850
11627TIP3   OH256295   1.666   5.352  11.099 -0.0772  0.5600 -0.1631
11627TIP3    H156296   1.659   5.428  11.041 -1.4207  0.8767  0.3962
11627TIP3    H256297   1.610   5.374  11.173  0.0050 -0.7280  0.2861
11628TIP3   OH256298   1.976   1.911  11.222 -0.0783 -0.1998  0.1260
11628TIP3    H156299   1.956   1.846  11.290  1.2446  1.8498  2.5583
11628TIP3    H256300   1.905   1.974  11.226 -0.5476 -0.6242 -1.1636
11629TIP3   OH256301   3.809   0.647  14.329  0.3168 -0.0236  0.1068
11629TIP3    H156302   3.854   0.597  14.261 -2.0629 -1.1996 -0.6556
11629TIP3    H256303   3.727   0.675  14.289 -0.9932 -0.4500  2.3776
11630TIP3   OH256304   0.969   1.668   0.912 -0.2764 -0.4615  0.0937
11630TIP3    H156305   0.969   1.698   1.004  0.8011  2.6189 -0.8397
11630TIP3    H256306   1.052   1.622   0.902  0.0959  0.1257  0.4032
11631TIP3   OH256307   2.103   4.599   4.892  0.4665  0.4516  0.3504
11631TIP3    H156308   2.109   4.692   4.914 -1.1387  0.6427  0.0598
11631TIP3    H256309   2.101   4.555   4.977 -2.3035  0.9586  0.6089
11632TIP3   OH256310   6.153   6.566  12.880  0.1595  0.2503  0.0476
11632TIP3    H156311   6.225   6.552  12.818  1.1184 -2.0613  1.6298
11632TIP3    H256312   6.137   6.480  12.918 -2.5217  1.0303  0.7573
11633TIP3   OH256313   0.354   2.884   3.300  0.0235 -0.0361  0.7316
11633TIP3    H156314   0.439   2.850   3.325 -0.5874 -0.8839  1.6990
11633TIP3    H256315   0.371   2.972   3.267  1.3650 -0.5086  0.1501
11634TIP3   OH256316   3.030   2.175   4.375 -0.0455 -0.4844 -0.2060
11634TIP3    H156317   3.046   2.081   4.360 -1.8211 -1.1979  1.9783
11634TIP3    H256318   2.952   2.194   4.323  0.0412 -0.3342 -0.2800
11635TIP3   OH256319   2.296   1.438  16.984 -0.1405  0.3316 -0.2134
11635TIP3    H156320   2.317   1.346  16.999 -0.2440  0.4707  0.8672
11635TIP3    H256321   2.298   1.477  17.072  0.5176  1.4898 -0.7372
11636TIP3   OH256322   1.798   1.657   3.862 -0.4617  0.2502 -0.2953
11636TIP3    H156323   1.723   1.631   3.915 -0.1334 -1.2458 -0.5452
11636TIP3    H256324   1.849   1.577   3.852  1.3800  1.3432  0.2012
11637TIP3   OH256325   4.612   4.582   0.203  0.2870 -0.0119 -0.1206
11637TIP3    H156326   4.676   4.588   0.132 -0.3352  0.1173 -0.6693
11637TIP3    H256327   4.529   4.609   0.163 -0.5670 -2.3441 -0.0168
11638TIP3   OH256328   0.811   0.069   2.598  0.0185  0.1752 -0.3748
11638TIP3    H156329   0.826  -0.025   2.597  4.5197  0.7807  1.0207
11638TIP3    H256330   0.816   0.094   2.690 -1.4661  1.7580 -0.6903
11639TIP3   OH256331   5.703   3.601   2.557 -0.5662 -0.3709  0.5357
11639TIP3    H156332   5.726   3.622   2.466 -1.3370  0.1348  0.4523
11639TIP3    H256333   5.619   3.644   2.571  0.1990  0.7387  1.9275
11640TIP3   OH256334   4.545   3.451  15.122  0.3726 -0.6485  0.5261
11640TIP3    H156335   4.507   3.512  15.058  0.3554 -0.9092  0.2856
11640TIP3    H256336   4.492   3.371  15.114 -0.0696 -0.4490  1.3593
11641TIP3   OH256337   3.657   4.320  15.768 -0.2512 -0.1657 -0.1225
11641TIP3    H156338   3.610   4.256  15.822  0.3020 -2.8681 -2.7235
11641TIP3    H256339   3.735   4.342  15.819 -0.8612 -0.9270  1.1585
11642TIP3   OH256340   4.669   3.700   2.792 -0.0782  0.5793 -0.2218
11642TIP3    H156341   4.723   3.773   2.819  0.7155  0.1605 -0.6641
11642TIP3    H256342   4.580   3.735   2.789  0.2217  1.3659  0.1248
11643TIP3   OH256343   6.349   5.495   4.953 -0.0360 -0.1866 -0.4896
11643TIP3    H156344   6.434   5.535   4.935 -0.4554  1.5054  1.1197
11643TIP3    H256345   6.292   5.526   4.882 -0.2897  1.9242  0.5964
11644TIP3   OH256346   0.806   3.194   6.169  0.1081 -0.4299 -0.1493
11644TIP3    H156347   0.765   3.123   6.120 -0.8014 -0.0361  0.0312
11644TIP3    H256348   0.733   3.253   6.191  0.6832 -0.0209  0.6703
11645TIP3   OH256349   5.389   2.308  16.021 -0.3983  0.3088 -0.6184
11645TIP3    H156350   5.318   2.370  16.035 -0.9515 -0.3051 -0.6982
11645TIP3    H256351   5.467   2.353  16.054 -1.1989  0.0834  1.6729
11646TIP3   OH256352   3.815   6.421   5.693  0.3849 -0.6026  0.6630
11646TIP3    H156353   3.863   6.496   5.660  2.4675 -1.7563  0.9957
11646TIP3    H256354   3.800   6.441   5.786 -0.5429  0.1306  0.3619
11647TIP3   OH256355   4.351   4.249  16.052 -0.5207  0.3367  0.0319
11647TIP3    H156356   4.391   4.162  16.044  1.5779  0.9429  3.0531
11647TIP3    H256357   4.284   4.238  16.120 -1.0848  0.8035 -0.4475
11648TIP3   OH256358   3.148   1.958   6.749 -0.2595  0.1903 -0.0092
11648TIP3    H156359   3.179   2.048   6.746 -1.1930  0.5346  0.3030
11648TIP3    H256360   3.208   1.910   6.693  0.0089  1.0870 -0.5047
11649TIP3   OH256361   0.522   4.482   5.448  0.0950 -0.5014 -0.1842
11649TIP3    H156362   0.557   4.507   5.363 -0.7454 -0.8328 -0.6313
11649TIP3    H256363   0.528   4.562   5.500  0.7182 -0.3290 -0.5110
11650TIP3   OH256364   5.046   5.801  17.006  0.5801  0.0441  0.0779
11650TIP3    H156365   5.027   5.707  17.001  1.3824 -0.0959 -0.6572
11650TIP3    H256366   5.072   5.824  16.916  2.9826  0.3773  0.8296
11651TIP3   OH256367   2.319   2.001  16.082  0.2048  0.3950  0.7773
11651TIP3    H156368   2.401   1.979  16.038 -0.3074  0.3687 -0.1747
11651TIP3    H256369   2.251   1.962  16.027 -0.3500 -1.3503  2.6663
11652TIP3   OH256370   6.321   3.208   2.056  0.2946  0.0943  0.5605
11652TIP3    H156371   6.376   3.135   2.085  0.5529  0.6899  1.6103
11652TIP3    H256372   6.380   3.284   2.058  0.1780  0.2557 -1.0410
11653TIP3   OH256373   0.745   6.018  11.388  0.5556 -0.6872  0.1851
11653TIP3    H156374   0.752   5.931  11.349 -0.2171  0.4962 -2.6626
11653TIP3    H256375   0.653   6.027  11.411  0.7695 -0.8668  1.1652
11654TIP3   OH256376   5.800   6.180  14.770  0.0469  0.7970  0.3605
11654TIP3    H156377   5.753   6.148  14.693  1.1843  1.4383 -0.6362
11654TIP3    H256378   5.859   6.109  14.794 -2.4749 -0.6092  2.5552
11655TIP3   OH256379   5.713   2.511  12.435  0.2984  0.3185 -0.2915
11655TIP3    H156380   5.627   2.472  12.422  0.7660 -1.4603  1.7389
11655TIP3    H256381   5.773   2.454  12.388  0.5135  0.9145 -0.7466
11656TIP3   OH256382   2.030   0.580   3.493 -0.8238  0.6859 -0.8466
11656TIP3    H156383   2.031   0.579   3.397 -0.3691 -0.6032 -0.8375
11656TIP3    H256384   2.002   0.492   3.517 -1.0054  1.0293  0.2187
11657TIP3   OH256385   4.403   2.621  17.097  0.2037  0.7993  0.0702
11657TIP3    H156386   4.446   2.605  17.182  0.5072 -1.7110 -0.5211
11657TIP3    H256387   4.332   2.557  17.093 -1.3133  2.4796 -0.5799
11658TIP3   OH256388   5.454   0.711   1.702 -0.3034 -0.2815 -0.0256
11658TIP3    H156389   5.410   0.768   1.765  0.3730 -1.3389  1.4009
11658TIP3    H256390   5.482   0.770   1.632 -3.6850  0.4931 -0.8309
11659TIP3   OH256391   3.732   4.486   1.169  0.3661 -0.3673  0.1290
11659TIP3    H156392   3.652   4.471   1.219  0.8020  0.9838  1.2794
11659TIP3    H256393   3.765   4.399   1.150 -1.8009 -0.9634 -1.0779
11660TIP3   OH256394   3.446   3.705   1.219  0.1973  0.3318  0.0294
11660TIP3    H156395   3.362   3.677   1.255  0.6679  1.4726  2.1551
11660TIP3    H256396   3.500   3.627   1.219 -0.2522  0.0191  0.5067
11661TIP3   OH256397   3.067   3.533   3.725  0.0678  0.3862  0.1789
11661TIP3    H156398   3.097   3.581   3.802 -1.1250 -0.7232  1.3494
11661TIP3    H256399   3.147   3.514   3.676  0.8183  1.1888  1.0810
11662TIP3   OH256400   0.294   5.680   2.885 -0.5757 -0.4345 -0.7412
11662TIP3    H156401   0.388   5.663   2.877 -0.0118  2.2280 -0.1308
11662TIP3    H256402   0.278   5.756   2.829 -2.3288 -0.7376 -0.6669
11663TIP3   OH256403   2.422   2.021  10.728 -0.2066  0.1470  0.0815
11663TIP3    H156404   2.414   2.114  10.708  1.1962 -0.4761 -3.8414
11663TIP3    H256405   2.332   1.988  10.727 -0.4809  0.9097 -1.5211
11664TIP3   OH256406   4.372   2.747   5.894 -0.2345  1.0248 -1.1924
11664TIP3    H156407   4.433   2.817   5.875  0.2799  1.2884  1.2975
11664TIP3    H256408   4.302   2.789   5.944  0.1496 -0.2267  0.4434
11665TIP3   OH256409   2.470   3.803  14.889 -0.3119  0.3568  0.0387
11665TIP3    H156410   2.551   3.771  14.848 -1.1135  1.0021 -2.1211
11665TIP3    H256411   2.408   3.731  14.876 -0.0098 -0.3033  2.0523
11666TIP3   OH256412   1.868   1.006  14.033 -0.3342  0.0360  0.1744
11666TIP3    H156413   1.789   1.011  13.979 -0.8789  0.0973  0.9585
11666TIP3    H256414   1.846   0.943  14.101  1.0363 -1.5001 -0.7830
11667TIP3   OH256415   5.738   1.518  10.784 -0.4327  0.3796 -0.0477
11667TIP3    H156416   5.668   1.471  10.830 -1.5340  0.1889 -1.8559
11667TIP3    H256417   5.740   1.477  10.697  0.5672  1.7542 -0.6799
11668TIP3   OH256418   1.940   4.432  15.582 -0.3623 -0.2412 -0.0766
11668TIP3    H156419   1.925   4.519  15.620 -2.8413 -0.9789  0.6936
11668TIP3    H256420   2.032   4.414  15.600 -0.2267  1.5383  1.1953
11669TIP3   OH256421   4.084   1.081   1.133  0.2894  0.1363 -0.0127
11669TIP3    H156422   4.144   1.084   1.208  0.4137  0.3439 -0.1238
11669TIP3    H256423   4.088   1.168   1.094  0.3212 -0.0100 -0.3398
11670TIP3   OH256424   6.733   5.960   4.198 -0.2696  0.0653 -0.1183
11670TIP3    H156425   6.790   5.979   4.273  0.5193  1.9494 -1.1836
11670TIP3    H256426   6.794   5.943   4.126 -1.0485  0.2206 -0.8085
11671TIP3   OH256427   3.192   2.132  15.898 -0.4325  0.1306 -0.5017
11671TIP3    H156428   3.279   2.135  15.938 -0.8615  0.1879  0.4502
11671TIP3    H256429   3.153   2.051  15.931  0.3523 -1.4437 -3.2874
11672TIP3   OH256430   6.362   4.614   2.759  0.4136 -0.0725  0.5419
11672TIP3    H156431   6.294   4.554   2.790  0.4451 -0.1934  0.3788
11672TIP3    H256432   6.342   4.697   2.801 -0.7006  0.2825 -0.6918
11673TIP3   OH256433   0.815   6.292  12.073  0.4047 -0.4104 -0.6045
11673TIP3    H156434   0.835   6.245  12.154  1.3590 -0.9478 -1.1449
11673TIP3    H256435   0.847   6.381  12.088 -0.0754 -0.3176 -0.1236
11674TIP3   OH256436   0.531   2.914  14.600  0.1544  0.2129 -0.4438
11674TIP3    H156437   0.618   2.928  14.564 -0.5018  0.7422 -1.8625
11674TIP3    H256438   0.530   2.965  14.681  1.3596 -0.3088 -0.0915
11675TIP3   OH256439   1.842   3.034  17.007  0.4804 -0.3299 -0.7456
11675TIP3    H156440   1.887   3.107  17.048 -0.3899  0.5135 -1.2853
11675TIP3    H256441   1.857   3.046  16.913  2.2763 -2.1259 -0.7201
11676TIP3   OH256442   0.800   2.218  12.695  0.0897  0.1633 -0.2492
11676TIP3    H156443   0.768   2.302  12.663 -0.7378 -0.5143 -1.2167
11676TIP3    H256444   0.888   2.210  12.660  0.7319  1.2717  1.0383
11677TIP3   OH256445   2.941   2.722   2.054  0.3145 -0.5239 -0.4657
11677TIP3    H156446   3.006   2.652   2.054 -1.4315 -2.1825  0.1567
11677TIP3    H256447   2.880   2.699   1.984  0.3822  1.0166 -1.0518
11678TIP3   OH256448   0.946   2.321  16.051  0.2012  0.0478  0.5255
11678TIP3    H156449   0.994   2.403  16.053  0.2292  0.0091  1.9770
11678TIP3    H256450   1.001   2.263  15.998  0.3397  0.8505 -0.2281
11679TIP3   OH256451   3.309   4.830  16.898 -0.1726  0.7489 -0.1438
11679TIP3    H156452   3.397   4.800  16.920 -0.0689  0.7608 -0.5339
11679TIP3    H256453   3.252   4.757  16.922  0.1416 -0.0266 -1.6818
11680TIP3   OH256454   2.175   0.554   5.263  0.4800 -0.3167 -0.2754
11680TIP3    H156455   2.171   0.459   5.278  1.6966 -0.1629  1.1467
11680TIP3    H256456   2.090   0.586   5.294  0.2288 -0.8892 -0.3554
11681TIP3   OH256457   0.415   3.985   1.987 -0.5426  0.2454 -0.5951
11681TIP3    H156458   0.387   3.924   1.920  1.2771  0.3099 -1.4420
11681TIP3    H256459   0.509   3.973   1.993 -0.3416  2.0014  0.1840
11682TIP3   OH256460   1.832   4.219   5.881 -0.5280 -0.7689 -0.5353
11682TIP3    H156461   1.861   4.150   5.940  0.0110 -1.2122 -1.3156
11682TIP3    H256462   1.814   4.175   5.798  0.1653  0.0713 -1.1520
11683TIP3   OH256463   0.133   5.194  11.876  0.5952 -0.1101 -0.6101
11683TIP3    H156464   0.182   5.113  11.885 -0.2486 -0.9432 -3.1016
11683TIP3    H256465   0.194   5.255  11.836  0.6415 -0.0789 -0.4937
11684TIP3   OH256466   4.780   2.137  12.963 -0.3817  0.0789  0.0277
11684TIP3    H156467   4.846   2.140  13.032 -1.0916  0.6377  0.6945
11684TIP3    H256468   4.810   2.069  12.903 -0.7368 -1.7524  1.8749
11685TIP3   OH256469   1.198   0.408  12.636  0.2970 -0.1212 -0.0168
11685TIP3    H156470   1.213   0.314  12.640  0.1461 -0.1988 -1.0941
11685TIP3    H256471   1.106   0.417  12.613  0.2951  0.2909  0.1445
11686TIP3   OH256472   3.478   4.519   0.233 -0.3595 -0.2497 -0.3815
11686TIP3    H156473   3.489   4.440   0.181 -1.2512  0.2828 -1.4138
11686TIP3    H256474   3.567   4.549   0.252 -0.0300 -0.8993 -0.9128
11687TIP3   OH256475   1.438   2.882  14.733 -0.4673 -0.5432  0.0050
11687TIP3    H156476   1.508   2.822  14.758  0.2038  0.5899  0.8956
11687TIP3    H256477   1.357   2.836  14.756 -0.0103 -1.6536 -0.5733
11688TIP3   OH256478   6.001   6.067  11.218  0.5501  0.9184  0.1163
11688TIP3    H156479   5.967   6.019  11.294  1.1257  0.0110 -0.1968
11688TIP3    H256480   5.936   6.135  11.202 -1.2288 -0.9079 -0.5772
11689TIP3   OH256481   1.785   1.900  13.090  0.3887 -0.3225  0.5078
11689TIP3    H156482   1.770   1.813  13.053  0.7376  0.0851 -0.6322
11689TIP3    H256483   1.869   1.927  13.053 -0.3610  1.0469 -0.2134
11690TIP3   OH256484   4.090   3.543  10.907  0.2237  0.0905 -0.3288
11690TIP3    H156485   4.044   3.504  10.833  0.2268  1.8280 -1.2658
11690TIP3    H256486   4.022   3.586  10.958  0.3056 -0.5843  0.3636
11691TIP3   OH256487   4.164   0.243   4.003  0.0715  0.1035 -0.1461
11691TIP3    H156488   4.120   0.162   4.029  1.5041 -1.3574 -2.0935
11691TIP3    H256489   4.106   0.280   3.936  0.3355 -0.2823 -0.5891
11692TIP3   OH256490   3.043   5.284  15.465  0.2295  0.2163 -0.2620
11692TIP3    H156491   3.106   5.356  15.476 -0.5381  0.7024  1.1316
11692TIP3    H256492   2.959   5.328  15.451 -0.5018 -0.3650  2.0717
11693TIP3   OH256493   2.974   6.755  11.186 -0.7257  0.3758  0.0652
11693TIP3    H156494   3.061   6.788  11.163 -1.0170  0.7392 -0.5368
11693TIP3    H256495   2.917   6.789  11.117 -1.2929 -0.1145  0.2920
11694TIP3   OH256496   2.916   4.426   0.550 -0.4743  0.7636  0.1151
11694TIP3    H156497   2.843   4.487   0.551  0.3673  1.7906 -0.0380
11694TIP3    H256498   2.880   4.345   0.513 -1.5366  1.2417  0.1087
11695TIP3   OH256499   4.952   0.169   4.596 -0.0535  0.3550 -0.0717
11695TIP3    H156500   4.952   0.100   4.663 -0.8074 -1.4044 -1.8230
11695TIP3    H256501   4.916   0.246   4.640  2.0291  0.0171  2.2920
11696TIP3   OH256502   3.779   4.670  14.020  0.5637  0.0604  0.0752
11696TIP3    H156503   3.691   4.704  14.038  1.1616  1.1665  0.9177
11696TIP3    H256504   3.816   4.730  13.956  0.0542 -1.4344 -1.6685
11697TIP3   OH256505   3.397   6.552   2.181  0.1102 -0.2583  0.5487
11697TIP3    H156506   3.317   6.599   2.206 -0.7000 -1.8638  1.0816
11697TIP3    H256507   3.463   6.582   2.244  0.3790  2.2293 -0.8272
11698TIP3   OH256508   2.151   0.682  15.323  0.3508  0.1990 -0.9214
11698TIP3    H156509   2.087   0.735  15.275  0.1047 -0.4294 -1.3019
11698TIP3    H256510   2.181   0.617  15.259 -0.1483 -0.7876 -0.1767
11699TIP3   OH256511   4.448   1.115   0.902 -0.3597 -0.8178 -0.5470
11699TIP3    H156512   4.455   1.034   0.952 -1.7865  0.4591  1.8510
11699TIP3    H256513   4.377   1.100   0.840 -1.4926 -0.9859  0.7712
11700TIP3   OH256514   4.333   2.579   1.287  0.3882 -0.8821 -0.2676
11700TIP3    H156515   4.324   2.580   1.191 -1.8130  2.8996 -0.1215
11700TIP3    H256516   4.365   2.667   1.309 -1.3242 -0.9264  2.6202
11701TIP3   OH256517   2.676   3.800  15.981  0.5899 -0.0863 -0.4475
11701TIP3    H156518   2.748   3.860  15.959  0.4241  0.9604  1.7257
11701TIP3    H256519   2.614   3.810  15.909  0.0563  3.2268  0.4080
11702TIP3   OH256520   3.806   2.954   5.305  0.0882  0.2447  0.4566
11702TIP3    H156521   3.797   2.865   5.339 -0.3754 -0.2823 -0.9999
11702TIP3    H256522   3.750   2.956   5.228  0.7036  1.5692  0.0246
11703TIP3   OH256523   1.352   0.719  16.690  0.2508  0.2620  0.2550
11703TIP3    H156524   1.407   0.775  16.635  0.0474  1.0098  0.8052
11703TIP3    H256525   1.379   0.741  16.780 -0.7105  0.3951  0.5138
11704TIP3   OH256526   6.141   2.171   4.934 -0.1923  0.3928  0.2548
11704TIP3    H156527   6.134   2.243   4.872  0.0724  0.3106  0.1258
11704TIP3    H256528   6.217   2.121   4.904 -0.7281 -0.2810 -0.0109
11705TIP3   OH256529   0.534   1.375  14.553 -0.1433 -0.0881  0.4518
11705TIP3    H156530   0.599   1.354  14.485  0.0657 -0.3814  0.7400
11705TIP3    H256531   0.584   1.418  14.622 -0.9582  3.5337 -1.1370
11706TIP3   OH256532   4.735   2.322   0.401 -0.0914  0.1568  0.0601
11706TIP3    H156533   4.786   2.293   0.476 -0.1040  0.2532  0.1063
11706TIP3    H256534   4.700   2.242   0.363 -0.2851  0.1268  0.2995
11707TIP3   OH256535   1.917   1.236   2.461  0.3902 -0.2789 -0.0575
11707TIP3    H156536   1.886   1.245   2.551 -1.5741  1.2674 -0.8310
11707TIP3    H256537   1.951   1.323   2.439  1.6178 -0.8725 -0.5476
11708TIP3   OH256538   5.961   4.829  12.358  0.3627  0.6438  0.6222
11708TIP3    H156539   5.945   4.737  12.337 -0.1369  0.8768 -0.0647
11708TIP3    H256540   5.882   4.857  12.405  0.7380  0.5825  1.2883
11709TIP3   OH256541   4.714   6.534  11.163 -1.1879  0.3670  0.0388
11709TIP3    H156542   4.668   6.594  11.222  0.5210  0.4642  1.3251
11709TIP3    H256543   4.795   6.513  11.210  0.1210  0.2850 -2.2056
11710TIP3   OH256544   4.286   5.659  16.710 -0.2825  0.3381 -0.1108
11710TIP3    H156545   4.331   5.728  16.662 -0.0762 -1.0461 -1.9848
11710TIP3    H256546   4.194   5.686  16.711 -0.4404 -0.0924 -2.1653
11711TIP3   OH256547   0.956   6.063   4.060 -0.4413  0.3095 -0.7231
11711TIP3    H156548   0.885   6.040   4.000  0.1247 -1.4850 -0.7280
11711TIP3    H256549   1.034   6.020   4.023 -0.7775 -4.1122  3.2372
11712TIP3   OH256550   4.857   0.666   2.015 -0.1120  0.7652 -0.2929
11712TIP3    H156551   4.915   0.616   2.072  0.5480  2.6078  0.7169
11712TIP3    H256552   4.900   0.665   1.930  0.8223  1.1524  0.1699
11713TIP3   OH256553   3.809   0.473  13.829  0.2685  0.0455  0.1442
11713TIP3    H156554   3.857   0.521  13.896  0.8348 -0.7532  0.3204
11713TIP3    H256555   3.846   0.385  13.831  0.5914  0.1222 -1.5162
11714TIP3   OH256556   6.025   0.285   0.785  0.4007 -0.2257 -0.0154
11714TIP3    H156557   6.050   0.335   0.707 -1.8341  0.4860 -0.3100
11714TIP3    H256558   6.071   0.328   0.857  0.1307  0.9679 -0.5440
11715TIP3   OH256559   4.098   3.427  11.494  0.2676 -0.0856 -0.1103
11715TIP3    H156560   4.139   3.410  11.409  0.4258  0.8744 -0.2375
11715TIP3    H256561   4.107   3.522  11.506  0.7735 -0.2931  1.2478
11716TIP3   OH256562   0.177   3.295   1.882  0.1861  0.6026 -0.4115
11716TIP3    H156563   0.103   3.337   1.927  1.4708 -0.2784  2.6646
11716TIP3    H256564   0.222   3.368   1.839 -0.7572  1.5938  0.2202
11717TIP3   OH256565   0.832   5.005   3.489  0.4188 -0.3015  0.1311
11717TIP3    H156566   0.780   5.084   3.500  1.3339  0.2658  0.4758
11717TIP3    H256567   0.841   4.969   3.577  0.3989 -0.5295  0.0404
11718TIP3   OH256568   0.860   4.967   1.015  0.1169 -0.2220  0.3866
11718TIP3    H156569   0.924   4.963   1.086 -0.6917 -0.0502  1.1354
11718TIP3    H256570   0.912   4.973   0.936  1.0473 -1.3574  0.9032
11719TIP3   OH256571   4.074   1.043  16.907 -0.4931  0.3327 -0.0494
11719TIP3    H156572   4.103   0.956  16.880 -0.7244 -0.3291  1.7317
11719TIP3    H256573   3.981   1.046  16.883 -0.7275 -0.2960  0.7348
11720TIP3   OH256574   2.557   2.385   4.846 -0.8946  0.0607  0.6747
11720TIP3    H156575   2.577   2.462   4.792 -0.5114 -0.6760 -0.2402
11720TIP3    H256576   2.571   2.310   4.788  0.6961 -0.8155  2.1354
11721TIP3   OH256577   1.308   3.780   4.124  0.4180 -0.0905  0.0364
11721TIP3    H156578   1.324   3.838   4.199  1.3392 -2.4532  1.7071
11721TIP3    H256579   1.213   3.769   4.122  0.2941  0.8548  0.1480
11722TIP3   OH256580   3.081   1.347   0.764 -0.1182  0.1599  0.4345
11722TIP3    H156581   2.994   1.372   0.732  0.3214  0.6815 -0.3584
11722TIP3    H256582   3.140   1.414   0.729  0.7757 -0.8440 -0.0149
11723TIP3   OH256583   4.402   1.625  12.334  0.0939 -0.2824  0.5508
11723TIP3    H156584   4.470   1.672  12.286 -0.4207  1.7284  1.7281
11723TIP3    H256585   4.413   1.534  12.309  2.1346  0.2592 -0.5838
11724TIP3   OH256586   4.731   5.088  11.212  0.8458  0.6263 -0.2210
11724TIP3    H156587   4.683   5.039  11.145  1.0469  0.0196  0.0703
11724TIP3    H256588   4.731   5.178  11.181 -0.1895  0.5756 -0.3939
11725TIP3   OH256589   0.721   3.902  14.216  0.4697  0.3657 -0.3618
11725TIP3    H156590   0.725   3.824  14.160 -0.2040  0.4074 -0.4650
11725TIP3    H256591   0.651   3.883  14.279  0.4224  0.8151 -0.2790
11726TIP3   OH256592   1.807   4.848   1.665 -0.2111 -0.0146 -0.0027
11726TIP3    H156593   1.731   4.905   1.682 -1.6859 -1.6432 -0.9874
11726TIP3    H256594   1.801   4.827   1.572  2.5668  1.3660 -0.5361
11727TIP3   OH256595   5.613   4.276   1.622 -0.3780 -0.0910 -0.0452
11727TIP3    H156596   5.558   4.259   1.545 -0.0693 -1.3711 -0.0002
11727TIP3    H256597   5.570   4.229   1.693  0.5914 -0.8446  0.0565
11728TIP3   OH256598   3.073   6.529  15.274  0.1627 -0.2228 -0.4423
11728TIP3    H156599   3.088   6.462  15.341  0.8899  0.2446 -0.1449
11728TIP3    H256600   3.097   6.611  15.315 -1.5486  0.3423 -0.5257
11729TIP3   OH256601   0.174   5.724  14.904  0.2137 -0.4726  0.2757
11729TIP3    H156602   0.172   5.816  14.878  0.3084 -0.4305  0.4168
11729TIP3    H256603   0.264   5.710  14.934  0.5483 -0.9256 -0.8824
11730TIP3   OH256604   2.175   6.458   0.676 -1.1908 -0.6758  0.1254
11730TIP3    H156605   2.134   6.386   0.628  0.2546 -0.3790 -1.5778
11730TIP3    H256606   2.253   6.419   0.716  1.4744  0.5845 -3.5305
11731TIP3   OH256607   1.298   2.291  15.595 -0.8518 -0.5106  0.0929
11731TIP3    H156608   1.212   2.332  15.609 -1.5960 -1.6038 -1.0978
11731TIP3    H256609   1.352   2.361  15.560 -0.9704  0.4384  1.7544
11732TIP3   OH256610   1.303   0.585  10.967  0.0615 -0.3217  0.1024
11732TIP3    H156611   1.331   0.676  10.980  0.9054 -0.5413 -0.1230
11732TIP3    H256612   1.286   0.553  11.056 -1.7737  0.5124  0.0842
11733TIP3   OH256613   3.377   4.024  15.818 -0.2023 -0.4107 -0.6511
11733TIP3    H156614   3.351   4.069  15.898 -0.8951  1.0659 -1.6657
11733TIP3    H256615   3.468   3.997  15.834 -0.8418 -1.5328  1.1973
11734TIP3   OH256616   5.287   0.702   5.929  0.0297  0.0250  0.6202
11734TIP3    H156617   5.342   0.643   5.877 -0.1129 -0.3012  0.8385
11734TIP3    H256618   5.279   0.659   6.014  2.0883  1.6048  1.6504
11735TIP3   OH256619   0.426   5.358  13.260  0.1604 -0.1683  0.1338
11735TIP3    H156620   0.387   5.290  13.315 -0.5695  0.1248 -0.0144
11735TIP3    H256621   0.499   5.314  13.216 -0.7971 -1.0848 -0.5838
11736TIP3   OH256622   3.982   4.386  14.121 -0.4843 -0.1826 -0.2709
11736TIP3    H156623   4.043   4.456  14.096  1.1324 -1.0068  1.2820
11736TIP3    H256624   4.038   4.309  14.132 -1.5406 -0.5284  2.9231
11737TIP3   OH256625   6.397   2.569  14.998 -0.0049  0.0898  1.0557
11737TIP3    H156626   6.423   2.651  15.043  2.7608 -0.1907  0.0863
11737TIP3    H256627   6.441   2.574  14.913 -1.2685 -1.6161  0.2911
11738TIP3   OH256628   2.545   2.914  16.305 -0.2088 -0.1932  0.5113
11738TIP3    H156629   2.610   2.892  16.372  0.6274 -0.5271 -0.3906
11738TIP3    H256630   2.563   2.853  16.233 -1.0637  0.1843 -0.0291
11739TIP3   OH256631   0.413   5.229   0.079  0.1296 -0.3580  0.1908
11739TIP3    H156632   0.465   5.231  -0.001  2.7874  2.0497  1.8603
11739TIP3    H256633   0.373   5.316   0.083 -0.2210 -0.5685  1.3192
11740TIP3   OH256634   4.125   2.974  10.982 -0.5928  0.0243  0.1584
11740TIP3    H156635   4.076   3.008  11.057 -1.4716  0.7078 -0.7107
11740TIP3    H256636   4.102   3.032  10.910  1.0486 -0.0104 -0.4056
11741TIP3   OH256637   2.290   4.081   3.181 -0.0125 -0.5031  0.0546
11741TIP3    H156638   2.236   4.152   3.148 -0.3584 -0.2899  1.0656
11741TIP3    H256639   2.245   4.001   3.153  0.9306 -0.3351 -1.9805
11742TIP3   OH256640   0.757   6.051   0.856  0.4870 -0.2923 -0.1036
11742TIP3    H156641   0.691   6.011   0.800  1.2371 -1.0587 -0.4557
11742TIP3    H256642   0.835   5.997   0.843  0.6937 -0.4285  1.6236
11743TIP3   OH256643   2.411   1.190   4.480  0.2413 -0.2816  0.1227
11743TIP3    H156644   2.462   1.265   4.511  0.0865 -0.6955  1.4132
11743TIP3    H256645   2.431   1.120   4.542 -1.3225 -0.6575  0.2167
11744TIP3   OH256646   5.503   5.589   2.946 -0.0464  0.4660  0.1108
11744TIP3    H156647   5.593   5.621   2.944 -0.3209  1.1769 -1.2902
11744TIP3    H256648   5.460   5.643   3.012  0.2467  0.9438 -0.0869
11745TIP3   OH256649   1.842   6.152  12.508  0.5243 -0.1675  0.4886
11745TIP3    H156650   1.813   6.121  12.422  0.3937  1.8442 -0.2031
11745TIP3    H256651   1.764   6.145  12.563  0.1844  0.0150  0.0397
11746TIP3   OH256652   2.116   3.855   0.376 -0.5527 -0.1285  0.5043
11746TIP3    H156653   2.034   3.867   0.423  1.0437 -0.6905  3.6036
11746TIP3    H256654   2.135   3.761   0.384 -0.3640 -0.2999 -1.5542
11747TIP3   OH256655   1.455   3.416  14.399  1.0760 -0.5420  0.2044
11747TIP3    H156656   1.434   3.497  14.353  0.0919 -0.2154  1.2102
11747TIP3    H256657   1.549   3.405  14.386  1.0510  0.2552 -0.7392
11748TIP3   OH256658   0.664   2.436  11.546 -0.6229  0.1711  0.2811
11748TIP3    H156659   0.676   2.369  11.479 -2.6214  1.6388 -1.6301
11748TIP3    H256660   0.747   2.483  11.548 -0.2723 -0.3930 -0.6134
11749TIP3   OH256661   5.403   2.313   5.514 -0.7295  0.0177 -1.4768
11749TIP3    H156662   5.441   2.400   5.529  0.1021 -0.1764 -2.3911
11749TIP3    H256663   5.309   2.327   5.518 -0.6104  1.0613 -2.1581
11750TIP3   OH256664   4.959   2.225  15.635  0.2975  0.3035 -0.1910
11750TIP3    H156665   4.988   2.261  15.719  1.5051  0.3285 -0.6124
11750TIP3    H256666   4.890   2.163  15.658 -0.3972  1.3742  0.7031
11751TIP3   OH256667   4.321   0.629   1.763 -0.8870 -0.1456  0.7365
11751TIP3    H156668   4.303   0.706   1.709 -0.1209 -0.2688  0.2960
11751TIP3    H256669   4.403   0.650   1.808 -0.9562 -0.4889  1.0241
11752TIP3   OH256670   3.009   0.371   6.128 -0.4939 -0.2947 -0.2004
11752TIP3    H156671   3.090   0.421   6.133 -0.5678 -0.3958  3.5302
11752TIP3    H256672   3.035   0.281   6.150 -1.2418 -0.8143 -1.4057
11753TIP3   OH256673   6.592   6.367  16.646 -0.0616  0.1553  0.5916
11753TIP3    H156674   6.632   6.300  16.702  1.7957 -0.3288 -1.2048
11753TIP3    H256675   6.502   6.337  16.634  0.7226 -2.0879 -0.1456
11754TIP3   OH256676   2.162   0.133  16.220  0.3509 -0.2223 -0.2096
11754TIP3    H156677   2.208   0.054  16.193  1.7183 -0.0677  1.5114
11754TIP3    H256678   2.122   0.110  16.304  1.3846  1.0972  0.6781
11755TIP3   OH256679   0.673   4.431  13.581  0.7464 -0.2383 -0.0176
11755TIP3    H156680   0.643   4.420  13.672 -0.2559 -1.0152 -0.4291
11755TIP3    H256681   0.613   4.496  13.544  2.2978  1.4649  0.3853
11756TIP3   OH256682   3.433   1.470   0.818  0.2178 -0.2003 -0.2145
11756TIP3    H156683   3.454   1.455   0.725 -0.4080 -0.6748 -0.2806
11756TIP3    H256684   3.339   1.487   0.818 -0.1523 -2.1824  0.5744
11757TIP3   OH256685   6.181   0.121  14.293  0.5936 -0.0860 -0.3443
11757TIP3    H156686   6.220   0.113  14.206 -2.9083 -2.0352 -1.8278
11757TIP3    H256687   6.233   0.061  14.347  1.2264 -0.7634 -1.6722
11758TIP3   OH256688   5.744   3.069   3.678  0.0916 -0.1075 -0.1372
11758TIP3    H156689   5.789   3.042   3.598 -1.5433 -2.2861 -0.3675
11758TIP3    H256690   5.811   3.064   3.747  0.9678 -0.2366 -0.9952
11759TIP3   OH256691   1.030   6.148  13.533  0.1803 -0.1509  0.5077
11759TIP3    H156692   1.029   6.160  13.438 -0.3132 -2.0884  0.2393
11759TIP3    H256693   1.094   6.078  13.548 -1.2480 -1.3076  1.3880
11760TIP3   OH256694   2.936   6.786   0.229 -0.2704 -0.5533  0.4797
11760TIP3    H156695   2.984   6.704   0.219  0.4901  0.0597 -1.1893
11760TIP3    H256696   3.002   6.854   0.213 -1.3240  0.3274 -0.1911
11761TIP3   OH256697   2.598   6.345  15.615 -0.0252  0.1690  0.3104
11761TIP3    H156698   2.623   6.348  15.708  1.0650  3.1156 -0.0165
11761TIP3    H256699   2.585   6.437  15.591  1.5987 -0.3707 -2.9355
11762TIP3   OH256700   4.391   3.172  12.591 -0.7936  0.3450 -0.8271
11762TIP3    H156701   4.483   3.144  12.583 -0.4102  1.5447 -0.7278
11762TIP3    H256702   4.341   3.092  12.573  0.2818 -0.8092  1.0841
11763TIP3   OH256703   4.689   3.803   0.659 -0.1664 -0.4677 -0.0454
11763TIP3    H156704   4.709   3.790   0.752  0.0548  0.8031  0.0883
11763TIP3    H256705   4.720   3.723   0.616  1.2326 -0.3590  0.7542
11764TIP3   OH256706   1.372   5.906  13.326 -0.1319  0.3312  0.2969
11764TIP3    H156707   1.336   5.906  13.238  1.9232  0.8913 -0.5655
11764TIP3    H256708   1.394   5.998  13.344 -0.6502  0.2464  1.4439
11765TIP3   OH256709   3.245   4.559   5.442  0.0052  0.0448  0.4710
11765TIP3    H156710   3.321   4.594   5.489  1.5322  2.2847 -3.4429
11765TIP3    H256711   3.170   4.606   5.478  0.7871 -0.1289  2.3729
11766TIP3   OH256712   1.930   6.630  16.372  0.3581 -0.5160  0.2032
11766TIP3    H156713   2.007   6.581  16.343  0.4002  1.0764 -2.5586
11766TIP3    H256714   1.966   6.704  16.420  0.4662 -0.7605  0.5034
11767TIP3   OH256715   5.397   6.410  16.127 -0.1175  0.1653  0.1626
11767TIP3    H156716   5.375   6.499  16.154 -0.6515 -0.3656  1.5484
11767TIP3    H256717   5.476   6.420  16.073  0.4457  1.3808  1.1644
11768TIP3   OH256718   2.882   0.075   6.396  0.0926 -0.5601  0.3796
11768TIP3    H156719   2.938   0.130   6.452 -1.0093  1.0183 -0.0401
11768TIP3    H256720   2.793   0.095   6.425 -0.5141  0.5017 -2.1091
11769TIP3   OH256721   3.278   2.012  16.248 -0.3898  0.6697 -0.3122
11769TIP3    H156722   3.260   2.104  16.265 -0.9522  1.0044 -2.5467
11769TIP3    H256723   3.330   2.012  16.168 -2.2144 -1.0311 -1.5523
11770TIP3   OH256724   4.565   4.830   5.343 -0.5142 -0.4615  0.3812
11770TIP3    H156725   4.605   4.881   5.272  1.0242 -3.3619 -0.9368
11770TIP3    H256726   4.471   4.845   5.333 -0.3469 -1.0186 -2.4545
11771TIP3   OH256727   0.265   4.844   0.936 -0.4086  0.2588 -0.0591
11771TIP3    H156728   0.251   4.759   0.893 -0.0616 -0.0991  0.5229
11771TIP3    H256729   0.251   4.826   1.029  4.2081 -0.2335  0.6451
11772TIP3   OH256730   0.021   3.523   2.042  0.0117  0.2978 -0.1595
11772TIP3    H156731   0.071   3.487   2.115  1.6205  3.8093  0.5892
11772TIP3    H256732  -0.053   3.569   2.083  1.4864  3.1600 -0.5668
11773TIP3   OH256733   0.889   4.056  12.802  0.4744  0.1530 -0.0231
11773TIP3    H156734   0.855   3.978  12.757 -0.1150  0.1775  0.3759
11773TIP3    H256735   0.975   4.028  12.835  1.0453  0.2301 -1.4131
11774TIP3   OH256736   5.437   1.710   0.217 -0.2609 -0.2321 -0.2844
11774TIP3    H156737   5.399   1.645   0.158  1.2941 -1.4118 -0.0139
11774TIP3    H256738   5.530   1.714   0.193  0.0066  0.6602  0.8226
11775TIP3   OH256739   0.272   4.304   0.127 -0.4806  0.1994 -0.3565
11775TIP3    H156740   0.179   4.319   0.106 -0.8266 -0.0686  0.9177
11775TIP3    H256741   0.272   4.290   0.222  0.6591 -1.3868 -0.5839
11776TIP3   OH256742   2.169   5.915  15.791 -0.1673 -0.2179  0.2304
11776TIP3    H156743   2.075   5.898  15.782 -0.2387  0.3566 -0.0855
11776TIP3    H256744   2.175   5.978  15.863  0.1160 -1.6854  1.5425
11777TIP3   OH256745   5.890   5.203  12.892  0.2363  0.1709 -0.3241
11777TIP3    H156746   5.918   5.284  12.850  2.1663 -0.8363 -1.0088
11777TIP3    H256747   5.888   5.138  12.822  0.1011 -0.7147  0.4839
11778TIP3   OH256748   1.596   3.100   0.709  0.1530  0.3723  0.6357
11778TIP3    H156749   1.533   3.118   0.639  1.3089  0.8516 -0.2740
11778TIP3    H256750   1.545   3.049   0.773 -1.0847  0.4987 -0.2250
11779TIP3   OH256751   5.584   0.882   4.348 -0.2245 -0.0337  0.2081
11779TIP3    H156752   5.613   0.951   4.407  2.1621 -2.0939  1.5343
11779TIP3    H256753   5.530   0.825   4.402 -0.2297 -0.4870 -0.2698
11780TIP3   OH256754   3.053   1.620  16.196  0.1578 -0.0633  0.4407
11780TIP3    H156755   3.007   1.664  16.125  2.5599  2.7953  0.5580
11780TIP3    H256756   2.995   1.628  16.271  0.3718  2.6755  0.3550
11781TIP3   OH256757   6.516   0.753   2.040  0.6620 -0.4487  0.4483
11781TIP3    H156758   6.527   0.792   1.953  1.2113  0.1450  0.7833
11781TIP3    H256759   6.605   0.741   2.072  0.4431  0.6374  1.5022
11782TIP3   OH256760   3.866   1.365   2.096 -0.5835 -0.2845 -0.2534
11782TIP3    H156761   3.841   1.277   2.068  1.3665 -0.5521 -1.1771
11782TIP3    H256762   3.788   1.418   2.078 -1.6300 -1.7111 -0.0766
11783TIP3   OH256763   0.800   2.546   0.216  0.1376  0.3874  1.0218
11783TIP3    H156764   0.724   2.514   0.263 -0.5559  1.3553  0.5693
11783TIP3    H256765   0.768   2.566   0.129  1.1166 -0.0759  0.5482
11784TIP3   OH256766   4.607   5.855   3.631 -0.5928 -0.6007  0.3019
11784TIP3    H156767   4.629   5.933   3.580 -0.2828  0.4550  2.0060
11784TIP3    H256768   4.691   5.815   3.653 -0.5234  0.9225  2.9659
11785TIP3   OH256769   0.596   2.664  14.686 -0.5642 -0.3340 -0.2325
11785TIP3    H156770   0.566   2.618  14.607 -0.0234  1.2784 -1.4016
11785TIP3    H256771   0.561   2.752  14.677  2.3635  0.8661 -0.3903
11786TIP3   OH256772   4.937   3.712   3.443 -0.5803 -0.2963 -0.1843
11786TIP3    H156773   5.025   3.689   3.471 -0.3017  1.1443  0.1656
11786TIP3    H256774   4.948   3.741   3.352 -0.8641 -1.1294 -0.4891
11787TIP3   OH256775   6.495   6.324  12.507 -0.3576 -0.3924  0.3138
11787TIP3    H156776   6.541   6.312  12.424 -1.8770  2.5822 -1.0533
11787TIP3    H256777   6.428   6.256  12.508  0.2143 -0.9766 -0.5037
11788TIP3   OH256778   2.294   2.547   2.990  0.1041 -0.0668 -0.4787
11788TIP3    H156779   2.211   2.594   2.993  0.4648  0.5713 -0.1384
11788TIP3    H256780   2.276   2.468   2.940 -0.9989 -0.5387  0.6464
11789TIP3   OH256781   3.660   1.762   1.758 -0.0982 -0.0956  0.2447
11789TIP3    H156782   3.584   1.760   1.700  0.3517 -0.5794 -0.3278
11789TIP3    H256783   3.655   1.848   1.801  0.1071  0.6755 -1.2337
11790TIP3   OH256784   6.688   1.874  13.930  0.8283  0.1776 -0.0962
11790TIP3    H156785   6.620   1.941  13.928  0.6303  0.0297  1.0546
11790TIP3    H256786   6.710   1.858  13.838 -1.0276 -0.1099 -0.5065
11791TIP3   OH256787   1.331   1.979  16.893 -0.3921 -0.3280  0.0946
11791TIP3    H156788   1.279   2.000  16.815 -1.5961  1.3325  1.3152
11791TIP3    H256789   1.268   1.942  16.954  0.5229 -1.4680  0.3682
11792TIP3   OH256790   3.359   4.546   3.688 -0.1805  0.8325  0.4156
11792TIP3    H156791   3.435   4.490   3.673 -2.7196 -2.2375 -1.5440
11792TIP3    H256792   3.366   4.615   3.621  1.7790  1.6717  1.4280
11793TIP3   OH256793   4.141   5.781   4.627 -1.0785  0.5020 -0.4322
11793TIP3    H156794   4.116   5.714   4.564 -1.7903  0.2791  0.0914
11793TIP3    H256795   4.119   5.744   4.712  1.7270 -0.0412  0.1313
11794TIP3   OH256796   2.690   5.589  16.545  0.4324 -0.1775  0.2193
11794TIP3    H156797   2.653   5.533  16.613  0.1840 -1.0439 -0.6037
11794TIP3    H256798   2.613   5.621  16.497  0.4678  2.4117  1.8534
11795TIP3   OH256799   4.836   2.912   0.192 -0.1076 -0.4691 -0.4596
11795TIP3    H156800   4.894   2.879   0.260  0.0243 -0.4803 -0.5765
11795TIP3    H256801   4.874   2.996   0.167  0.3872 -0.9064 -1.1945
11796TIP3   OH256802   1.068   0.882  15.969  0.3140  0.2093  0.2423
11796TIP3    H156803   1.045   0.883  15.876  2.1139  1.1419 -0.2194
11796TIP3    H256804   0.995   0.836  16.011 -0.5135 -0.2489 -1.6219
11797TIP3   OH256805   6.024   2.306  10.692  0.4038 -0.0869 -0.9276
11797TIP3    H156806   6.104   2.344  10.656 -0.6412  3.4097  0.2501
11797TIP3    H256807   5.953   2.360  10.657 -1.1434 -0.9634  0.7478
11798TIP3   OH256808   2.088   0.148   0.018  0.1665  0.1913  0.0409
11798TIP3    H156809   2.060   0.158   0.108 -0.0330  0.5678 -0.0589
11798TIP3    H256810   2.169   0.200   0.013  0.4140 -0.1910  0.1157
11799TIP3   OH256811   0.945   3.497  16.738  0.2633 -0.6058 -0.2706
11799TIP3    H156812   0.852   3.483  16.753  0.0518  1.4091  0.5107
11799TIP3    H256813   0.949   3.573  16.680  1.3889 -1.2116 -0.9997
11800TIP3   OH256814   1.434   1.546   1.130 -1.0105  0.0179 -0.5303
11800TIP3    H156815   1.409   1.606   1.060 -2.4004  0.4866  0.3368
11800TIP3    H256816   1.416   1.595   1.210  3.4896  0.6906  0.2096
11801TIP3   OH256817   6.103   2.653  17.108 -0.3651 -0.1574  0.5218
11801TIP3    H156818   6.188   2.611  17.123  0.2006  0.1970 -1.4748
11801TIP3    H256819   6.126   2.741  17.078 -1.4466 -0.1867 -0.3921
11802TIP3   OH256820   5.252   2.779   1.224  0.1051  0.1886 -0.1975
11802TIP3    H156821   5.327   2.724   1.202 -0.2059  0.8285 -2.9943
11802TIP3    H256822   5.206   2.791   1.141 -3.0228 -0.0628  1.4564
11803TIP3   OH256823   5.266   0.473   4.951  0.1937 -0.1178 -0.4745
11803TIP3    H156824   5.226   0.524   4.882 -0.4686  0.6673  0.4800
11803TIP3    H256825   5.338   0.528   4.984 -1.0480  0.5789  1.1188
11804TIP3   OH256826   0.977   0.901  11.519  0.4928  0.1945 -0.1352
11804TIP3    H156827   1.043   0.958  11.559 -0.6716  1.4474  0.0633
11804TIP3    H256828   1.003   0.812  11.545  1.8149  0.7068  0.3415
11805TIP3   OH256829   2.333   3.316  13.729  0.5671  0.5922 -0.2202
11805TIP3    H156830   2.386   3.365  13.666  0.5934  0.2070 -0.4979
11805TIP3    H256831   2.397   3.271  13.785  0.5389  0.3680 -0.3663
11806TIP3   OH256832   0.062   0.983  11.553 -0.1730 -0.2725 -0.0539
11806TIP3    H156833   0.143   1.032  11.566 -0.4204  0.2974 -0.6773
11806TIP3    H256834   0.071   0.907  11.612  0.5644  0.0749  0.2912
11807TIP3   OH256835   3.250   4.786  13.628 -0.2004 -0.4367  0.1906
11807TIP3    H156836   3.211   4.869  13.600  1.5915 -0.8327 -3.9614
11807TIP3    H256837   3.343   4.796  13.606  0.0031 -3.5622 -0.5478
11808TIP3   OH256838   5.727   5.776   3.222  0.1876 -0.7613  0.1966
11808TIP3    H156839   5.735   5.728   3.139 -1.1015  0.1730 -0.4895
11808TIP3    H256840   5.769   5.860   3.205 -1.4135  0.0129 -0.0066
11809TIP3   OH256841   0.280   1.663  11.844  0.1071 -0.5780  0.5414
11809TIP3    H156842   0.321   1.612  11.775  2.8282  1.6022  0.4967
11809TIP3    H256843   0.188   1.669  11.818  1.2307  0.9200 -3.3688
11810TIP3   OH256844   3.924   0.318  14.430 -0.2236  0.3177  0.4013
11810TIP3    H156845   4.001   0.376  14.426  0.8255 -0.9301  1.6888
11810TIP3    H256846   3.900   0.304  14.339  0.4380  1.5540  0.0174
11811TIP3   OH256847   6.746   3.355   0.529  0.6674 -0.3138  0.5803
11811TIP3    H156848   6.743   3.385   0.438 -0.0259  1.4885  1.1885
11811TIP3    H256849   6.834   3.319   0.539  1.1620  0.5716 -0.4622
11812TIP3   OH256850   2.286   4.376  13.539 -0.6383  0.3548 -0.2600
11812TIP3    H156851   2.228   4.306  13.509  0.0988 -0.5516  0.4170
11812TIP3    H256852   2.331   4.339  13.614  1.3787  0.7959 -1.2353
11813TIP3   OH256853   0.070   5.903  15.834  0.0668  0.0358 -0.5390
11813TIP3    H156854   0.047   5.851  15.911 -0.1935  1.5248  0.4035
11813TIP3    H256855   0.165   5.915  15.841 -0.0528  0.7488 -0.0704
11814TIP3   OH256856   2.183   5.924   4.335  0.3097  0.1556  0.4650
11814TIP3    H156857   2.093   5.912   4.304  0.0505  0.8196  0.9478
11814TIP3    H256858   2.209   5.838   4.367 -1.0784  0.5131  2.7044
11815TIP3   OH256859   5.484   3.398  13.368  0.6248 -0.3674  0.3555
11815TIP3    H156860   5.509   3.329  13.429 -0.7190 -0.9141  0.3049
11815TIP3    H256861   5.517   3.368  13.283  3.4485  0.9031  0.9436
11816TIP3   OH256862   1.447   0.879   5.348  0.2459  0.7582  0.8998
11816TIP3    H156863   1.419   0.936   5.277  0.2708  0.7163  0.8559
11816TIP3    H256864   1.374   0.879   5.410  0.0113  0.3842  0.6278
11817TIP3   OH256865   5.234   4.396  16.018  0.0421 -0.6577 -0.0398
11817TIP3    H156866   5.199   4.327  16.075 -0.9260 -0.6214 -0.5786
11817TIP3    H256867   5.197   4.477  16.053  1.0491 -0.4189  0.4951
11818TIP3   OH256868   0.932   2.494   4.159 -0.5957  0.2651  0.0089
11818TIP3    H156869   0.935   2.398   4.166  0.6476  0.4854  2.9666
11818TIP3    H256870   0.842   2.516   4.181 -0.6328 -0.1569  0.2929
11819TIP3   OH256871   1.682   2.475   0.352  0.4039 -0.1941  0.8311
11819TIP3    H156872   1.693   2.534   0.426  0.8886  0.0742  0.5493
11819TIP3    H256873   1.703   2.529   0.276  1.5393 -0.9206  0.6208
11820TIP3   OH256874   2.251   1.085  10.605  0.1842  0.1246  0.1430
11820TIP3    H156875   2.228   1.139  10.530  0.1439 -0.3213 -0.1681
11820TIP3    H256876   2.255   1.146  10.679  1.4877  0.7704 -0.4563
11821TIP3   OH256877   4.129   1.244  10.765  0.2304 -0.6477  0.2002
11821TIP3    H156878   4.037   1.253  10.793 -0.1468 -1.1171 -0.8526
11821TIP3    H256879   4.139   1.150  10.750 -0.0656 -0.2398 -2.8221
11822TIP3   OH256880   6.276   6.731  11.123  0.0185 -0.3243 -0.1261
11822TIP3    H156881   6.317   6.800  11.174  0.0973 -0.0124 -0.6032
11822TIP3    H256882   6.326   6.728  11.042  0.0153 -0.9446 -0.1054
11823TIP3   OH256883   0.935   3.018  11.904 -0.4417 -0.3152 -0.3025
11823TIP3    H156884   0.966   3.082  11.839  1.2078 -0.4681  0.3091
11823TIP3    H256885   0.840   3.026  11.901 -0.3058  1.4357 -0.9940
11824TIP3   OH256886   6.502   4.537  16.956  0.7641  0.7750 -0.5253
11824TIP3    H156887   6.443   4.515  17.028  0.7268  0.2904 -0.6982
11824TIP3    H256888   6.446   4.576  16.890  0.5234 -0.2812 -0.9540
11825TIP3   OH256889   2.232   6.250  17.074  0.4639  0.5015  0.1500
11825TIP3    H156890   2.271   6.331  17.105  0.6414 -0.0421  1.3810
11825TIP3    H256891   2.306   6.197  17.044  0.6674 -0.2924  1.9353
11826TIP3   OH256892   1.754   2.032   3.825  0.1284  0.2342  0.5481
11826TIP3    H156893   1.693   2.001   3.758 -1.9268  3.6662  0.7099
11826TIP3    H256894   1.832   2.059   3.776 -0.1493 -0.1414 -0.1124
11827TIP3   OH256895   5.075   2.245  12.633  0.7551  0.3201  0.5925
11827TIP3    H156896   4.987   2.281  12.646 -0.1186 -1.7058  0.3761
11827TIP3    H256897   5.081   2.229  12.538  1.4027  0.5275  0.5914
11828TIP3   OH256898   2.696   5.789  13.490  0.6957  0.4500 -0.0527
11828TIP3    H156899   2.792   5.797  13.485  0.8592 -2.3077 -2.9520
11828TIP3    H256900   2.681   5.695  13.501 -1.7181  0.7803 -0.3383
11829TIP3   OH256901   0.578   1.426   1.171  0.0228 -0.7362 -0.6186
11829TIP3    H156902   0.572   1.337   1.137 -0.8724 -1.3668  1.1379
11829TIP3    H256903   0.555   1.418   1.264  2.1975  0.9644  0.1191
11830TIP3   OH256904   4.115   2.882  16.049  0.2786  0.5800 -0.0176
11830TIP3    H156905   4.137   2.928  15.968  0.6331  0.5432  0.0599
11830TIP3    H256906   4.199   2.861  16.089  0.1644 -1.5187 -0.8265
11831TIP3   OH256907   3.515   6.006  14.222  0.4151 -0.4328  0.2795
11831TIP3    H156908   3.513   5.939  14.290 -1.2600 -0.1029  0.5867
11831TIP3    H256909   3.426   6.006  14.185  1.0928 -0.1059 -1.4168
11832TIP3   OH256910   4.003   1.739   4.344 -0.5354  0.0382  0.2174
11832TIP3    H156911   4.092   1.745   4.310 -1.0211  0.5596 -0.9817
11832TIP3    H256912   3.967   1.827   4.333 -1.6243 -0.4940 -0.4928
11833TIP3   OH256913   6.637   5.596   4.658  0.0495 -0.8541  0.3601
11833TIP3    H156914   6.629   5.687   4.629 -2.7543 -1.1120  0.1822
11833TIP3    H256915   6.639   5.601   4.754  1.6342 -0.5335  0.3370
11834TIP3   OH256916   1.388   3.309   4.028  0.8451  0.3603  0.3422
11834TIP3    H156917   1.392   3.393   3.982  0.3670  1.6080  2.5041
11834TIP3    H256918   1.449   3.319   4.101  0.2122 -0.8802  1.0583
11835TIP3   OH256919   3.125   0.267   0.714 -0.0801 -0.0749  0.0046
11835TIP3    H156920   3.155   0.181   0.685 -1.5234 -1.2628  1.9135
11835TIP3    H256921   3.204   0.321   0.718  0.7913 -1.2299 -1.4658
11836TIP3   OH256922   1.708   5.423  16.532  0.9312  0.9814 -0.4481
11836TIP3    H156923   1.622   5.463  16.545  1.0924  1.2623 -0.2481
11836TIP3    H256924   1.727   5.435  16.439  1.3762  2.1551 -0.2068
11837TIP3   OH256925   6.554   2.294   0.183 -0.7932 -0.2240  0.0414
11837TIP3    H156926   6.583   2.275   0.094  0.8196 -0.4191  0.5949
11837TIP3    H256927   6.618   2.356   0.217 -1.6335  0.1737  0.9302
11838TIP3   OH256928   0.800   4.981   5.433 -0.4366 -0.2537 -0.0867
11838TIP3    H156929   0.812   4.888   5.412  1.3901 -0.1685  0.5011
11838TIP3    H256930   0.883   5.021   5.409 -1.0991  1.1760 -0.0062
11839TIP3   OH256931   5.770   1.907   4.535 -0.5040 -0.3412 -0.1992
11839TIP3    H156932   5.812   1.974   4.481 -0.5440  0.1233  0.3403
11839TIP3    H256933   5.698   1.875   4.481 -0.7264  0.3265 -0.3081
11840TIP3   OH256934   2.280   2.123  15.233  0.0269  0.0708 -0.0489
11840TIP3    H156935   2.315   2.165  15.154 -0.9355 -0.3740 -0.7273
11840TIP3    H256936   2.211   2.181  15.263  2.0661  1.5519  1.9720
11841TIP3   OH256937   5.708   0.669  13.865 -0.7708  0.2081  0.4438
11841TIP3    H156938   5.647   0.656  13.938 -1.0666 -1.0005 -0.0043
11841TIP3    H256939   5.730   0.762  13.868 -1.4275  0.3377  1.5622
11842TIP3   OH256940   1.168   1.024  14.985  0.0975 -0.5562 -0.2257
11842TIP3    H156941   1.259   1.025  15.015 -0.4284 -2.1234  1.5207
11842TIP3    H256942   1.147   1.116  14.971  1.6420 -0.0915  0.3586
11843TIP3   OH256943   5.080   6.084  14.228 -0.3038 -0.0981 -0.0265
11843TIP3    H156944   5.089   6.023  14.156 -0.0154 -0.5167  0.3596
11843TIP3    H256945   4.988   6.077  14.255  0.0475 -1.3817  0.9041
11844TIP3   OH256946   3.325   6.092  13.655 -0.3872 -0.3408 -0.0316
11844TIP3    H156947   3.325   6.101  13.750  2.3562  1.7678 -0.1979
11844TIP3    H256948   3.261   6.157  13.625  3.4007  3.6974  0.0949
11845TIP3   OH256949   2.104   5.414  14.395 -1.1118 -0.5272 -0.2400
11845TIP3    H156950   2.024   5.428  14.343 -1.8061 -2.3442  0.3096
11845TIP3    H256951   2.140   5.331  14.361  2.9300  2.3569 -3.5015
11846TIP3   OH256952   5.276   6.245   0.449  0.1609  0.1712  0.1400
11846TIP3    H156953   5.296   6.152   0.459 -0.7043  0.1774  2.1642
11846TIP3    H256954   5.257   6.255   0.356  0.1469 -1.7014 -0.0849
11847TIP3   OH256955   4.925   0.383  12.854  0.5871 -0.1659 -0.1014
11847TIP3    H156956   4.877   0.465  12.847 -1.2913 -1.1795  0.5400
11847TIP3    H256957   5.006   0.405  12.899 -0.4505  1.1227  1.1621
11848TIP3   OH256958   0.320   3.325   3.768  0.0972  0.0920 -0.1615
11848TIP3    H156959   0.391   3.385   3.793 -1.0295  0.9984  0.9105
11848TIP3    H256960   0.313   3.264   3.841 -0.0488 -0.1704 -0.3932
11849TIP3   OH256961   1.919   6.524  13.902  0.2709  0.2059  0.6719
11849TIP3    H156962   1.993   6.469  13.927  0.6264  0.6647  0.6349
11849TIP3    H256963   1.909   6.509  13.808 -1.6715 -2.2534  1.2168
11850TIP3   OH256964   5.571   2.786  12.645  0.0665 -0.9134  0.0984
11850TIP3    H156965   5.555   2.716  12.709 -0.1419 -1.3718 -0.4527
11850TIP3    H256966   5.608   2.742  12.569  1.1114 -0.2488  0.2128
11851TIP3   OH256967   3.526   2.746  16.868 -0.2090 -0.1480  0.5804
11851TIP3    H156968   3.603   2.799  16.889 -0.2133 -0.0188  0.2680
11851TIP3    H256969   3.470   2.803  16.816  0.5680 -1.0098 -1.2397
11852TIP3   OH256970   5.690   6.117  10.901  0.5326 -0.1279  0.2920
11852TIP3    H156971   5.697   6.088  10.810 -0.1755  1.6843 -0.3745
11852TIP3    H256972   5.662   6.039  10.949 -2.0811 -0.4153 -1.5576
11853TIP3   OH256973   5.201   2.316  15.505  0.9859  0.7436 -0.2529
11853TIP3    H156974   5.212   2.221  15.503  1.3543  0.7859 -0.3865
11853TIP3    H256975   5.114   2.330  15.543  0.5948  0.3283 -0.9730
11854TIP3   OH256976   6.643   1.433   3.336 -0.6939 -0.1997 -0.0044
11854TIP3    H156977   6.724   1.453   3.290  0.2033 -0.7014  1.3039
11854TIP3    H256978   6.628   1.340   3.319 -0.8362 -0.1735 -0.0216
11855TIP3   OH256979   3.411   1.169   3.361  0.4519 -0.5763 -0.3909
11855TIP3    H156980   3.475   1.202   3.298 -0.5573  0.9032 -0.6871
11855TIP3    H256981   3.460   1.109   3.417  1.7662 -0.5397 -1.4802
11856TIP3   OH256982   2.270   3.899   5.290 -0.0536  0.4498  0.3461
11856TIP3    H156983   2.240   3.811   5.311  2.6221 -1.2012 -2.3541
11856TIP3    H256984   2.296   3.937   5.374  0.0147 -1.8189  1.3821
11857TIP3   OH256985   1.506   3.249   3.041  0.1924  0.1739 -0.0042
11857TIP3    H156986   1.420   3.215   3.018 -0.4190  2.0584 -0.6136
11857TIP3    H256987   1.497   3.280   3.131  0.7461 -1.2746  0.5519
11858TIP3   OH256988   4.105   0.833   3.970  0.4529 -0.1282  0.0942
11858TIP3    H156989   4.190   0.869   3.998  0.2692  0.0880  0.3791
11858TIP3    H256990   4.056   0.821   4.051  0.8018 -1.7893  0.0733
11859TIP3   OH256991   0.762   6.056   1.866  0.0614 -0.2483 -0.6101
11859TIP3    H156992   0.821   6.092   1.800  0.5153 -0.3392 -0.2616
11859TIP3    H256993   0.807   5.978   1.898 -0.2005 -0.2627 -0.2687
11860TIP3   OH256994   1.638   6.031   5.117 -0.4636 -1.0232 -0.4919
11860TIP3    H156995   1.612   5.969   5.184 -1.1064  0.6132  0.8072
11860TIP3    H256996   1.722   5.998   5.085 -1.2992 -3.1266 -0.5963
11861TIP3   OH256997   1.095   5.476  15.879  0.2239  0.1190  0.1482
11861TIP3    H156998   1.074   5.570  15.875 -0.3512 -0.0460 -0.9557
11861TIP3    H256999   1.010   5.433  15.870  0.4321 -0.5024  1.1783
11862TIP3   OH257000   6.188   1.317   1.067 -0.4321 -0.4603  0.2999
11862TIP3    H157001   6.103   1.344   1.102 -0.1081  0.5969  0.2921
11862TIP3    H257002   6.177   1.321   0.972  0.3083  1.9794  0.2742
11863TIP3   OH257003   1.899   1.745  11.772  0.0553  0.4618  0.1107
11863TIP3    H157004   1.845   1.805  11.720  1.9738  0.4270 -1.9859
11863TIP3    H257005   1.938   1.801  11.840 -0.6927  0.9443  0.1489
11864TIP3   OH257006   0.631   6.159  13.154  0.2633  0.4494 -0.1748
11864TIP3    H157007   0.645   6.181  13.246 -0.7394  2.8093 -0.5544
11864TIP3    H257008   0.579   6.231  13.120  0.6118 -0.4077 -2.6021
11865TIP3   OH257009   5.609   5.825  15.142 -0.4409  0.3281  0.1939
11865TIP3    H157010   5.614   5.911  15.100  2.8942  0.4815  0.7905
11865TIP3    H257011   5.588   5.845  15.234 -3.3258  0.2304 -0.3817
11866TIP3   OH257012   2.823   2.562  15.765  0.3549 -0.6830 -0.0122
11866TIP3    H157013   2.915   2.589  15.762  0.1716 -0.0650 -0.0660
11866TIP3    H257014   2.810   2.511  15.685 -0.0006  1.3103 -1.2369
11867TIP3   OH257015   5.924   6.555   3.282 -0.2180 -0.1838  0.6953
11867TIP3    H157016   5.995   6.536   3.344  0.1480 -1.4287 -0.0890
11867TIP3    H257017   5.963   6.615   3.219 -0.5898  1.0858  1.6482
11868TIP3   OH257018   1.650   6.706   2.860  0.2642  0.0711  0.1224
11868TIP3    H157019   1.560   6.704   2.829 -0.4680  1.1356  2.0582
11868TIP3    H257020   1.680   6.795   2.839  0.7335 -0.1533 -0.1631
11869TIP3   OH257021   0.448   6.251   4.214 -0.0723  0.7991  0.6202
11869TIP3    H157022   0.413   6.224   4.129  1.4914  0.2317  0.1371
11869TIP3    H257023   0.377   6.233   4.276 -0.6568 -0.2615 -0.3415
11870TIP3   OH257024   0.969   6.387  14.992 -0.3142  0.3087  0.2368
11870TIP3    H157025   0.939   6.329  14.922 -0.2803 -1.0983  1.3529
11870TIP3    H257026   1.032   6.445  14.950  0.0041 -0.7823 -0.8273
11871TIP3   OH257027   3.016   2.502   3.991 -0.4091  0.0787 -0.5590
11871TIP3    H157028   3.095   2.544   3.957 -0.5116  1.5318  0.9222
11871TIP3    H257029   2.951   2.572   3.997 -2.0952 -1.2570 -2.5079
11872TIP3   OH257030   1.792   5.220   5.647 -0.6132 -0.4737  0.3514
11872TIP3    H157031   1.751   5.282   5.707 -0.4714  0.3155 -0.3665
11872TIP3    H257032   1.742   5.139   5.658 -2.1494  0.3727 -0.2410
11873TIP3   OH257033   1.488   3.042  15.398 -0.9503 -1.2670  0.6008
11873TIP3    H157034   1.470   3.135  15.387 -0.6163 -1.4170 -1.4356
11873TIP3    H257035   1.408   2.998  15.368 -0.6608 -1.6588  0.3902
11874TIP3   OH257036   3.609   4.187  16.113  0.3198  0.7584 -0.4270
11874TIP3    H157037   3.570   4.203  16.199  1.1894 -0.4427  0.2209
11874TIP3    H257038   3.695   4.230  16.118  0.4793  0.4627 -0.5850
11875TIP3   OH257039   1.976   3.569  11.504  0.0696 -0.0981 -0.6035
11875TIP3    H157040   1.945   3.647  11.551 -0.4142 -0.9512  0.5182
11875TIP3    H257041   2.036   3.603  11.438  1.0806  1.1137  0.9010
11876TIP3   OH257042   4.080   3.297   2.145  0.2219 -0.1038 -0.8776
11876TIP3    H157043   4.041   3.382   2.129 -0.6311 -0.7088 -2.0616
11876TIP3    H257044   4.141   3.284   2.072  1.6628  0.2389  0.2294
11877TIP3   OH257045   1.849   2.259   3.391  0.2232  0.1753 -0.2873
11877TIP3    H157046   1.802   2.238   3.471 -0.3718  0.3551 -0.5857
11877TIP3    H257047   1.923   2.198   3.390 -0.8330 -1.1269 -0.5472
11878TIP3   OH257048   6.392   2.397  12.649 -0.6668 -0.2095 -0.0008
11878TIP3    H157049   6.423   2.464  12.588  5.5302 -1.9891  0.8160
11878TIP3    H257050   6.392   2.316  12.598 -0.1567 -0.9123  1.0990
11879TIP3   OH257051   5.704   1.981  15.689 -0.3110 -0.3615  0.1208
11879TIP3    H157052   5.633   2.026  15.643  0.1234  0.9183  0.6743
11879TIP3    H257053   5.666   1.898  15.718 -0.5555 -1.3044 -2.6836
11880TIP3   OH257054   3.136   0.044  16.983 -0.2070  0.3538 -0.4533
11880TIP3    H157055   3.213   0.022  16.931  0.0519 -3.0420  1.2593
11880TIP3    H257056   3.163   0.121  17.034  2.7238 -1.8133  1.4117
11881TIP3   OH257057   3.802   0.941   4.673  0.4032  0.0299 -0.7117
11881TIP3    H157058   3.852   0.885   4.733  0.7252  2.0992  1.0058
11881TIP3    H257059   3.736   0.883   4.637  0.1986 -1.2909  1.6548
11882TIP3   OH257060   1.091   5.924  15.658  0.0412  0.1874 -0.1972
11882TIP3    H157061   1.114   6.004  15.705  2.3093  0.3397 -1.4804
11882TIP3    H257062   1.103   5.946  15.566  2.4008 -2.0974 -0.4938
11883TIP3   OH257063   2.046   1.461   1.687  0.6134  0.1523  0.3362
11883TIP3    H157064   2.059   1.471   1.781  1.8676  0.5118  0.1385
11883TIP3    H257065   1.993   1.537   1.662 -1.8743 -1.2641  1.1436
11884TIP3   OH257066   5.663   0.283   5.816  0.4253 -0.7921 -0.4584
11884TIP3    H157067   5.707   0.315   5.737  3.0987 -4.2347 -0.4462
11884TIP3    H257068   5.672   0.188   5.813  0.3380 -1.0577  3.8354
11885TIP3   OH257069   0.279   0.673  12.043  0.4401  0.4646 -0.2814
11885TIP3    H157070   0.373   0.691  12.039  0.5666  0.1245  0.8968
11885TIP3    H257071   0.247   0.694  11.956  1.8615 -0.8042 -1.1296
11886TIP3   OH257072   6.473   6.560  15.771  0.5879  0.3646  0.0005
11886TIP3    H157073   6.421   6.561  15.691 -1.1648 -0.5722  1.0936
11886TIP3    H257074   6.545   6.500  15.752 -0.0977 -0.2474 -0.7043
11887TIP3   OH257075   2.642   3.569   4.729 -0.0920 -0.2216  0.2855
11887TIP3    H157076   2.724   3.614   4.707 -0.6940  0.2096 -1.1996
11887TIP3    H257077   2.651   3.483   4.688 -0.8268  0.2339 -0.8654
11888TIP3   OH257078   3.366   1.949   4.373 -0.8274 -0.6664 -0.1395
11888TIP3    H157079   3.325   1.869   4.404 -1.2484 -0.5738 -0.4488
11888TIP3    H257080   3.336   1.958   4.282 -0.2942 -0.4840 -0.3029
11889TIP3   OH257081   0.937   6.444  11.764  0.2749 -0.0750  0.2821
11889TIP3    H157082   0.928   6.352  11.789 -1.3443 -0.5317 -1.8520
11889TIP3    H257083   1.030   6.453  11.741  0.6898 -0.8684  1.5795
11890TIP3   OH257084   1.336   4.154   1.085 -0.1194  0.1109  0.1940
11890TIP3    H157085   1.420   4.111   1.068 -0.3707  0.5070 -2.3073
11890TIP3    H257086   1.286   4.141   1.004 -3.2356 -1.8147  2.3320
11891TIP3   OH257087   0.371   4.170  12.064 -0.1514 -0.3404  0.5407
11891TIP3    H157088   0.324   4.253  12.059 -2.4610 -1.5788  0.9586
11891TIP3    H257089   0.404   4.155  11.975 -0.8721  0.3545  0.1514
11892TIP3   OH257090   5.748   0.437   2.450  0.5482 -0.0778  0.3669
11892TIP3    H157091   5.696   0.366   2.488  0.0015 -0.3152 -0.7922
11892TIP3    H257092   5.683   0.496   2.410  1.2235 -1.3885 -2.8112
11893TIP3   OH257093   2.102   6.753  16.772 -0.5273  0.7708  0.0914
11893TIP3    H157094   2.058   6.686  16.824  1.4954 -0.9709 -0.3681
11893TIP3    H257095   2.174   6.707  16.729 -0.4086  2.7832 -1.9823
11894TIP3   OH257096   0.082   4.904   3.276  0.1769  0.0156  0.4207
11894TIP3    H157097   0.069   4.862   3.361  1.9480 -0.6184  0.3934
11894TIP3    H257098   0.152   4.854   3.235  1.2198  2.0056 -0.2829
11895TIP3   OH257099   6.197   2.778   2.719 -0.2395  0.4860  0.2727
11895TIP3    H157100   6.171   2.861   2.757 -0.6446 -0.1146  1.3415
11895TIP3    H257101   6.278   2.796   2.672 -1.0125  1.7495 -0.5898
11896TIP3   OH257102   5.980   1.546  11.468  0.6396  0.7220 -0.3922
11896TIP3    H157103   6.034   1.528  11.391 -0.4245 -0.1673 -0.9489
11896TIP3    H257104   5.901   1.586  11.432  0.5598  1.2028  0.3329
11897TIP3   OH257105   2.647   4.666  16.178 -0.1156 -0.4964  0.7252
11897TIP3    H157106   2.569   4.620  16.147 -0.1795 -0.7795  1.2866
11897TIP3    H257107   2.679   4.611  16.250 -0.3729  0.5080  1.6041
11898TIP3   OH257108   0.062   6.006   5.219  0.3295 -0.0587  0.2493
11898TIP3    H157109   0.131   6.043   5.273  0.6705 -0.1267 -0.1310
11898TIP3    H257110  -0.018   6.051   5.246  0.4234 -0.4063  1.1094
11899TIP3   OH257111   6.760   1.438  12.631  0.0587 -0.2108 -0.2341
11899TIP3    H157112   6.728   1.463  12.544  0.3709  0.5509 -0.1336
11899TIP3    H257113   6.768   1.521  12.678  0.6422 -0.5484  0.2595
11900TIP3   OH257114   0.666   4.213  13.422 -0.2606 -0.8991  0.2290
11900TIP3    H157115   0.571   4.205  13.414 -0.2923  0.2700 -0.8333
11900TIP3    H257116   0.679   4.279  13.490 -0.2227 -1.0210  0.3398
11901TIP3   OH257117   2.505   5.056   1.784 -0.7603  0.6407 -0.0286
11901TIP3    H157118   2.497   5.102   1.868  4.1100 -0.0665  0.9974
11901TIP3    H257119   2.494   4.964   1.805 -1.7047  0.6320 -0.5472
11902TIP3   OH257120   5.326   1.183  10.653 -0.0880  0.4715  0.0120
11902TIP3    H157121   5.420   1.183  10.639  0.1312 -0.3174  1.3699
11902TIP3    H257122   5.298   1.273  10.634  0.6043  0.2023 -2.3854
11903TIP3   OH257123   2.457   4.987   0.729 -0.4143 -0.5634 -0.6098
11903TIP3    H157124   2.439   4.976   0.823 -1.6837  1.2514 -0.6130
11903TIP3    H257125   2.540   4.942   0.716 -0.6574 -1.6128  1.2127
11904TIP3   OH257126   1.245   6.190  14.930 -0.0559 -0.0271  0.4046
11904TIP3    H157127   1.315   6.148  14.980 -1.3626 -1.8186  0.7931
11904TIP3    H257128   1.165   6.168  14.978 -0.9770  1.1986 -0.5465
11905TIP3   OH257129   0.473   6.231   4.859 -0.0259 -0.9049 -0.0513
11905TIP3    H157130   0.562   6.210   4.831  0.5534  1.8121 -0.3866
11905TIP3    H257131   0.452   6.312   4.812 -2.6715 -1.5000  0.0394
11906TIP3   OH257132   0.658   5.447   0.694  0.2881  0.5716 -0.9112
11906TIP3    H157133   0.734   5.388   0.699 -1.0798 -1.1268  0.6952
11906TIP3    H257134   0.679   5.519   0.753 -0.3049 -1.1091  1.4452
11907TIP3   OH257135   2.219   4.659  16.735  0.6171  0.0374  0.4193
11907TIP3    H157136   2.234   4.748  16.703  0.5605  0.3772  1.3406
11907TIP3    H257137   2.145   4.667  16.795  1.1678 -0.4830  1.1753
11908TIP3   OH257138   0.014   4.993  12.788 -0.4089  0.9523 -0.3770
11908TIP3    H157139  -0.072   5.000  12.747 -0.1068  2.1535 -0.8173
11908TIP3    H257140   0.030   5.080  12.826  0.8626  0.9162 -0.8014
11909TIP3   OH257141   1.264   3.091   3.101 -0.1100 -1.1047 -0.2388
11909TIP3    H157142   1.296   3.084   3.191 -0.2551 -0.6505 -0.1531
11909TIP3    H257143   1.206   3.016   3.090 -0.2199 -1.0645  0.0965
11910TIP3   OH257144   0.861   1.965   3.815 -1.0698 -0.5885 -0.3657
11910TIP3    H157145   0.870   1.923   3.900 -4.1715 -2.2513 -0.7865
11910TIP3    H257146   0.853   1.893   3.752 -1.0901  0.6092 -1.7810
11911TIP3   OH257147   5.778   5.724  16.542  0.0260 -0.0142  0.4537
11911TIP3    H157148   5.834   5.720  16.620 -0.4063 -1.7870  0.6996
11911TIP3    H257149   5.837   5.703  16.469  0.5090  2.0019  0.2391
11912TIP3   OH257150   1.705   5.789   2.737 -0.0253 -0.2661 -0.3167
11912TIP3    H157151   1.660   5.704   2.746 -0.9873  0.4181  1.3656
11912TIP3    H257152   1.699   5.829   2.823  0.4913  1.5071 -1.0936
11913TIP3   OH257153   6.363   5.765   2.598  0.3864 -0.1494  0.0385
11913TIP3    H157154   6.426   5.831   2.627 -0.4610  0.5288  0.3740
11913TIP3    H257155   6.391   5.684   2.641  2.4817 -0.4361 -1.7626
11914TIP3   OH257156   6.083   0.549   5.441  0.6150  0.1007 -0.7114
11914TIP3    H157157   6.167   0.544   5.485  0.5932  1.2516 -0.5133
11914TIP3    H257158   6.101   0.525   5.351  0.6322 -2.4320 -0.0586
11915TIP3   OH257159   5.725   0.980   0.021  0.4212 -0.0576  0.3101
11915TIP3    H157160   5.740   1.069  -0.011  1.0535 -0.3322 -0.1660
11915TIP3    H257161   5.787   0.969   0.093  0.9007 -0.3952 -0.1576
11916TIP3   OH257162   1.668   3.938   4.846  0.7802  0.6571  0.1033
11916TIP3    H157163   1.592   3.992   4.826  0.3646 -0.2141 -0.7405
11916TIP3    H257164   1.635   3.870   4.905  0.5643 -0.5624 -1.3915
11917TIP3   OH257165   3.389   4.392  13.069 -0.0380  0.3718  0.2102
11917TIP3    H157166   3.457   4.444  13.025 -0.0992 -1.0526 -1.6411
11917TIP3    H257167   3.435   4.316  13.103 -0.0428  1.3379  2.4597
11918TIP3   OH257168   3.717   3.982  13.387 -0.1154 -0.7604  0.3169
11918TIP3    H157169   3.663   4.008  13.462  0.1080  1.7625 -0.3531
11918TIP3    H257170   3.655   3.944  13.325 -0.5107 -1.5339  1.1640
11919TIP3   OH257171   2.325   3.124   3.514  0.4096  0.1224  0.1139
11919TIP3    H157172   2.405   3.093   3.472  0.0244  0.1752 -0.6752
11919TIP3    H257173   2.343   3.118   3.608  0.8232 -1.2116 -0.0383
11920TIP3   OH257174   3.496   4.283  14.876  0.5074 -0.0733  0.6839
11920TIP3    H157175   3.528   4.237  14.953 -1.2391 -2.5746 -0.0148
11920TIP3    H257176   3.410   4.244  14.859 -0.4454  2.5223 -0.7698
11921TIP3   OH257177   4.258   2.102  10.778  0.5959 -0.1077  0.7701
11921TIP3    H157178   4.185   2.161  10.759  1.3577  0.6151  0.0594
11921TIP3    H257179   4.317   2.112  10.704  1.6319 -0.3610  1.5490
11922TIP3   OH257180   5.557   5.532  15.981 -0.3955  0.3735  0.1143
11922TIP3    H157181   5.602   5.565  15.903 -1.3365 -1.5014 -1.2632
11922TIP3    H257182   5.619   5.471  16.021 -0.2992  0.5768  0.2767
11923TIP3   OH257183   2.944   0.850  10.948 -0.6965  0.3467  0.1911
11923TIP3    H157184   3.014   0.867  10.885 -1.5405  0.5768 -0.6963
11923TIP3    H257185   2.901   0.934  10.959 -1.0467  0.1292  0.4871
11924TIP3   OH257186   6.699   5.354  10.966  0.5650  0.1530 -0.6962
11924TIP3    H157187   6.785   5.341  11.005  1.3875  2.4409 -1.6131
11924TIP3    H257188   6.712   5.426  10.904 -2.0392  0.6748 -0.7009
11925TIP3   OH257189   0.480   2.878   5.583 -0.2765  0.2109  0.7891
11925TIP3    H157190   0.435   2.933   5.647 -0.9787 -0.4630  0.8889
11925TIP3    H257191   0.415   2.813   5.558 -0.1793  0.7855 -1.0216
11926TIP3   OH257192   6.771   4.894  13.795 -0.4060  0.0254 -0.6842
11926TIP3    H157193   6.704   4.842  13.752 -0.8359  0.1404 -0.1583
11926TIP3    H257194   6.753   4.883  13.889 -2.3285  3.4755 -0.5780
11927TIP3   OH257195   5.877   3.486  14.989  0.2119  0.0517  0.2137
11927TIP3    H157196   5.956   3.433  14.999  0.4500  0.2909 -0.4054
11927TIP3    H257197   5.876   3.512  14.897 -1.1161 -0.7633 -0.0188
11928TIP3   OH257198   1.848   3.745   3.628 -0.3979 -0.1957 -0.3990
11928TIP3    H157199   1.775   3.688   3.603  1.7219 -1.5433 -3.7711
11928TIP3    H257200   1.888   3.772   3.545  2.1737  1.5645  1.3314
11929TIP3   OH257201   4.459   5.790  15.434  0.0662 -0.0485  0.3026
11929TIP3    H157202   4.547   5.815  15.460 -0.5662  1.8504  0.7345
11929TIP3    H257203   4.409   5.790  15.516 -0.8770  1.3647 -0.2380
11930TIP3   OH257204   4.713   4.111   3.469 -0.1994 -0.3687  0.1389
11930TIP3    H157205   4.624   4.105   3.503 -0.7026  1.3674 -0.7750
11930TIP3    H257206   4.754   4.179   3.523  0.6739 -1.3771  0.7557
11931TIP3   OH257207   4.107   6.342  15.012 -0.0459 -0.5655 -0.1314
11931TIP3    H157208   4.111   6.428  15.053 -1.7333 -0.7095  0.3889
11931TIP3    H257209   4.026   6.303  15.045 -0.9585 -1.0851 -2.8160
11932TIP3   OH257210   6.638   3.581   4.952  0.7949  0.1932 -0.2650
11932TIP3    H157211   6.597   3.657   4.912 -1.0537 -1.3534 -1.3561
11932TIP3    H257212   6.728   3.609   4.970  0.6835  2.0183 -2.3662
11933TIP3   OH257213   4.931   0.841   3.720 -0.0526  0.7437 -0.1192
11933TIP3    H157214   4.967   0.754   3.739 -2.7081 -0.6410 -1.0748
11933TIP3    H257215   4.944   0.891   3.800  1.8838 -0.4080  0.3040
11934TIP3   OH257216   3.001   6.272   5.912 -0.1880 -0.4365 -0.5270
11934TIP3    H157217   2.911   6.251   5.935 -0.6179  1.8309  0.0084
11934TIP3    H257218   2.994   6.326   5.833  0.6436  0.4057 -0.0345
11935TIP3   OH257219   4.546   5.581   5.342  0.4629  0.2425  0.3117
11935TIP3    H157220   4.575   5.495   5.373  0.8057  0.9307  1.9224
11935TIP3    H257221   4.453   5.568   5.321  1.1945 -1.2664 -2.3162
11936TIP3   OH257222   6.372   0.790   0.874  0.6596  0.4233 -0.2128
11936TIP3    H157223   6.390   0.748   0.789  0.0237 -0.5424  0.1280
11936TIP3    H257224   6.376   0.718   0.937 -0.8095  0.8118  0.3238
11937TIP3   OH257225   0.640   5.776   1.784 -0.0607  0.0278  0.1599
11937TIP3    H157226   0.642   5.791   1.879  0.3689  0.5816  0.0654
11937TIP3    H257227   0.567   5.715   1.771 -1.1549  1.2252  0.6608
11938TIP3   OH257228   3.511   5.577   2.179 -0.2208  0.9531  0.0037
11938TIP3    H157229   3.487   5.669   2.188 -0.6938  0.6979  1.4902
11938TIP3    H257230   3.555   5.555   2.261 -0.7696 -0.3428 -0.0290
11939TIP3   OH257231   4.095   5.373  13.627  0.2214  0.1269 -0.4024
11939TIP3    H157232   4.014   5.341  13.586  1.0553 -1.7362 -0.6384
11939TIP3    H257233   4.111   5.458  13.586 -0.8586 -0.1305 -1.3738
11940TIP3   OH257234   0.997   1.813  12.776  0.3005 -0.0843  0.2855
11940TIP3    H157235   1.045   1.760  12.712 -1.1876  0.3509 -1.2414
11940TIP3    H257236   0.910   1.774  12.778  0.0618  0.4955  1.3562
11941TIP3   OH257237   6.280   2.927   0.761 -0.1135 -0.0459 -0.1876
11941TIP3    H157238   6.259   3.020   0.759  0.8693  0.1792 -0.4156
11941TIP3    H257239   6.353   2.918   0.700  0.6467 -0.7518  0.8140
11942TIP3   OH257240   4.010   4.073   3.625  0.6817  0.0354 -0.0410
11942TIP3    H157241   4.017   4.154   3.575 -1.0376  1.5341  2.0641
11942TIP3    H257242   3.917   4.063   3.642  1.2375 -0.1777  3.2116
11943TIP3   OH257243   1.965   2.391   7.016 -0.6013  0.3080 -0.8755
11943TIP3    H157244   1.934   2.480   7.030  1.7938  1.3024 -1.6944
11943TIP3    H257245   2.027   2.398   6.944  4.4305 -0.9221  3.0752
11944TIP3   OH257246   6.740   2.384   2.557  0.0424  0.6373  0.3231
11944TIP3    H157247   6.809   2.446   2.582 -0.5155  0.5878  2.0385
11944TIP3    H257248   6.765   2.302   2.600  1.6754 -0.8874 -3.2626
11945TIP3   OH257249   5.653   6.763  11.487  0.0960 -0.1873 -0.3672
11945TIP3    H157250   5.562   6.734  11.494  0.1142  0.2389  2.0016
11945TIP3    H257251   5.697   6.722  11.561  2.1011 -1.2198 -2.0739
11946TIP3   OH257252   5.548   1.768  16.255  0.1569  0.1645  0.6807
11946TIP3    H157253   5.457   1.799  16.249  0.2650  0.2694 -0.3891
11946TIP3    H257254   5.600   1.848  16.257  0.2734  0.0909  0.5558
11947TIP3   OH257255   2.797   0.857   1.436 -0.0103  0.1558 -0.2025
11947TIP3    H157256   2.709   0.824   1.416 -0.0536 -0.0069  0.2450
11947TIP3    H257257   2.787   0.952   1.436  0.3813  0.2483 -2.7310
11948TIP3   OH257258   4.578   1.568  12.787 -0.1716 -0.7935  0.4144
11948TIP3    H157259   4.486   1.586  12.805 -0.9567 -1.3622 -2.7430
11948TIP3    H257260   4.624   1.644  12.823 -1.7873 -0.7538  2.4875
11949TIP3   OH257261   5.945   2.170   2.751 -0.6483  0.2193  0.2742
11949TIP3    H157262   5.941   2.115   2.829 -1.1023  1.4133  1.1107
11949TIP3    H257263   6.025   2.144   2.706 -0.4671 -0.5851  1.0622
11950TIP3   OH257264   5.098   6.107  11.142 -0.1862 -0.3295  0.0619
11950TIP3    H157265   5.188   6.075  11.150 -0.0958 -0.2272 -0.5438
11950TIP3    H257266   5.099   6.193  11.184 -0.1943 -0.6875  0.7954
11951TIP3   OH257267   3.289   6.133  14.886  0.1625 -0.0124 -0.2411
11951TIP3    H157268   3.266   6.212  14.935  1.0759  1.6488 -2.4263
11951TIP3    H257269   3.205   6.089  14.871 -0.3547  0.5146  0.9785
11952TIP3   OH257270   5.167   0.567  11.162  0.5806 -0.1601 -0.6339
11952TIP3    H157271   5.156   0.589  11.069  0.4601  0.1365 -0.5479
11952TIP3    H257272   5.207   0.480  11.161 -1.9050 -1.3595 -0.9680
11953TIP3   OH257273   5.102   1.093   2.849  0.1831 -0.0185 -0.0981
11953TIP3    H157274   5.070   1.109   2.938 -0.2004 -0.6932 -0.1174
11953TIP3    H257275   5.054   1.156   2.795  1.9991  1.9033  0.4679
11954TIP3   OH257276   1.036   1.800  16.689  0.6309  0.7753 -0.3822
11954TIP3    H157277   1.051   1.805  16.595 -0.3444  0.1773 -0.5744
11954TIP3    H257278   1.039   1.891  16.719  0.0914  1.0324 -1.1216
11955TIP3   OH257279   6.028   1.024   5.919  0.0646  0.3773  0.1540
11955TIP3    H157280   6.066   1.101   5.961  0.6232  0.5545 -0.6547
11955TIP3    H257281   6.019   0.960   5.989  1.9576  0.3070  0.3536
11956TIP3   OH257282   5.218   4.928   0.912 -0.2510 -0.0631  0.6050
11956TIP3    H157283   5.294   4.897   0.962 -1.0423 -3.3578 -0.1107
11956TIP3    H257284   5.251   4.940   0.823 -0.1996  0.1315  0.6495
11957TIP3   OH257285   0.017   3.958  10.776 -0.5105  0.0434  0.0863
11957TIP3    H157286   0.030   4.037  10.725 -1.0017  0.3201  0.3793
11957TIP3    H257287   0.080   3.895  10.741  1.3218  1.1918  1.1933
11958TIP3   OH257288   6.127   2.849   0.235 -0.1962 -0.1170  0.3531
11958TIP3    H157289   6.069   2.778   0.209 -0.2528 -0.1881  0.6790
11958TIP3    H257290   6.119   2.854   0.330  0.0936  0.0785  0.3686
11959TIP3   OH257291   0.022   6.156   2.986  0.1407 -0.4954 -0.1461
11959TIP3    H157292  -0.031   6.092   2.940 -0.4752 -0.4853  0.5515
11959TIP3    H257293   0.091   6.105   3.028  0.7981 -0.4890 -1.1978
11960TIP3   OH257294   6.553   1.004  10.878 -0.2042  0.1522  0.4379
11960TIP3    H157295   6.513   1.091  10.870  0.2587  0.1622 -1.9263
11960TIP3    H257296   6.481   0.943  10.862 -0.8522  0.0268  3.5072
11961TIP3   OH257297   2.222   3.158   3.143  0.6472  0.2831  0.1795
11961TIP3    H157298   2.282   3.207   3.199  0.6308  1.9111 -1.1590
11961TIP3    H257299   2.235   3.196   3.056 -1.5415 -0.0682 -0.3303
11962TIP3   OH257300   1.437   2.676   0.435 -0.5684  0.2897  0.1029
11962TIP3    H157301   1.527   2.652   0.457 -0.6924  0.5189  0.8729
11962TIP3    H257302   1.430   2.659   0.341  0.9620  2.3331 -0.4321
11963TIP3   OH257303   4.312   2.936  14.489  0.1096 -0.1428 -0.4184
11963TIP3    H157304   4.343   3.012  14.538 -1.1632 -0.1623  0.4300
11963TIP3    H257305   4.383   2.871  14.498  0.9000  0.6902 -0.5812
11964TIP3   OH257306   5.657   3.149  12.357  0.2796  0.3396  0.3438
11964TIP3    H157307   5.703   3.091  12.418 -1.0725 -0.3830  0.6812
11964TIP3    H257308   5.577   3.103  12.335 -0.1059  1.4165 -0.5716
11965TIP3   OH257309   2.299   0.061   3.867 -0.2691 -0.1781 -0.7164
11965TIP3    H157310   2.391   0.043   3.885 -0.3000  2.8741  3.0996
11965TIP3    H257311   2.299   0.109   3.785  1.4364 -0.9697 -1.2006
11966TIP3   OH257312   2.754   4.940   1.415  0.4477  0.1724 -0.1360
11966TIP3    H157313   2.826   4.990   1.376  1.5725 -0.2291  1.4247
11966TIP3    H257314   2.780   4.849   1.407  0.1378  0.0277  0.4915
11967TIP3   OH257315   1.234   5.628   0.223 -0.0877  0.5348 -0.2208
11967TIP3    H157316   1.175   5.568   0.177  0.2612 -0.0636  0.1115
11967TIP3    H257317   1.306   5.573   0.253 -0.8489  0.7146  2.0012
11968TIP3   OH257318   3.094   1.529   4.040 -0.1883  0.1470 -0.1508
11968TIP3    H157319   3.108   1.455   3.981 -0.2615  1.4434 -1.8010
11968TIP3    H257320   3.181   1.569   4.049 -0.4292  0.7321 -0.4265
11969TIP3   OH257321   3.483   5.735   0.123  0.6884 -0.7958 -0.9217
11969TIP3    H157322   3.390   5.755   0.113  0.3271 -2.3449 -0.6811
11969TIP3    H257323   3.513   5.796   0.191 -0.6085 -1.6472  0.4421
11970TIP3   OH257324   5.006   6.562  14.979 -0.3506  0.2893  0.3104
11970TIP3    H157325   5.031   6.625  14.911 -0.8265 -1.0187 -1.1167
11970TIP3    H257326   5.082   6.504  14.988 -0.9903 -0.7132 -0.5288
11971TIP3   OH257327   6.264   0.422   0.180 -0.0876  0.3955  0.0599
11971TIP3    H157328   6.300   0.339   0.211 -0.3980  0.5918  0.9768
11971TIP3    H257329   6.327   0.488   0.208 -0.7913  0.6652  1.0526
11972TIP3   OH257330   0.283   4.370  15.252 -0.3510  0.3639 -0.2766
11972TIP3    H157331   0.306   4.461  15.232 -1.3183  0.5623 -0.4789
11972TIP3    H257332   0.315   4.320  15.177  0.0923  0.5457 -0.2115
11973TIP3   OH257333   6.514   4.166  16.431 -0.0108 -0.3104  0.1115
11973TIP3    H157334   6.542   4.188  16.520  0.1503  1.8759 -0.4606
11973TIP3    H257335   6.423   4.137  16.440  0.6059 -2.0188  1.2199
11974TIP3   OH257336   0.940   3.767   5.699 -0.3478  0.0254  0.2530
11974TIP3    H157337   0.874   3.822   5.657 -0.6121  0.1094  0.7719
11974TIP3    H257338   0.889   3.709   5.756  0.0856  0.5605  1.1794
11975TIP3   OH257339   0.299   1.265  14.277 -0.1127 -0.1002 -0.2265
11975TIP3    H157340   0.289   1.222  14.362 -2.3245 -1.2081 -1.0221
11975TIP3    H257341   0.313   1.357  14.299  1.4324 -0.6901  1.3978
11976TIP3   OH257342   3.539   1.060   2.624  0.8573  0.0148 -0.1747
11976TIP3    H157343   3.554   1.081   2.716 -0.1465 -2.0946  0.5009
11976TIP3    H257344   3.626   1.040   2.589  1.0424 -0.7080  0.7060
11977TIP3   OH257345   3.421   3.297   3.535 -0.5915  0.6626 -0.1843
11977TIP3    H157346   3.381   3.340   3.459  2.1322  0.7490 -1.6356
11977TIP3    H257347   3.433   3.206   3.508  0.3538  0.6807  0.1568
11978TIP3   OH257348   4.987   0.734  16.683 -0.5819 -0.0965 -0.3314
11978TIP3    H157349   4.966   0.803  16.746  0.2344  0.2988 -0.4861
11978TIP3    H257350   4.961   0.770  16.598  0.6900  0.4026 -0.5274
11979TIP3   OH257351   1.218   5.009   3.114  0.0349  0.7990  0.3030
11979TIP3    H157352   1.281   4.948   3.152 -0.2031  0.7021  0.5489
11979TIP3    H257353   1.217   4.989   3.021 -0.4363  0.0602  0.4601
11980TIP3   OH257354   0.790   3.757  15.991  0.2925 -0.1679  0.3592
11980TIP3    H157355   0.863   3.793  15.941  0.5936  0.4170  1.2019
11980TIP3    H257356   0.780   3.667  15.959  0.6136  0.1307 -0.5909
11981TIP3   OH257357   3.341   0.337   2.964  0.3814  0.0256  0.5210
11981TIP3    H157358   3.433   0.310   2.960  0.2410 -0.4423  0.4516
11981TIP3    H257359   3.328   0.388   2.884  0.7392  0.6081  0.8236
11982TIP3   OH257360   0.703   1.710   6.076 -0.7919  0.4145 -0.1388
11982TIP3    H157361   0.755   1.754   6.144  1.5950 -1.2964 -0.8329
11982TIP3    H257362   0.686   1.623   6.111 -0.8163  0.0187 -1.1314
11983TIP3   OH257363   6.744   5.172  15.571 -0.4724 -0.3963 -0.3760
11983TIP3    H157364   6.803   5.102  15.545  1.1607  0.6403  0.4548
11983TIP3    H257365   6.783   5.252  15.535  0.9732  0.8624  3.6822
11984TIP3   OH257366   2.283   6.196   3.071  0.2696  0.2597 -0.4380
11984TIP3    H157367   2.224   6.121   3.077 -1.0420  1.3304  0.5009
11984TIP3    H257368   2.314   6.210   3.160  1.4494  0.1037 -0.8191
11985TIP3   OH257369   1.203   3.967   3.700  0.7757  0.9795 -0.1848
11985TIP3    H157370   1.119   3.925   3.718  0.8384  0.3726 -1.2623
11985TIP3    H257371   1.269   3.903   3.727  0.8765  1.0562 -0.2450
11986TIP3   OH257372   3.349   6.092   5.170 -0.0011  0.6147 -0.5414
11986TIP3    H157373   3.396   6.030   5.116  1.0864  2.1778 -1.4171
11986TIP3    H257374   3.409   6.111   5.243 -0.3020  0.6991 -0.3123
11987TIP3   OH257375   5.007   3.238   1.520  0.1773 -0.2919 -0.3305
11987TIP3    H157376   4.980   3.203   1.435 -0.8409 -1.0854  0.3046
11987TIP3    H257377   4.963   3.182   1.583  2.7249 -1.1626  0.7485
11988TIP3   OH257378   5.662   1.993   5.275 -0.5180 -0.2024  0.6204
11988TIP3    H157379   5.568   2.014   5.277 -0.9398 -2.0588  1.9168
11988TIP3    H257380   5.696   2.033   5.355 -0.6019 -1.2202  1.1715
11989TIP3   OH257381   1.611   4.533  11.080  0.3624 -0.1202  0.6929
11989TIP3    H157382   1.627   4.570  11.167  0.0727  0.5418  0.4653
11989TIP3    H257383   1.615   4.608  11.021  1.3153 -0.6769  0.0335
11990TIP3   OH257384   0.349   3.561  15.354  0.1884  0.0643 -0.5123
11990TIP3    H157385   0.368   3.529  15.442 -1.9974  0.0118 -0.0419
11990TIP3    H257386   0.322   3.483  15.306 -0.2508  0.3707 -0.7625
11991TIP3   OH257387   1.079   5.620   4.081  0.5074 -0.0152 -0.4751
11991TIP3    H157388   1.078   5.605   4.176 -0.5946  0.9642 -0.3235
11991TIP3    H257389   0.990   5.651   4.061  1.7980  3.3806 -1.2385
11992TIP3   OH257390   6.367   5.972   2.403  0.1323 -0.4195  0.5078
11992TIP3    H157391   6.345   5.903   2.465  0.0193  1.1697  2.3029
11992TIP3    H257392   6.463   5.973   2.403  0.1338 -0.0235  1.1427
11993TIP3   OH257393   1.832   4.551   5.551  0.1600  0.0537  0.2059
11993TIP3    H157394   1.921   4.517   5.541 -0.5981 -0.8673 -4.2372
11993TIP3    H257395   1.838   4.643   5.525 -0.2315 -0.0363 -0.1985
11994TIP3   OH257396   4.301   3.071   3.975 -0.2149  0.6964  0.0649
11994TIP3    H157397   4.382   3.112   3.946 -0.1316  0.2369 -0.3415
11994TIP3    H257398   4.248   3.144   4.008 -0.5030  1.2990 -1.6780
11995TIP3   OH257399   2.739   6.288  16.229  0.3354 -0.2104 -0.2927
11995TIP3    H157400   2.769   6.218  16.287 -0.8967  0.9958  1.8450
11995TIP3    H257401   2.766   6.369  16.273  0.8091  0.7098 -2.2095
11996TIP3   OH257402   4.665   1.531   3.125  0.6743 -0.1544  0.5258
11996TIP3    H157403   4.649   1.610   3.177  1.8764 -0.9315  2.1257
11996TIP3    H257404   4.656   1.559   3.034 -2.1911  1.0811  1.1502
11997TIP3   OH257405   6.730   1.096  16.646  0.1067 -0.4563  0.0767
11997TIP3    H157406   6.698   1.006  16.650  0.1314 -0.4571  0.2740
11997TIP3    H257407   6.657   1.146  16.610  0.6528 -0.8150 -1.5545
11998TIP3   OH257408   3.708   6.257   5.434 -0.2364 -0.4357 -0.3101
11998TIP3    H157409   3.616   6.285   5.430  0.5536  2.0768 -1.4441
11998TIP3    H257410   3.752   6.310   5.368  1.5643 -3.5928 -1.7848
11999TIP3   OH257411   6.458   5.945  16.627  0.4669  0.1949 -0.0551
11999TIP3    H157412   6.548   5.975  16.614 -0.3238  1.7690 -1.9056
11999TIP3    H257413   6.439   5.966  16.719  0.8539  2.8933 -0.5691
12000TIP3   OH257414   2.277   1.470  13.481 -0.4183  0.1455 -0.3331
12000TIP3    H157415   2.259   1.418  13.559  1.6816 -0.8380 -0.4865
12000TIP3    H257416   2.372   1.473  13.475 -0.5451  0.4767 -2.6848
12001TIP3   OH257417   1.366   1.776   0.870 -0.2342 -0.2311  0.0357
12001TIP3    H157418   1.338   1.866   0.856 -0.5517 -0.4208 -0.5608
12001TIP3    H257419   1.459   1.776   0.847 -0.7102 -0.5119 -2.0327
12002TIP3   OH257420   2.232   1.759  14.011  0.3274  0.2323 -0.3405
12002TIP3    H157421   2.247   1.770  14.104  1.5605 -1.1324 -0.3727
12002TIP3    H257422   2.136   1.762  14.002  0.1828 -0.1009  1.0177
12003TIP3   OH257423   2.663   1.230  14.737  0.5423 -0.4319 -0.3332
12003TIP3    H157424   2.630   1.147  14.773  2.4779 -1.5965 -1.1547
12003TIP3    H257425   2.758   1.222  14.742  0.8207  0.4814 -3.2350
12004TIP3   OH257426   1.721   2.744   3.744  0.5589 -0.5229 -0.0279
12004TIP3    H157427   1.783   2.713   3.811 -1.3930 -0.5167  1.8114
12004TIP3    H257428   1.730   2.839   3.745  0.1783 -0.4946  0.5634
12005TIP3   OH257429   1.670   2.840   2.903 -0.5310  0.0903  0.1563
12005TIP3    H157430   1.655   2.746   2.914 -0.4515  0.2473  1.5726
12005TIP3    H257431   1.655   2.878   2.989  1.5072  1.1201  0.0898
12006TIP3   OH257432   0.392   0.685  11.723 -0.6100 -0.0912  0.1658
12006TIP3    H157433   0.436   0.623  11.664 -1.5410 -0.7700  0.1731
12006TIP3    H257434   0.438   0.768  11.708  0.6105 -0.7542  0.1069
12007TIP3   OH257435   5.108   0.064   1.602  0.4481 -0.4262  0.0537
12007TIP3    H157436   5.173  -0.005   1.616  0.2076 -0.5677  0.4726
12007TIP3    H257437   5.082   0.091   1.690 -0.9428 -1.2063 -0.1017
12008TIP3   OH257438   1.161   1.445  12.699  0.8589  0.1015  0.4438
12008TIP3    H157439   1.154   1.397  12.617 -0.2590  2.6090 -0.9720
12008TIP3    H257440   1.246   1.489  12.694  1.6957 -1.2948  1.5642
12009TIP3   OH257441   1.575   1.403  13.839  0.0871 -0.0466  0.4156
12009TIP3    H157442   1.581   1.467  13.769 -0.3815 -0.8800 -0.4098
12009TIP3    H257443   1.493   1.356  13.822  0.2883 -0.6906  1.1485
12010TIP3   OH257444   5.427   0.255   6.078 -0.1041 -0.3149 -0.0645
12010TIP3    H157445   5.441   0.267   6.172 -3.3385  1.9978  0.2285
12010TIP3    H257446   5.475   0.175   6.056  0.8695 -0.7881  3.5119
12011TIP3   OH257447   0.213   4.727   0.428  0.4723  0.2754 -0.2869
12011TIP3    H157448   0.226   4.781   0.506 -1.5479 -1.1326  1.0829
12011TIP3    H257449   0.247   4.641   0.452 -0.7344 -0.3343 -0.7002
12012TIP3   OH257450   4.378   6.188   1.467  0.0363 -0.0916 -0.0279
12012TIP3    H157451   4.427   6.248   1.524  1.3181 -1.0228 -0.1149
12012TIP3    H257452   4.352   6.242   1.393  1.0642  0.4099 -0.0442
12013TIP3   OH257453   4.271   3.722  15.425 -0.5722  0.3446  0.2445
12013TIP3    H157454   4.245   3.786  15.358  0.2409 -1.0691 -1.4857
12013TIP3    H257455   4.358   3.693  15.397 -1.0428 -1.7161  0.8199
12014TIP3   OH257456   2.732   0.186   6.690  0.1149  0.0442  0.2678
12014TIP3    H157457   2.697   0.246   6.625  0.1095 -0.8708 -0.5890
12014TIP3    H257458   2.826   0.185   6.675  0.0450 -0.6513 -0.1519
12015TIP3   OH257459   1.155   0.664   0.160 -0.2688  0.1231 -1.3688
12015TIP3    H157460   1.143   0.660   0.255 -1.7593 -0.8851 -1.5853
12015TIP3    H257461   1.180   0.755   0.143 -2.0261  0.8505 -0.2122
12016TIP3   OH257462   1.411   2.326  12.238 -0.1942 -0.1052  0.1239
12016TIP3    H157463   1.370   2.400  12.194  1.7162 -0.2301 -1.8986
12016TIP3    H257464   1.489   2.362  12.280  0.1098 -0.7386  0.1183
12017TIP3   OH257465   2.628   6.762   5.377  0.6189 -0.0089 -0.2744
12017TIP3    H157466   2.657   6.846   5.413 -0.3452 -0.1772  0.9387
12017TIP3    H257467   2.708   6.719   5.348  1.1412  1.2310 -0.6847
12018TIP3   OH257468   4.488   5.823  16.589  0.2157 -0.0106 -0.1052
12018TIP3    H157469   4.575   5.859  16.602 -0.6823  1.8725  0.9500
12018TIP3    H257470   4.466   5.844  16.498  1.5017 -1.9937 -0.9049
12019TIP3   OH257471   6.690   2.230   5.198 -0.4020 -0.2855 -0.7990
12019TIP3    H157472   6.692   2.150   5.147  1.1361 -2.3425  2.3708
12019TIP3    H257473   6.753   2.288   5.155 -0.5419 -1.2612 -2.3340
12020TIP3   OH257474   5.066   4.876   1.447 -0.4859  0.2749 -0.5817
12020TIP3    H157475   5.045   4.783   1.454  1.4970 -0.0899  0.7042
12020TIP3    H257476   5.049   4.897   1.355 -1.1196 -1.2979 -0.8364
12021TIP3   OH257477   2.952   2.993  15.785  0.2583  0.3957 -0.2022
12021TIP3    H157478   2.941   3.028  15.696 -0.5606  1.1042  0.1746
12021TIP3    H257479   2.982   3.068  15.836 -1.4941  0.5642  0.6065
12022TIP3   OH257480   2.308   0.603  12.592  0.1781 -0.1099 -0.1952
12022TIP3    H157481   2.340   0.582  12.679  1.1949  1.5158 -0.1617
12022TIP3    H257482   2.376   0.571  12.532  0.4232  0.5720 -0.2841
12023TIP3   OH257483   2.728   1.793   1.035  0.2005 -0.1177 -0.2641
12023TIP3    H157484   2.708   1.806   0.942 -0.8834  1.0001  0.1082
12023TIP3    H257485   2.677   1.715   1.060 -1.6384  1.1449  0.0231
12024TIP3   OH257486   6.734   3.715  14.884  0.2491  0.1790  0.1618
12024TIP3    H157487   6.806   3.653  14.897  0.2790  0.4158  1.2291
12024TIP3    H257488   6.655   3.662  14.895  0.2716  0.1349  0.1095
12025TIP3   OH257489   5.467   5.651   3.389 -0.4084 -0.0444 -0.9625
12025TIP3    H157490   5.544   5.702   3.417 -0.0654 -0.4236 -1.2062
12025TIP3    H257491   5.481   5.565   3.427 -1.0857  0.0976 -0.3919
12026TIP3   OH257492   0.894   0.331   4.131  0.4279 -0.4096 -0.1253
12026TIP3    H157493   0.906   0.251   4.182 -3.4665 -0.3734  0.9857
12026TIP3    H257494   0.871   0.398   4.196 -0.4926  0.6125 -1.4809
12027TIP3   OH257495   5.299   4.176   0.300  0.0426  0.8196  0.4468
12027TIP3    H157496   5.325   4.090   0.333  1.2238  2.0483  2.8273
12027TIP3    H257497   5.334   4.179   0.211 -0.5092 -1.3702  0.1267
12028TIP3   OH257498   0.351   1.355  17.232 -0.0129 -0.0689  0.0588
12028TIP3    H157499   0.338   1.446  17.207 -0.9929 -0.5684 -1.3123
12028TIP3    H257500   0.305   1.305  17.164  0.8351 -1.5858  0.5861
12029TIP3   OH257501   0.718   1.621   2.226 -0.1816 -0.3397 -1.0124
12029TIP3    H157502   0.636   1.670   2.234 -0.3198 -0.3744 -2.2014
12029TIP3    H257503   0.695   1.531   2.251 -0.1555 -0.0330  0.1555
12030TIP3   OH257504   4.572   4.239  16.476 -0.2360  0.0743 -0.1401
12030TIP3    H157505   4.645   4.198  16.521  1.3870 -0.1919 -2.9291
12030TIP3    H257506   4.540   4.305  16.537  2.0941 -0.0672  1.2681
12031TIP3   OH257507   3.100   1.872  12.336  0.7151  0.0842 -0.8731
12031TIP3    H157508   3.071   1.817  12.409 -2.2430  0.5007 -1.6831
12031TIP3    H257509   3.097   1.961  12.371  3.5294 -0.0302 -0.2040
12032TIP3   OH257510   2.959   6.554   0.834 -0.3481  0.0583 -0.3030
12032TIP3    H157511   2.930   6.506   0.756 -1.8666  1.2381 -0.4881
12032TIP3    H257512   2.925   6.502   0.907 -0.5437 -0.0402 -0.4634
12033TIP3   OH257513   0.283   0.350  13.030 -0.0510 -0.7477  0.7327
12033TIP3    H157514   0.242   0.272  13.067  0.5371 -0.1795  2.6754
12033TIP3    H257515   0.224   0.378  12.961 -0.1790 -2.9977 -0.1097
12034TIP3   OH257516   0.588   6.578   2.281 -0.1194 -0.7885  0.4445
12034TIP3    H157517   0.598   6.672   2.294 -0.3991 -0.5095 -1.3094
12034TIP3    H257518   0.535   6.549   2.355  0.9169  0.2327  1.6058
12035TIP3   OH257519   4.425   6.366  14.953  0.5592  0.1471  0.0344
12035TIP3    H157520   4.348   6.370  15.010 -0.8610 -0.1850 -1.8238
12035TIP3    H257521   4.494   6.409  15.003 -1.3255  2.1862  0.9637
12036TIP3   OH257522   0.881   4.858  10.316  0.3860 -0.3264 -0.1450
12036TIP3    H157523   0.833   4.780  10.287 -2.2201  0.5445  1.5711
12036TIP3    H257524   0.815   4.928  10.315  2.5021  1.7536 -1.0188
12037TIP3   OH257525   5.569   5.135   1.517  0.2222 -0.5025 -0.2564
12037TIP3    H157526   5.654   5.094   1.504  0.6998  0.3687  0.0751
12037TIP3    H257527   5.574   5.216   1.466  0.7783  1.1536  2.3291
12038TIP3   OH257528   0.698   1.921  14.662 -0.1428  0.2003 -0.6382
12038TIP3    H157529   0.705   1.886  14.751  0.6813 -0.4738 -0.9538
12038TIP3    H257530   0.615   1.886  14.629 -0.8634  1.1413  0.1555
12039TIP3   OH257531   5.232   0.529   1.771  0.4732 -0.3045 -0.3935
12039TIP3    H157532   5.255   0.460   1.833 -0.0997  0.1215  0.3119
12039TIP3    H257533   5.309   0.586   1.768  1.0645 -1.1391 -1.2194
12040TIP3   OH257534   6.459   5.123   1.151  0.1567  0.3595  0.1561
12040TIP3    H157535   6.443   5.030   1.169 -0.8402  0.2875 -1.0126
12040TIP3    H257536   6.506   5.155   1.227  0.5538 -1.1309  0.5487
12041TIP3   OH257537   6.291   1.524   4.025  0.5752 -0.5803 -0.4837
12041TIP3    H157538   6.231   1.498   4.094  0.9685 -0.3875 -0.0618
12041TIP3    H257539   6.293   1.450   3.965 -1.8360  0.3176 -1.7095
12042TIP3   OH257540   1.101   4.958   0.237 -0.5049  0.3236  0.5489
12042TIP3    H157541   1.015   4.943   0.277 -1.0747  1.4410 -0.2422
12042TIP3    H257542   1.152   4.881   0.261 -1.6658 -0.2593  1.1910
12043TIP3   OH257543   2.493   2.964   1.180  0.2548  0.1476 -0.0661
12043TIP3    H157544   2.490   2.918   1.096  0.8229  0.5415 -0.3027
12043TIP3    H257545   2.430   3.035   1.171 -1.6476 -1.3777  0.7835
12044TIP3   OH257546   4.000   1.392   6.028  0.0866  0.4322  0.0078
12044TIP3    H157547   3.951   1.442   6.093  0.6368  0.3521  0.4959
12044TIP3    H257548   4.055   1.334   6.080 -0.9681 -1.0979 -0.5629
12045TIP3   OH257549   4.041   5.050   1.371 -0.2275 -0.0606  0.3924
12045TIP3    H157550   3.952   5.066   1.402  0.1437 -1.2167  2.1495
12045TIP3    H257551   4.029   5.012   1.283 -1.4033  0.8915  0.1284
12046TIP3   OH257552   0.357   3.756  14.597  0.7057  0.5952  0.0515
12046TIP3    H157553   0.357   3.661  14.603 -0.3440  0.7486  2.9263
12046TIP3    H257554   0.266   3.782  14.611  1.3463  2.1425  1.4998
12047TIP3   OH257555   5.045   0.058   5.317 -0.0775 -0.3913 -0.5885
12047TIP3    H157556   4.985   0.027   5.384  0.1450  0.6986  0.1151
12047TIP3    H257557   5.132   0.034   5.350  0.1597  1.7016  0.3601
12048TIP3   OH257558   4.593   4.499  13.375  0.1430 -0.0242 -0.1617
12048TIP3    H157559   4.666   4.439  13.356 -0.4604 -0.5471 -0.8707
12048TIP3    H257560   4.556   4.519  13.289  0.6324  1.7561  0.0152
12049TIP3   OH257561   4.401   1.955   3.221 -0.1546 -0.1498  0.6353
12049TIP3    H157562   4.446   1.894   3.164  0.4687 -0.3474  1.3237
12049TIP3    H257563   4.451   1.953   3.303  0.6117  2.1942  0.2611
12050TIP3   OH257564   1.312   3.877   1.652 -0.2309 -0.4844  0.6413
12050TIP3    H157565   1.346   3.852   1.738  0.6040 -1.2036  0.1144
12050TIP3    H257566   1.330   3.801   1.596 -0.0560  0.2726 -0.3449
12051TIP3   OH257567   4.569   5.710  12.245  0.3499 -0.1629  0.0922
12051TIP3    H157568   4.652   5.678  12.280  0.1898  0.7147  1.3003
12051TIP3    H257569   4.511   5.634  12.248  0.8278 -0.5284  0.1473
12052TIP3   OH257570   0.471   2.365   3.791  0.4788  0.1275  0.1393
12052TIP3    H157571   0.488   2.332   3.703  0.4094 -1.6224  0.7602
12052TIP3    H257572   0.517   2.448   3.795  0.6598  0.1208 -1.4811
12053TIP3   OH257573   6.545   0.573  16.744  0.1463  0.6316  0.2258
12053TIP3    H157574   6.472   0.561  16.683 -0.7280 -0.8763  1.5216
12053TIP3    H257575   6.605   0.501  16.724  0.5799  1.0289  0.1181
12054TIP3   OH257576   3.853   4.999   4.459 -0.8730 -0.0227 -0.3300
12054TIP3    H157577   3.846   4.912   4.497  1.6138 -0.2659 -0.3561
12054TIP3    H257578   3.838   5.059   4.532  1.7796 -0.4944  0.6548
12055TIP3   OH257579   2.266   0.806   5.326 -0.3449  0.2972 -0.2465
12055TIP3    H157580   2.229   0.884   5.286 -0.2344  0.9781  0.9482
12055TIP3    H257581   2.219   0.733   5.284 -0.9759  1.0309 -0.8307
12056TIP3   OH257582   3.927   0.055  14.557  0.2125  0.0014  0.3731
12056TIP3    H157583   3.993   0.084  14.620 -0.1388 -1.0792  1.2572
12056TIP3    H257584   3.885   0.135  14.527  2.9978  0.8907 -1.4550
12057TIP3   OH257585   3.087   2.256  13.141 -0.0935 -0.0600 -0.0290
12057TIP3    H157586   3.080   2.241  13.235 -0.9517  0.5038  0.0004
12057TIP3    H257587   3.158   2.198  13.113 -1.7529 -2.4055  0.4826
12058TIP3   OH257588   4.399   3.111   5.230  0.0685 -0.2685 -0.0768
12058TIP3    H157589   4.410   3.029   5.278 -0.9106  0.6784  1.7923
12058TIP3    H257590   4.316   3.100   5.183  0.5839 -0.8424 -0.8700
12059TIP3   OH257591   5.547   6.160  15.958 -0.1579 -0.2817 -0.3148
12059TIP3    H157592   5.638   6.160  15.987 -0.0360  0.0356 -0.6831
12059TIP3    H257593   5.532   6.249  15.925  0.0181 -0.9004 -2.1272
12060TIP3   OH257594   2.766   3.906   5.372  0.2378  0.5761 -0.2249
12060TIP3    H157595   2.734   3.951   5.294 -0.9655  0.0629 -0.0342
12060TIP3    H257596   2.795   3.820   5.342 -0.4037  0.3072 -0.0758
12061TIP3   OH257597   5.445   6.678   0.935 -0.3996  0.0937 -0.2242
12061TIP3    H157598   5.393   6.598   0.935 -1.2039  0.5841  1.5500
12061TIP3    H257599   5.389   6.743   0.895 -0.6498  0.3008  0.4473
12062TIP3   OH257600   1.193   4.084  16.495  0.1250  0.5619 -0.2619
12062TIP3    H157601   1.198   4.173  16.529  0.3866  0.6158 -0.4467
12062TIP3    H257602   1.266   4.038  16.536 -0.0752  0.4006 -0.0803
12063TIP3   OH257603   3.763   0.375   2.578 -0.0610 -0.0456 -0.1915
12063TIP3    H157604   3.842   0.412   2.538 -0.3729  0.2213 -0.5769
12063TIP3    H257605   3.766   0.406   2.669  0.4391 -0.3054 -0.1162
12064TIP3   OH257606   4.177   4.926  13.170 -0.4915 -0.2541  0.4245
12064TIP3    H157607   4.228   4.886  13.099  3.2069  1.3108  2.1066
12064TIP3    H257608   4.086   4.915  13.142  0.5373 -5.3448 -1.5497
12065TIP3   OH257609   5.615   0.268   4.571  0.4999 -0.2636 -0.2054
12065TIP3    H157610   5.566   0.318   4.506 -0.1534 -2.2435 -1.2951
12065TIP3    H257611   5.554   0.198   4.598  1.2018 -0.1962  1.6200
12066TIP3   OH257612   3.993   3.382   0.448  0.0503  0.2101  0.7087
12066TIP3    H157613   3.929   3.341   0.506  1.7582  0.2833  2.7058
12066TIP3    H257614   4.041   3.309   0.410  0.3396  0.2216  1.0481
12067TIP3   OH257615   0.813   0.995   3.388 -0.5696 -0.3485  0.0833
12067TIP3    H157616   0.887   1.001   3.447 -1.0227 -1.0927  0.7239
12067TIP3    H257617   0.852   0.980   3.302  0.0420 -0.1764  0.3287
12068TIP3   OH257618   6.698   4.966   2.180  0.0903  0.2910 -0.8368
12068TIP3    H157619   6.746   5.049   2.184  0.0043  0.3505 -1.0335
12068TIP3    H257620   6.640   4.968   2.255  1.6283 -0.5406  0.4100
12069TIP3   OH257621   2.840   4.423   4.855  0.3492  0.7477  0.6189
12069TIP3    H157622   2.827   4.495   4.917  3.0874  0.8417  1.1500
12069TIP3    H257623   2.881   4.463   4.779  0.5839  0.0075  0.3457
12070TIP3   OH257624   1.432   5.028  14.655  0.2963 -0.0084 -0.6069
12070TIP3    H157625   1.511   5.049  14.605  0.4071 -1.7050 -1.1598
12070TIP3    H257626   1.453   5.057  14.744  1.4926 -0.3237 -0.7732
12071TIP3   OH257627   1.738   0.419  12.477 -0.1952  0.0080  0.5444
12071TIP3    H157628   1.831   0.396  12.472 -0.4202 -0.4441 -2.9323
12071TIP3    H257629   1.726   0.485  12.409 -2.8182 -1.5259 -0.5809
12072TIP3   OH257630   5.811   6.655  14.823  0.2186 -0.4953 -0.7600
12072TIP3    H157631   5.815   6.610  14.738 -0.9683  1.9574 -2.1778
12072TIP3    H257632   5.799   6.747  14.800 -0.6289  0.1447  2.1067
12073TIP3   OH257633   5.544   5.358  12.027  0.3323 -0.3842 -0.0102
12073TIP3    H157634   5.571   5.306  12.102 -0.5230  0.8014  1.1384
12073TIP3    H257635   5.626   5.397  11.994  0.5731  0.0078  1.0168
12074TIP3   OH257636   1.329   4.337  16.086 -0.0202 -0.6165 -0.3872
12074TIP3    H157637   1.322   4.254  16.133 -0.7138 -0.1478  0.3384
12074TIP3    H257638   1.416   4.334  16.046  0.8906 -0.7118  1.5391
12075TIP3   OH257639   1.712   2.786  11.099 -0.0582 -0.1991  0.5470
12075TIP3    H157640   1.645   2.853  11.116 -0.0824  0.1078 -0.7150
12075TIP3    H257641   1.693   2.717  11.162 -0.9791  0.3044  0.8395
12076TIP3   OH257642   4.190   1.998  12.821 -0.5115  0.6131  0.3853
12076TIP3    H157643   4.106   2.000  12.865  0.5859  1.7938  2.5214
12076TIP3    H257644   4.219   1.906  12.827 -1.5049  0.2636 -0.1273
12077TIP3   OH257645   6.238   2.849   3.005  0.4416 -0.4734  0.2125
12077TIP3    H157646   6.328   2.882   3.018  0.5186 -0.0586 -1.2701
12077TIP3    H257647   6.248   2.779   2.941 -0.4185  0.2765 -0.7573
12078TIP3   OH257648   4.930   5.159  10.934 -0.0340 -0.4617  0.2348
12078TIP3    H157649   4.912   5.073  10.971 -2.8880  0.6619  1.5695
12078TIP3    H257650   4.873   5.165  10.857  0.4531  0.0678 -0.0946
12079TIP3   OH257651   0.415   4.842  14.319 -0.3414  0.1163  0.5781
12079TIP3    H157652   0.437   4.851  14.226  0.6280  0.1493  0.8138
12079TIP3    H257653   0.451   4.920  14.360 -0.2773 -0.1805  1.0775
12080TIP3   OH257654   0.929   2.141   3.081  0.4013  0.2752 -0.3880
12080TIP3    H157655   0.887   2.179   3.158  1.1086 -0.6699  0.4837
12080TIP3    H257656   0.995   2.081   3.117 -0.7089 -1.8018 -1.7085
12081TIP3   OH257657   5.817   0.992  11.621  0.1965 -0.1580  0.3459
12081TIP3    H157658   5.862   1.056  11.677 -0.1421 -0.3463  0.8302
12081TIP3    H257659   5.871   0.988  11.542 -0.2679  1.4105 -0.0700
12082TIP3   OH257660   1.221   3.623  16.323  0.1659  0.0622  0.2233
12082TIP3    H157661   1.250   3.532  16.316  0.7591  0.2676 -0.0262
12082TIP3    H257662   1.298   3.670  16.352  0.0849  0.6156 -0.4484
12083TIP3   OH257663   0.194   6.393  13.131 -0.2337 -0.0394  0.2074
12083TIP3    H157664   0.098   6.399  13.133 -0.1109  3.2143 -0.7663
12083TIP3    H257665   0.214   6.363  13.042 -0.2984  0.4175  0.0389
12084TIP3   OH257666   0.944   3.062  13.973  0.1615 -0.0258 -0.1189
12084TIP3    H157667   1.023   3.039  14.021  0.5589 -0.0916 -0.7918
12084TIP3    H257668   0.939   2.998  13.902 -0.0595  0.4683 -0.5505
12085TIP3   OH257669   1.149   1.232  11.507  0.0544 -0.4975 -0.5661
12085TIP3    H157670   1.164   1.170  11.579 -2.9202 -1.2979 -0.5903
12085TIP3    H257671   1.157   1.179  11.428  0.7390 -0.1577 -0.7270
12086TIP3   OH257672   4.947   5.103   1.257 -0.5177  0.0821  0.0501
12086TIP3    H157673   4.920   5.155   1.181 -1.6768 -1.2901 -0.5114
12086TIP3    H257674   5.032   5.138   1.282 -2.3218  3.8593  1.2070
12087TIP3   OH257675   3.571   1.534  15.518 -0.1320  0.1262  0.1739
12087TIP3    H157676   3.554   1.441  15.500 -0.8429  0.6131 -1.7756
12087TIP3    H257677   3.589   1.572  15.432  0.5719  1.7214  1.0172
12088TIP3   OH257678   3.988   5.000  12.649  0.0736  0.2913 -0.0272
12088TIP3    H157679   4.022   4.919  12.613 -0.9860  1.0241 -2.8278
12088TIP3    H257680   3.918   4.973  12.709  2.4747 -0.9926  2.2381
12089TIP3   OH257681   5.860   6.586   1.322 -0.5442  0.1989 -0.3056
12089TIP3    H157682   5.896   6.508   1.280  2.2921  0.7992  0.8792
12089TIP3    H257683   5.784   6.609   1.269  0.6934 -1.2644 -2.8219
12090TIP3   OH257684   1.309   3.388   2.755 -0.0184 -0.4681  0.6672
12090TIP3    H157685   1.324   3.303   2.797 -1.4103 -0.7307  0.6616
12090TIP3    H257686   1.360   3.384   2.674 -0.0546 -1.3052  0.6747
12091TIP3   OH257687   6.641   0.854  13.423 -0.0624 -0.2382 -0.0670
12091TIP3    H157688   6.663   0.784  13.362  2.7411 -0.0267  0.6287
12091TIP3    H257689   6.716   0.914  13.419 -2.0305  2.2981 -0.0367
12092TIP3   OH257690   5.220   0.433   1.514 -0.1171 -0.0045  0.4325
12092TIP3    H157691   5.222   0.466   1.604 -1.3491 -0.6153  0.6898
12092TIP3    H257692   5.151   0.366   1.514  0.0121 -0.1566 -0.9194
12093TIP3   OH257693   6.692   4.230   5.911 -0.2529  0.1874 -0.0001
12093TIP3    H157694   6.602   4.259   5.896 -0.3682 -0.5669 -0.8078
12093TIP3    H257695   6.746   4.305   5.886 -0.6148  0.2860 -0.4838
12094TIP3   OH257696   1.211   6.585  15.719 -0.7121  0.4348 -0.2306
12094TIP3    H157697   1.268   6.511  15.697  0.0799  0.9569  0.0233
12094TIP3    H257698   1.226   6.600  15.812  0.9897  2.4301 -0.7729
12095TIP3   OH257699   3.881   4.362  13.730  0.2044 -0.1683  0.1441
12095TIP3    H157700   3.955   4.422  13.742 -1.0018  1.1010  1.4795
12095TIP3    H257701   3.820   4.386  13.800 -1.7340 -0.7928 -1.3112
12096TIP3   OH257702   2.410   0.057   4.233  0.1328  0.1767 -0.4302
12096TIP3    H157703   2.473   0.066   4.162  1.3027 -1.8928  0.2721
12096TIP3    H257704   2.425   0.134   4.288  2.3965 -0.4988 -0.0404
12097TIP3   OH257705   4.543   3.041  14.034 -0.2234  0.1004 -0.0835
12097TIP3    H157706   4.587   3.079  13.958 -0.6340 -0.5905 -0.6665
12097TIP3    H257707   4.615   3.016  14.093  0.1328 -0.1741 -0.6302
12098TIP3   OH257708   0.285   1.993   3.424 -0.6433 -0.1042  0.1812
12098TIP3    H157709   0.380   1.995   3.439 -0.7653  2.3888  0.7399
12098TIP3    H257710   0.277   1.966   3.332  0.6776  1.6547 -0.4799
12099TIP3   OH257711   5.410   5.025   6.085  0.2664 -0.3251 -0.3482
12099TIP3    H157712   5.346   4.962   6.051  0.7155 -0.8526 -0.2127
12099TIP3    H257713   5.448   4.982   6.161  0.9629 -0.1035 -0.5676
12100TIP3   OH257714   3.283   2.180  12.211  0.0378  0.2390  0.6545
12100TIP3    H157715   3.255   2.239  12.281  2.3133  1.1525  0.8238
12100TIP3    H257716   3.336   2.114  12.255  0.9461  0.4520 -0.1061
12101TIP3   OH257717   5.501   3.944   5.468  0.2582 -0.1110  0.0200
12101TIP3    H157718   5.533   3.914   5.383  1.5455 -1.2632  0.8812
12101TIP3    H257719   5.552   4.023   5.487 -0.6257  0.6232 -0.6546
12102TIP3   OH257720   5.445   6.174   2.348 -0.1276  0.6873  0.0718
12102TIP3    H157721   5.472   6.129   2.428  0.8747  0.6561 -0.2837
12102TIP3    H257722   5.376   6.234   2.377  0.8402  1.3227  1.1222
12103TIP3   OH257723   1.729   4.770  16.473 -0.1351  0.2486  1.0679
12103TIP3    H157724   1.781   4.721  16.410  0.5993  1.1187  0.9789
12103TIP3    H257725   1.794   4.819  16.524 -0.7058 -0.5279  2.5590
12104TIP3   OH257726   5.992   6.021  13.155 -0.6418 -0.4400  0.2382
12104TIP3    H157727   6.006   5.929  13.131  0.9009  0.1804 -1.3637
12104TIP3    H257728   5.952   6.060  13.077  0.5404  0.6905  0.1895
12105TIP3   OH257729   3.724   3.203   4.159  0.3540  0.0165  0.2953
12105TIP3    H157730   3.712   3.259   4.082  1.2823  0.3918  0.4139
12105TIP3    H257731   3.800   3.149   4.138 -0.8789 -1.6177 -0.0507
12106TIP3   OH257732   1.277   2.504   0.237  0.5843 -0.1737 -0.2710
12106TIP3    H157733   1.313   2.434   0.293  0.6905  0.2999  0.2549
12106TIP3    H257734   1.195   2.528   0.279  0.2087 -0.4607 -0.8425
12107TIP3   OH257735   6.416   5.396  14.077 -0.1377  0.4468  0.0356
12107TIP3    H157736   6.477   5.462  14.042 -0.2115  0.0945 -0.7703
12107TIP3    H257737   6.332   5.418  14.036 -0.5249  0.8394  1.0307
12108TIP3   OH257738   3.366   0.699  14.220 -0.2114 -0.2068  0.6358
12108TIP3    H157739   3.374   0.733  14.309 -0.9001 -0.8108  0.9331
12108TIP3    H257740   3.302   0.628  14.227 -0.5205 -0.0343 -0.4005
12109TIP3   OH257741   0.028   5.484  13.714 -0.5790  0.1086  0.0623
12109TIP3    H157742  -0.030   5.519  13.647 -0.8267 -0.7464 -0.1692
12109TIP3    H257743   0.105   5.542  13.712 -0.7738  0.3436 -0.6476
12110TIP3   OH257744   6.281   1.009  11.042  0.3311  0.1347  0.1017
12110TIP3    H157745   6.249   1.020  10.952 -1.9789  2.0283  1.1239
12110TIP3    H257746   6.272   0.915  11.059 -0.9000  0.0281 -1.0431
12111TIP3   OH257747   1.330   3.965  16.717 -0.3436 -0.1424 -0.7701
12111TIP3    H157748   1.375   3.900  16.771 -0.1074  0.4517 -0.2387
12111TIP3    H257749   1.323   4.042  16.774  1.3074  1.0356 -2.0851
12112TIP3   OH257750   0.696   0.696  10.958  0.6643  0.1308  0.1904
12112TIP3    H157751   0.669   0.604  10.957 -0.9832  0.6017 -0.0611
12112TIP3    H257752   0.787   0.695  10.928 -0.2024 -1.1383 -2.5104
12113TIP3   OH257753   3.810   2.357   3.442  0.1082  0.1318  0.7133
12113TIP3    H157754   3.780   2.447   3.428 -2.9908 -1.2192 -2.0308
12113TIP3    H257755   3.741   2.317   3.495 -0.1962 -1.4794 -0.8443
12114TIP3   OH257756   0.573   1.523  11.263 -0.0961 -0.5016 -0.3966
12114TIP3    H157757   0.529   1.459  11.207  0.8167 -0.2031 -1.4706
12114TIP3    H257758   0.657   1.540  11.220  1.0801 -1.0329  1.5843
12115TIP3   OH257759   5.502   1.876   4.486  0.1518 -0.0011  0.2458
12115TIP3    H157760   5.463   1.873   4.574 -0.4528 -0.5901 -0.0341
12115TIP3    H257761   5.516   1.969   4.469  0.7839  0.0838  1.1856
12116TIP3   OH257762   2.076   2.417   3.242 -0.1063  0.7230  0.4597
12116TIP3    H157763   2.102   2.461   3.161 -1.5456  1.6510  0.4615
12116TIP3    H257764   2.016   2.349   3.213  0.1247  0.4352  0.6663
12117TIP3   OH257765   1.316   5.186   6.391  0.1507  0.2805  0.1222
12117TIP3    H157766   1.337   5.278   6.375  0.0441  0.2700 -0.0787
12117TIP3    H257767   1.343   5.171   6.481  1.9266  0.0122 -0.4355
12118TIP3   OH257768   0.481   6.460  12.222 -0.4277  0.1335 -0.3353
12118TIP3    H157769   0.411   6.398  12.239 -0.5172 -0.2081 -1.9096
12118TIP3    H257770   0.550   6.408  12.181  0.7415  0.4803  1.1203
12119TIP3   OH257771   3.394   6.124  13.225  0.1151 -0.0086 -0.1270
12119TIP3    H157772   3.472   6.120  13.170  0.5466  3.3874  0.0803
12119TIP3    H257773   3.425   6.161  13.307 -1.3569 -0.6006  0.7030
12120TIP3   OH257774   3.756   5.502   5.725  0.2434 -0.5348 -0.1314
12120TIP3    H157775   3.727   5.588   5.693  2.2851  0.5300  0.7978
12120TIP3    H257776   3.743   5.443   5.650 -0.2587  0.7747 -1.1006
12121TIP3   OH257777   4.342   6.188   0.939  0.1713 -0.1039  0.0421
12121TIP3    H157778   4.283   6.209   0.867 -0.8453  0.5299  1.0332
12121TIP3    H257779   4.283   6.173   1.014  1.2561  0.6407  1.0707
12122TIP3   OH257780   0.838   3.790  13.304 -0.6479 -0.0491  0.1271
12122TIP3    H157781   0.892   3.850  13.355 -0.3808  0.0639 -0.2823
12122TIP3    H257782   0.812   3.722  13.366 -0.2723  0.0525  0.3983
12123TIP3   OH257783   1.632   0.757   1.073  0.6492 -0.0574  0.2079
12123TIP3    H157784   1.577   0.722   1.143  0.7473 -0.4820  0.0704
12123TIP3    H257785   1.607   0.708   0.995  0.2419  0.7130 -0.1457
12124TIP3   OH257786   1.694   4.804   5.348  0.4308 -0.6417  0.6670
12124TIP3    H157787   1.717   4.758   5.267  2.2029  0.6821  0.3926
12124TIP3    H257788   1.778   4.825   5.389 -0.4301 -1.0664  2.7434
12125TIP3   OH257789   1.774   0.854   4.544  0.1362  0.0561  0.4772
12125TIP3    H157790   1.803   0.779   4.595 -2.3487 -0.9707  0.4866
12125TIP3    H257791   1.817   0.930   4.584  1.5752 -1.2040  1.3375
12126TIP3   OH257792   6.549   6.364  16.131 -0.2954  0.7448  0.0333
12126TIP3    H157793   6.617   6.413  16.085  0.0809  1.1410  1.0141
12126TIP3    H257794   6.596   6.307  16.192 -0.8166  0.5752  0.2829
12127TIP3   OH257795   3.444   0.763  12.911 -0.1528  0.2164 -0.4389
12127TIP3    H157796   3.402   0.709  12.977 -0.4619 -0.0661 -0.8611
12127TIP3    H257797   3.485   0.701  12.851  2.7461  0.5258  1.1561
12128TIP3   OH257798   0.411   3.373  12.988 -0.2146  0.2218 -0.2463
12128TIP3    H157799   0.453   3.340  12.909 -1.5284 -3.9057  0.6784
12128TIP3    H257800   0.334   3.420  12.957 -0.0392 -0.2908 -1.4626
12129TIP3   OH257801   6.153   1.928  15.822  0.2275 -0.0181 -0.8393
12129TIP3    H157802   6.242   1.955  15.797 -0.5123  0.2922 -3.2181
12129TIP3    H257803   6.160   1.833  15.835  0.7129 -0.1379 -1.9187
12130TIP3   OH257804   4.711   2.995  14.704 -0.1552  0.5378 -0.2132
12130TIP3    H157805   4.684   2.909  14.736  2.9940  0.2678  1.8813
12130TIP3    H257806   4.754   2.976  14.620 -0.0804  0.1460 -0.0908
12131TIP3   OH257807   4.657   5.200   5.952  0.2608  0.2310  0.1911
12131TIP3    H157808   4.641   5.155   6.034  1.5836 -1.1153 -0.2638
12131TIP3    H257809   4.745   5.237   5.961  0.4911 -0.0844 -0.6849
12132TIP3   OH257810   2.273   2.807  13.498  0.1265  0.3692 -0.0108
12132TIP3    H157811   2.342   2.772  13.441 -0.5526 -1.2432  0.1278
12132TIP3    H257812   2.288   2.763  13.582 -0.4781  0.7501  0.2924
12133TIP3   OH257813   3.505   5.939  15.828  0.0888 -0.1982  0.2956
12133TIP3    H157814   3.465   6.024  15.850 -1.0653 -0.1983 -1.6505
12133TIP3    H257815   3.486   5.884  15.904 -1.3325  0.5816  0.5283
12134TIP3   OH257816   3.077   6.634  14.498 -0.2119  0.6452  0.3795
12134TIP3    H157817   3.112   6.723  14.501  0.1034  0.6223 -1.7373
12134TIP3    H257818   3.021   6.633  14.421 -1.4274 -0.5710  1.2599
12135TIP3   OH257819   1.646   1.116   1.298 -0.2162 -0.0742  0.3403
12135TIP3    H157820   1.685   1.121   1.385  1.1096 -0.1796 -0.2325
12135TIP3    H257821   1.610   1.204   1.282 -2.1384 -0.5907  1.7447
12136TIP3   OH257822   0.988   1.919   2.170  0.3283 -0.5414 -0.0450
12136TIP3    H157823   0.899   1.945   2.145  0.9111  0.3869 -1.2146
12136TIP3    H257824   1.021   1.994   2.220  0.2496 -1.1287  0.8893
12137TIP3   OH257825   0.788   2.442   5.171 -0.2587 -0.8022 -0.1214
12137TIP3    H157826   0.767   2.365   5.118  2.6857 -1.1073 -0.9382
12137TIP3    H257827   0.850   2.492   5.118  2.7644 -1.0911  2.9642
12138TIP3   OH257828   5.728   1.782  14.870 -0.0950  0.2126  0.2104
12138TIP3    H157829   5.634   1.761  14.868  0.1912 -1.2914  1.9526
12138TIP3    H257830   5.760   1.742  14.951  1.6637  2.4293  0.6580
12139TIP3   OH257831   6.128   3.146  13.550 -0.6176 -0.5805 -0.9290
12139TIP3    H157832   6.182   3.181  13.621  0.3626 -2.0581 -0.9077
12139TIP3    H257833   6.139   3.051  13.557 -2.9698 -0.8950 -1.1545
12140TIP3   OH257834   5.435   4.636  15.610  0.2094 -0.0391 -0.5870
12140TIP3    H157835   5.500   4.636  15.680 -0.4805  0.1378  0.0603
12140TIP3    H257836   5.484   4.611  15.532  1.3910  1.6879 -0.4292
12141TIP3   OH257837   2.045   6.201   3.500 -0.3895  0.0748  0.3621
12141TIP3    H157838   1.952   6.220   3.484 -0.3116 -0.7603 -1.2040
12141TIP3    H257839   2.090   6.284   3.487 -0.7742  0.2118 -0.0847
12142TIP3   OH257840   1.292   5.973  17.193  0.3572  0.1416 -0.3084
12142TIP3    H157841   1.352   6.047  17.184  1.3468 -0.9515 -3.4424
12142TIP3    H257842   1.273   5.969  17.287  2.2654  2.7772  0.2610
12143TIP3   OH257843   2.516   1.537   4.756 -0.0331  0.7794  0.1743
12143TIP3    H157844   2.472   1.615   4.723 -0.0672  0.3006 -0.9417
12143TIP3    H257845   2.575   1.569   4.825 -1.5225  1.5277  1.1219
12144TIP3   OH257846   2.441   6.580  12.157 -0.4428  0.3110 -0.0501
12144TIP3    H157847   2.485   6.665  12.170  1.4835 -0.5325 -0.8641
12144TIP3    H257848   2.420   6.578  12.064 -1.3677  0.2882  0.1516
12145TIP3   OH257849   4.077   1.745  16.797 -0.6077 -0.0003  0.0050
12145TIP3    H157850   4.064   1.831  16.837  2.5165  1.4265 -1.8931
12145TIP3    H257851   4.009   1.738  16.731  1.6335  2.8804 -2.7134
12146TIP3   OH257852   2.427   0.814  12.062  0.4482 -0.2956  0.5131
12146TIP3    H157853   2.452   0.907  12.060  1.2937 -0.4907  1.7639
12146TIP3    H257854   2.362   0.806  11.992  1.2479  0.9863 -0.4140
12147TIP3   OH257855   1.869   4.709   1.909  0.2006  0.4439  0.4949
12147TIP3    H157856   1.860   4.752   1.824 -0.3112 -1.9243 -0.6781
12147TIP3    H257857   1.784   4.719   1.951 -0.2449 -0.3324 -0.2203
12148TIP3   OH257858   0.520   4.455   3.230 -0.3527 -0.2783  0.1544
12148TIP3    H157859   0.467   4.446   3.151 -0.3252 -0.7030  0.1832
12148TIP3    H257860   0.529   4.366   3.263  2.2610 -0.5196 -1.0800
12149TIP3   OH257861   3.525   5.422   4.926  0.1514  0.1106  0.6430
12149TIP3    H157862   3.553   5.348   4.979 -0.2677  1.0281  2.1893
12149TIP3    H257863   3.431   5.407   4.911  0.2337 -0.0631  0.3001
12150TIP3   OH257864   0.434   4.259  15.032  0.0149  0.3720  0.4778
12150TIP3    H157865   0.502   4.290  14.971 -0.1437 -0.3950 -0.1050
12150TIP3    H257866   0.475   4.185  15.077 -0.6633 -0.5690 -0.4098
12151TIP3   OH257867   2.079   4.229   3.961 -0.4005  0.0780 -0.1922
12151TIP3    H157868   2.089   4.243   4.055 -1.9310 -1.2153  0.1832
12151TIP3    H257869   2.089   4.135   3.949 -0.6365  0.1768 -1.2662
12152TIP3   OH257870   5.020   0.867   6.265 -0.3556  0.0337 -0.4021
12152TIP3    H157871   5.110   0.834   6.257  0.1277  1.2421  0.0603
12152TIP3    H257872   5.023   0.927   6.339 -1.2434  1.1515 -1.2718
12153TIP3   OH257873   1.156   6.458  12.014  0.2076  0.4740  0.0869
12153TIP3    H157874   1.167   6.487  11.923  1.9541 -0.6460 -0.0884
12153TIP3    H257875   1.245   6.451  12.048 -0.1738 -3.1094  0.5756
12154TIP3   OH257876   1.447   3.790   3.195  0.3142  0.0666 -0.2678
12154TIP3    H157877   1.366   3.752   3.228 -0.3589  0.3953 -1.5514
12154TIP3    H257878   1.471   3.856   3.261  0.0267 -0.6380  0.5553
12155TIP3   OH257879   6.313   0.761   5.264  0.3209  0.2176 -0.2496
12155TIP3    H157880   6.256   0.817   5.316 -0.9271  0.4152 -1.8132
12155TIP3    H257881   6.399   0.803   5.269 -0.4948  2.0264 -1.0268
12156TIP3   OH257882   6.745   0.233  13.826  0.3115 -0.4957 -0.2144
12156TIP3    H157883   6.669   0.186  13.859 -0.5452 -0.1617 -1.6773
12156TIP3    H257884   6.709   0.304  13.773  1.6304  0.1211 -0.3150
12157TIP3   OH257885   1.743   4.822  11.886  0.0953 -0.2885  0.5446
12157TIP3    H157886   1.658   4.782  11.903 -1.0233  2.2963  1.2162
12157TIP3    H257887   1.774   4.850  11.972  0.7162  0.5718  0.0446
12158TIP3   OH257888   3.230   4.358   3.450  0.0116  0.4230  0.5265
12158TIP3    H157889   3.265   4.398   3.530 -0.5469 -0.3503  1.1659
12158TIP3    H257890   3.214   4.267   3.474 -0.9334  0.3871 -0.2263
12159TIP3   OH257891   3.522   3.343   4.255  0.0337  0.2977  0.3201
12159TIP3    H157892   3.587   3.287   4.212  0.0828  0.4841  0.1546
12159TIP3    H257893   3.520   3.423   4.203  0.5673  0.7848  1.0286
12160TIP3   OH257894   2.932   6.616   1.169  0.0553 -0.3549  0.0327
12160TIP3    H157895   3.023   6.599   1.193  0.4079  0.8861 -0.4087
12160TIP3    H257896   2.937   6.684   1.102 -1.0920 -1.7133 -1.4704
12161TIP3   OH257897   6.346   3.134   2.535 -0.8862  0.3844 -0.0664
12161TIP3    H157898   6.405   3.175   2.472 -1.8170  1.5696 -0.2031
12161TIP3    H257899   6.312   3.056   2.490  0.5898 -0.3262  0.0407
12162TIP3   OH257900   1.996   1.188  10.854  0.2113 -0.0340 -0.1109
12162TIP3    H157901   1.930   1.226  10.912  0.1484 -0.5915  0.1853
12162TIP3    H257902   1.980   1.094  10.858 -1.3966  0.0721 -2.9646
12163TIP3   OH257903   3.745   2.482  15.228 -0.4883  0.1998 -0.4916
12163TIP3    H157904   3.728   2.496  15.322  0.8756 -0.6161 -0.1157
12163TIP3    H257905   3.685   2.412  15.203  0.8588 -1.2934  0.3673
12164TIP3   OH257906   6.623   1.173   3.767  0.2905  0.4529  0.3534
12164TIP3    H157907   6.589   1.244   3.714  0.1120 -0.0625 -0.2267
12164TIP3    H257908   6.565   1.099   3.749  0.6518  0.0745  0.7167
12165TIP3   OH257909   3.626   3.054   5.114  0.2861  0.1294  0.4460
12165TIP3    H157910   3.551   3.024   5.166 -0.0957  0.8432  0.3172
12165TIP3    H257911   3.593   3.131   5.068  0.5803 -0.5653 -0.9483
12166TIP3   OH257912   5.829   5.113   1.934 -0.0286 -0.2606 -0.8291
12166TIP3    H157913   5.863   5.137   1.848  1.0866 -1.1486 -0.6553
12166TIP3    H257914   5.790   5.027   1.921  0.9451 -0.7922 -0.2541
12167TIP3   OH257915   0.549   6.189  11.636 -0.1351 -0.4810 -0.7926
12167TIP3    H157916   0.562   6.101  11.601 -0.8504 -0.8015 -0.2616
12167TIP3    H257917   0.635   6.230  11.630 -0.0701 -0.7765 -2.2178
12168TIP3   OH257918   6.246   0.726  11.477  0.0888 -1.0237  0.7707
12168TIP3    H157919   6.332   0.750  11.511  0.8433 -0.2863 -1.5747
12168TIP3    H257920   6.254   0.633  11.454 -0.0674 -1.2204  1.4952
12169TIP3   OH257921   1.022   0.202   2.123  0.0986  0.7677 -0.4810
12169TIP3    H157922   0.993   0.204   2.214  1.5703 -0.2639  0.0056
12169TIP3    H257923   1.117   0.189   2.127 -0.0127 -0.8254 -2.1843
12170TIP3   OH257924   0.831   1.063   1.176  0.2508 -0.1969  0.6386
12170TIP3    H157925   0.904   1.001   1.182 -1.5385 -2.3059  1.4548
12170TIP3    H257926   0.859   1.139   1.227  2.0912 -0.7189  0.4474
12171TIP3   OH257927   0.354   2.163  16.544 -0.3342  0.0508  0.2863
12171TIP3    H157928   0.381   2.083  16.499  0.4062  0.6184 -0.2890
12171TIP3    H257929   0.382   2.234  16.485  0.5938  0.7945  1.5994
12172TIP3   OH257930   1.550   2.374  11.396 -0.2329 -0.1778  0.1962
12172TIP3    H157931   1.530   2.399  11.306 -0.9621  1.9264  0.9015
12172TIP3    H257932   1.465   2.350  11.434  0.0411 -0.8815  0.3686
12173TIP3   OH257933   0.011   0.914   1.928  0.6193  0.1870 -0.3148
12173TIP3    H157934   0.011   0.855   1.853 -1.7791 -1.6641  1.0710
12173TIP3    H257935   0.102   0.940   1.939  1.8903 -3.8668 -0.4850
12174TIP3   OH257936   4.509   5.608   6.681  0.1525  0.0618  0.0081
12174TIP3    H157937   4.480   5.543   6.745 -0.6535 -0.0283 -0.4459
12174TIP3    H257938   4.598   5.582   6.660  0.4541  0.1242  1.1337
12175TIP3   OH257939   4.203   0.944  16.565  0.1785  0.4676  0.0268
12175TIP3    H157940   4.135   1.005  16.537 -0.4870 -0.5611 -0.6527
12175TIP3    H257941   4.257   0.930  16.486  1.1234  1.2043  0.5376
12176TIP3   OH257942   6.126   6.550   5.654 -0.0491  0.2165  0.3390
12176TIP3    H157943   6.162   6.581   5.737  1.4975  2.2993 -1.0705
12176TIP3    H257944   6.113   6.456   5.666  0.6467  0.4161  2.7411
12177TIP3   OH257945   0.559   1.261   3.798 -0.3747  0.0042 -0.0973
12177TIP3    H157946   0.650   1.281   3.820  0.2467 -1.1224 -1.6113
12177TIP3    H257947   0.519   1.238   3.882  1.4070 -2.0175  0.2285
12178TIP3   OH257948   2.444   6.786   0.482  0.6107  0.0287 -0.0771
12178TIP3    H157949   2.534   6.757   0.494  0.9005  1.2534  0.7503
12178TIP3    H257950   2.442   6.875   0.516 -1.7443 -1.2013  3.2586
12179TIP3   OH257951   3.329   3.810   3.661  0.1074  0.4298  0.1283
12179TIP3    H157952   3.276   3.890   3.655  1.2165  1.0250 -2.4955
12179TIP3    H257953   3.413   3.839   3.695 -0.4576 -0.1281  2.0269
12180TIP3   OH257954   5.939   6.024  12.222  0.4014 -0.1650 -0.5170
12180TIP3    H157955   5.973   6.068  12.144  3.1428 -1.1597  0.0660
12180TIP3    H257956   5.935   5.932  12.198  1.7312 -0.5467  0.6281
12181TIP3   OH257957   1.416   0.957  15.143 -0.4235 -0.1445 -0.2994
12181TIP3    H157958   1.381   0.872  15.168 -1.4550  0.7365  1.3460
12181TIP3    H257959   1.509   0.953  15.168 -0.6998 -0.4246  0.7004
12182TIP3   OH257960   3.369   1.886  17.173 -0.1701  0.4213  0.1199
12182TIP3    H157961   3.324   1.968  17.192 -0.4284  0.1950  0.4847
12182TIP3    H257962   3.445   1.886  17.232 -0.9124 -0.2308  1.0938
12183TIP3   OH257963   2.381   1.269   4.867 -0.1712 -0.9980 -0.0647
12183TIP3    H157964   2.408   1.328   4.797  2.5358  0.8847  2.4325
12183TIP3    H257965   2.290   1.291   4.885 -0.0824  0.3259 -1.1997
12184TIP3   OH257966   0.140   1.641   2.611  0.3587 -0.6397  0.2100
12184TIP3    H157967   0.104   1.576   2.550 -0.0833  0.0758 -0.3016
12184TIP3    H257968   0.234   1.622   2.613  0.5720  0.0474 -1.5985
12185TIP3   OH257969   3.643   0.136  14.769  0.0121  0.4042  0.0966
12185TIP3    H157970   3.632   0.148  14.675 -0.2169 -0.4891  0.0016
12185TIP3    H257971   3.640   0.041  14.782 -1.1669  0.5643  1.1504
12186TIP3   OH257972   2.190   0.709   0.470  0.5582  0.0001 -0.2724
12186TIP3    H157973   2.111   0.754   0.439  0.1221  1.5010  2.8436
12186TIP3    H257974   2.248   0.710   0.394 -2.0937 -0.4742 -2.4221
12187TIP3   OH257975   2.394   1.330  12.762 -0.1011 -0.2320 -0.3806
12187TIP3    H157976   2.408   1.390  12.835 -1.9935 -0.4659  0.1944
12187TIP3    H257977   2.475   1.336  12.710  0.2521  1.8047  0.3684
12188TIP3   OH257978   0.376   1.510  14.398  0.5224  0.2113 -0.0823
12188TIP3    H157979   0.439   1.468  14.456 -1.0265 -0.9556  0.7819
12188TIP3    H257980   0.368   1.599  14.432  0.4467 -0.1430  0.8313
12189TIP3   OH257981   4.052   1.656   0.165  0.2173 -0.2640  0.2011
12189TIP3    H157982   4.074   1.749   0.171 -0.7859 -0.0798  1.2056
12189TIP3    H257983   4.132   1.611   0.192  0.8881  0.2910 -0.8524
12190TIP3   OH257984   3.345   0.738   4.090  0.4244  0.2388 -0.1729
12190TIP3    H157985   3.404   0.753   4.016 -0.7447 -1.5944 -1.5186
12190TIP3    H257986   3.270   0.794   4.073  1.1511  1.5380  0.8308
12191TIP3   OH257987   3.170   6.240   4.154  0.3021  0.1490 -0.3394
12191TIP3    H157988   3.245   6.206   4.203  0.1771 -0.9390 -0.9077
12191TIP3    H257989   3.094   6.197   4.192  0.2654 -1.2166 -1.9385
12192TIP3   OH257990   0.134   0.202   5.040  0.1821  0.1598 -0.0162
12192TIP3    H157991   0.070   0.159   4.984  2.0061  2.2046 -3.8618
12192TIP3    H257992   0.082   0.248   5.105 -2.1167 -0.7265 -1.1526
12193TIP3   OH257993   0.415   4.495   3.660 -0.7660 -0.1983 -0.0875
12193TIP3    H157994   0.460   4.431   3.715 -0.7172  0.4419  0.6213
12193TIP3    H257995   0.408   4.452   3.575  2.1166  0.1166 -0.5201
12194TIP3   OH257996   4.737   4.262   4.984  0.2457  0.4707  0.0805
12194TIP3    H157997   4.745   4.204   5.060  1.6233  0.4312 -0.0977
12194TIP3    H257998   4.707   4.206   4.913 -1.3677  0.5680  0.6663
12195TIP3   OH257999   6.273   4.147   3.534 -0.3862  0.3538 -0.2197
12195TIP3    H158000   6.344   4.094   3.499  0.6574  2.0647 -0.7328
12195TIP3    H258001   6.199   4.130   3.475 -0.1591 -0.7564 -0.1888
12196TIP3   OH258002   0.468   4.933  12.906  0.3509  0.2925  0.1585
12196TIP3    H158003   0.495   4.992  12.836  0.3874 -0.0533 -0.1211
12196TIP3    H258004   0.507   4.849  12.883 -0.6211 -0.1107 -0.0292
12197TIP3   OH258005   1.772   6.010  15.130  0.0595 -0.5953  0.3521
12197TIP3    H158006   1.855   6.000  15.176 -0.3676  0.9489  1.4816
12197TIP3    H258007   1.706   6.016  15.200 -0.5558  2.1400 -0.3961
12198TIP3   OH258008   2.489   0.782   2.745 -0.1022 -0.0375  0.0820
12198TIP3    H158009   2.482   0.727   2.667  0.2107 -0.3060  0.2421
12198TIP3    H258010   2.579   0.767   2.777 -0.7122 -1.1234  1.3743
12199TIP3   OH258011   0.825   1.202   1.607  0.4785 -0.2564 -0.0805
12199TIP3    H158012   0.872   1.280   1.578 -0.0551  0.9443  2.1318
12199TIP3    H258013   0.886   1.160   1.668  0.0194 -0.5471  0.1758
12200TIP3   OH258014   6.286   2.817   5.769  0.2671  0.3919 -0.1224
12200TIP3    H158015   6.269   2.754   5.698 -0.1914  0.0178  0.3173
12200TIP3    H258016   6.372   2.791   5.803  0.5115  0.6061 -0.5809
12201TIP3   OH258017   4.581   2.169   6.362 -0.1540  0.1808 -0.2458
12201TIP3    H158018   4.539   2.234   6.418 -0.2801  0.3158 -0.4972
12201TIP3    H258019   4.586   2.090   6.416 -0.2934  0.3046 -0.0527
12202TIP3   OH258020   1.857   1.752  13.542 -0.0592  0.4593  0.3874
12202TIP3    H158021   1.778   1.804  13.528  0.4055  0.9745 -0.3746
12202TIP3    H258022   1.916   1.779  13.472  1.8027  1.9862  2.4778
12203TIP3   OH258023   6.256   4.872   2.805  0.6229 -0.7707 -0.2247
12203TIP3    H158024   6.171   4.883   2.762  0.4626 -0.2103  0.2261
12203TIP3    H258025   6.243   4.908   2.893  1.5786  0.1163 -0.4390
12204TIP3   OH258026   4.580   5.548  13.512  0.5405  0.3248 -0.5842
12204TIP3    H158027   4.601   5.623  13.456  1.3713 -1.3041 -2.5253
12204TIP3    H258028   4.497   5.515  13.477  0.2106  0.2950  0.2197
12205TIP3   OH258029   0.751   4.473   0.123 -0.1361  0.6576  0.0489
12205TIP3    H158030   0.696   4.436   0.192  1.5636 -1.2314  0.4361
12205TIP3    H258031   0.690   4.519   0.066 -2.2076 -1.7109  0.2469
12206TIP3   OH258032   6.244   2.165   3.027  0.2241 -0.5109 -0.2152
12206TIP3    H158033   6.329   2.152   2.985 -0.3042  0.3404 -1.5808
12206TIP3    H258034   6.236   2.259   3.036 -1.6291 -0.4099 -2.3695
12207TIP3   OH258035   2.127   4.936  12.012  0.3292  0.2568  0.0169
12207TIP3    H158036   2.082   5.021  12.016 -1.6556 -0.7820  0.6674
12207TIP3    H258037   2.056   4.872  11.999  1.7883 -1.3105 -0.4815
12208TIP3   OH258038   2.341   2.202  13.495  0.2764  0.3515 -0.0426
12208TIP3    H158039   2.348   2.185  13.401  0.6649 -0.2245  0.0846
12208TIP3    H258040   2.291   2.283  13.502 -1.7870 -0.8400 -0.6642
12209TIP3   OH258041   6.593   5.284  16.564  0.3158 -0.3332 -0.1745
12209TIP3    H158042   6.503   5.306  16.543  0.2921  0.9559  1.1923
12209TIP3    H258043   6.605   5.196  16.529 -2.3535 -1.7072  2.1504
12210TIP3   OH258044   0.450   2.499   3.104  0.6569 -0.5410 -0.8727
12210TIP3    H158045   0.435   2.460   3.190 -2.2690 -0.1516 -1.1651
12210TIP3    H258046   0.436   2.427   3.042 -2.5603  0.3527 -1.2819
12211TIP3   OH258047   0.339   2.383   3.365  0.1686  0.4513  0.0261
12211TIP3    H158048   0.262   2.334   3.392 -1.1145  2.2201 -0.3096
12211TIP3    H258049   0.396   2.383   3.442 -0.4665 -0.3100  0.4997
12212TIP3   OH258050   6.135   0.809  16.323 -0.0445  0.5151 -0.0074
12212TIP3    H158051   6.154   0.863  16.246  0.2224 -0.7400 -0.8648
12212TIP3    H258052   6.065   0.751  16.294  0.5627 -0.4676  0.4518
12213TIP3   OH258053   5.775   0.112   2.213  0.0827  0.2678 -0.4561
12213TIP3    H158054   5.854   0.165   2.211  1.4170 -1.6682 -0.3801
12213TIP3    H258055   5.764   0.088   2.305  0.3453 -0.8120 -0.6975
12214TIP3   OH258056   2.541   0.963  11.652 -0.3391 -0.2057  0.0877
12214TIP3    H158057   2.488   0.966  11.572  1.4834 -0.9996 -1.1929
12214TIP3    H258058   2.539   1.053  11.685  1.8288  1.0399 -2.8800
12215TIP3   OH258059   0.980   0.913   1.503 -0.0356  0.6275  0.6371
12215TIP3    H158060   0.889   0.935   1.484  0.4778  2.4120  0.1647
12215TIP3    H258061   0.987   0.820   1.483 -1.4936  0.7156 -0.3089
12216TIP3   OH258062   0.071   2.678   4.470 -0.0242 -0.7173 -0.0036
12216TIP3    H158063   0.144   2.660   4.411 -0.0134 -1.8265  0.3524
12216TIP3    H258064   0.113   2.711   4.550  0.0606 -1.0205  0.0754
12217TIP3   OH258065   4.004   0.090  12.553  0.7126 -0.0329  0.1943
12217TIP3    H158066   3.943   0.159  12.528  0.1657 -1.0134 -1.2437
12217TIP3    H258067   4.090   0.121  12.524  0.7284  0.7793  1.0778
12218TIP3   OH258068   4.700   0.926   4.750 -0.2936 -1.0431 -0.3639
12218TIP3    H158069   4.665   0.885   4.671 -1.1007  0.5335 -0.8384
12218TIP3    H258070   4.631   0.915   4.815 -0.8282  0.1894 -0.7034
12219TIP3   OH258071   3.441   6.044   3.443 -0.5529 -0.2386 -0.4538
12219TIP3    H158072   3.509   6.108   3.463 -1.2530  0.0424  1.1039
12219TIP3    H258073   3.478   5.960   3.469 -0.6790 -0.1241  0.1016
12220TIP3   OH258074   5.411   2.685  14.687  0.2133 -0.4037 -0.6390
12220TIP3    H158075   5.427   2.603  14.734  0.1642  0.9561  1.8397
12220TIP3    H258076   5.494   2.705  14.645  0.8859 -0.6132  0.5514
12221TIP3   OH258077   6.570   3.605   0.536  0.1144 -0.1057 -0.3317
12221TIP3    H158078   6.618   3.524   0.554 -0.9004 -0.4551  0.8831
12221TIP3    H258079   6.524   3.624   0.617  0.7154  1.9674 -0.4462
12222TIP3   OH258080   0.774   1.753   3.618  0.2249 -0.1063 -0.1819
12222TIP3    H158081   0.701   1.727   3.563 -0.5223 -0.3894  0.9228
12222TIP3    H258082   0.845   1.694   3.594 -0.4486 -0.9902 -0.0191
12223TIP3   OH258083   2.999   0.519  13.939  0.0708 -0.1059  0.4684
12223TIP3    H158084   2.961   0.551  13.857  0.3090  0.3002  0.5168
12223TIP3    H258085   2.966   0.430  13.947  0.2232 -0.2279 -0.1870
12224TIP3   OH258086   4.749   5.418  13.680  0.0554  0.3545  0.0799
12224TIP3    H158087   4.696   5.461  13.613  0.3774  0.4745 -0.1014
12224TIP3    H258088   4.832   5.467  13.679 -0.0375  0.5353  0.7590
12225TIP3   OH258089   5.572   5.453  13.296  0.3389  0.3410  0.1152
12225TIP3    H158090   5.502   5.448  13.360  0.4775 -0.3766  0.2150
12225TIP3    H258091   5.540   5.401  13.222  0.9895 -0.4499  0.3816
12226TIP3   OH258092   3.124   4.721   3.175  0.1990  0.2823 -0.2152
12226TIP3    H158093   3.208   4.748   3.138 -0.1157  1.3533 -0.1582
12226TIP3    H258094   3.081   4.672   3.104  0.6736  0.1482 -0.4084
12227TIP3   OH258095   5.484   2.144  17.183 -0.3410  0.5075  0.2257
12227TIP3    H158096   5.504   2.219  17.127  1.1855  0.3051  0.4900
12227TIP3    H258097   5.401   2.111  17.148 -1.3657  2.6719  0.5014
12228TIP3   OH258098   5.277   5.667   4.957 -0.1170  0.0233  0.1152
12228TIP3    H158099   5.186   5.657   4.986 -0.2022 -1.1884 -0.5247
12228TIP3    H258100   5.306   5.749   4.997 -1.7983  0.9343 -0.4691
12229TIP3   OH258101   3.205   2.347   1.030 -0.3172  0.2830  0.3828
12229TIP3    H158102   3.225   2.275   0.970  0.8909  0.2863  0.7778
12229TIP3    H258103   3.205   2.425   0.973 -0.8789  0.0752  0.0907
12230TIP3   OH258104   6.067   5.267   3.412 -0.0933 -0.0546 -0.1407
12230TIP3    H158105   6.102   5.219   3.487  1.3769  0.5171 -0.4281
12230TIP3    H258106   6.027   5.199   3.357  0.1646 -0.6834  0.4342
12231TIP3   OH258107   4.485   2.257   1.872  0.3724 -0.4964 -0.2941
12231TIP3    H158108   4.426   2.187   1.847 -0.6467 -0.1384  1.0488
12231TIP3    H258109   4.444   2.297   1.949  2.8159 -0.8489  1.2413
12232TIP3   OH258110   2.424   1.825  16.374  0.7609  0.0139 -0.3326
12232TIP3    H158111   2.442   1.733  16.394 -1.0115 -0.2284  0.2717
12232TIP3    H258112   2.492   1.851  16.312  1.9383 -1.3861  0.3558
12233TIP3   OH258113   0.893   5.859   5.663  0.3628 -0.0105  0.0826
12233TIP3    H158114   0.817   5.894   5.709  0.2188  0.6943 -0.6924
12233TIP3    H258115   0.962   5.855   5.730 -0.4057 -0.8400  0.8305
12234TIP3   OH258116   0.440   2.013   1.847  0.4692 -0.1298  0.0561
12234TIP3    H158117   0.533   2.020   1.826  0.3804  1.3495  0.1206
12234TIP3    H258118   0.396   2.061   1.776 -0.1296  0.6877  0.9796
12235TIP3   OH258119   1.723   0.590  14.934  0.6442 -0.4447  0.5006
12235TIP3    H158120   1.740   0.501  14.965  4.0553 -0.4247 -1.0990
12235TIP3    H258121   1.712   0.582  14.840 -2.3464  0.4297  0.7475
12236TIP3   OH258122   3.817   3.958  11.124 -0.8570  0.1931  0.6315
12236TIP3    H158123   3.880   3.955  11.053 -3.5920 -4.0312 -1.8753
12236TIP3    H258124   3.745   4.011  11.090 -0.7445  0.9958  1.6113
12237TIP3   OH258125   6.050   0.048   6.115 -0.3668 -0.5592 -0.5515
12237TIP3    H158126   6.080   0.136   6.137  1.2930 -0.9858 -1.0703
12237TIP3    H258127   5.957   0.047   6.141 -0.3922  1.3190 -0.5281
12238TIP3   OH258128   4.540   6.737   1.179  0.5767 -0.1402  0.0840
12238TIP3    H158129   4.456   6.719   1.221  1.4121  0.0253  1.8564
12238TIP3    H258130   4.596   6.664   1.204  1.2148  0.1953 -0.3547
12239TIP3   OH258131   5.705   0.651  14.645 -0.2201  0.4110 -0.5549
12239TIP3    H158132   5.772   0.707  14.685  0.5745 -1.2138  0.3953
12239TIP3    H258133   5.637   0.713  14.616  1.2632  1.9980 -0.7466
12240TIP3   OH258134   4.507   3.600   5.713  0.1752 -0.1231 -0.3751
12240TIP3    H158135   4.563   3.530   5.679 -0.1180 -0.9748  0.8716
12240TIP3    H258136   4.514   3.593   5.808 -1.6164  0.0920 -0.2079
12241TIP3   OH258137   1.696   4.714  13.100  0.1360  0.1208  0.3676
12241TIP3    H158138   1.628   4.729  13.165 -0.6016 -2.3799  0.2137
12241TIP3    H258139   1.652   4.721  13.016  0.7434  1.6675  0.1604
12242TIP3   OH258140   2.718   5.875   6.091  0.4611 -0.0955  0.4968
12242TIP3    H158141   2.792   5.844   6.143  1.3684  1.3153  0.0855
12242TIP3    H258142   2.662   5.920   6.154  0.5443 -0.1496  0.6099
12243TIP3   OH258143   1.002   0.264   0.810 -0.3465  0.0803 -0.4106
12243TIP3    H158144   0.981   0.344   0.858 -1.0379  0.8089 -1.9094
12243TIP3    H258145   1.061   0.216   0.868 -1.3995  0.8078  1.2871
12244TIP3   OH258146   0.711   2.662   5.768  0.3155  0.5529 -0.5778
12244TIP3    H158147   0.693   2.675   5.674 -0.0564 -0.2279 -0.6196
12244TIP3    H258148   0.629   2.688   5.811 -0.0059 -0.4324 -0.5761
12245TIP3   OH258149   3.330   5.919  16.404  0.3296 -0.3586 -0.3192
12245TIP3    H158150   3.256   5.859  16.395  1.0091 -1.2736  0.1432
12245TIP3    H258151   3.407   5.864  16.391  0.9820  0.2712  0.8215
12246TIP3   OH258152   4.829   3.236   3.760  0.1450  0.0168  0.6974
12246TIP3    H158153   4.887   3.235   3.683 -0.3923 -3.1104  0.2572
12246TIP3    H258154   4.760   3.298   3.737 -0.3690 -1.3711 -1.6509
12247TIP3   OH258155   3.845   1.192   1.446 -0.0158 -0.1470 -0.2714
12247TIP3    H158156   3.796   1.159   1.521 -1.3731 -1.9404 -1.9162
12247TIP3    H258157   3.783   1.191   1.373  1.0563  2.2659 -1.2885
12248TIP3   OH258158   4.883   4.777   1.844 -0.0678  0.1545 -0.7419
12248TIP3    H158159   4.973   4.745   1.854 -0.5050 -1.2431 -1.0793
12248TIP3    H258160   4.886   4.836   1.768  0.5799  0.1476 -0.7187
12249TIP3   OH258161   6.454   0.971   3.790  0.0715 -0.2440 -0.1883
12249TIP3    H158162   6.402   1.016   3.856 -1.1966 -0.3466 -1.1098
12249TIP3    H258163   6.523   0.926   3.840 -1.2115 -0.7792  1.1182
12250TIP3   OH258164   4.475   3.393   1.824  0.4747  0.1040  0.2881
12250TIP3    H158165   4.510   3.376   1.736 -0.9451 -1.0637 -0.0642
12250TIP3    H258166   4.505   3.482   1.844  2.0254 -0.1473 -0.7799
12251TIP3   OH258167   5.498   5.553   5.541 -0.9267  0.3126  0.0326
12251TIP3    H158168   5.566   5.618   5.559  1.2492 -2.0710  0.7047
12251TIP3    H258169   5.420   5.588   5.583  0.2388  2.4057  0.5107
12252TIP3   OH258170   6.483   4.993   0.387  0.0805 -0.6434  0.1390
12252TIP3    H158171   6.570   5.026   0.408  0.2848 -1.0907  0.0180
12252TIP3    H258172   6.439   4.982   0.471  0.7678 -2.0911  0.3328
12253TIP3   OH258173   1.673   6.470   5.410 -0.4512 -0.3087  0.2826
12253TIP3    H158174   1.654   6.542   5.351  0.0181  0.8933  1.5643
12253TIP3    H258175   1.754   6.432   5.377 -0.6796 -0.2205 -0.3712
12254TIP3   OH258176   5.417   3.336  16.434  0.0104 -0.1660 -0.6160
12254TIP3    H158177   5.390   3.427  16.417  1.9913  0.9451  1.8755
12254TIP3    H258178   5.445   3.304  16.348  1.4410  2.3325 -1.1310
12255TIP3   OH258179   1.080   1.498  12.993 -0.0582  0.0477 -0.3298
12255TIP3    H158180   1.086   1.425  12.932  0.6679  0.0167 -0.2223
12255TIP3    H258181   1.041   1.460  13.072 -0.7462  0.0311 -0.6721
12256TIP3   OH258182   0.561   6.111  12.811 -0.0296 -0.0927  0.0981
12256TIP3    H158183   0.493   6.069  12.863  0.6700 -1.2225  0.1056
12256TIP3    H258184   0.564   6.060  12.730 -1.5093  1.9866 -1.3359
12257TIP3   OH258185   5.095   0.086  10.204  0.6402 -0.5231 -0.0817
12257TIP3    H158186   5.060   0.048  10.123 -0.6687  0.8747 -0.1890
12257TIP3    H258187   5.126   0.173  10.178  0.7378 -0.2950  0.8088
12258TIP3   OH258188   5.296   5.173  16.284 -0.1624 -0.3806  0.4198
12258TIP3    H158189   5.211   5.217  16.272 -1.4058 -2.2645  2.0733
12258TIP3    H258190   5.293   5.098  16.225  0.1299 -0.7433  0.8579
12259TIP3   OH258191   3.941   1.801   6.108  0.0406  0.2325  0.2303
12259TIP3    H158192   3.973   1.852   6.182 -0.0632  0.1646  0.3217
12259TIP3    H258193   3.974   1.712   6.124 -2.2035 -0.3891  1.5643
12260TIP3   OH258194   5.149   1.462  16.842 -0.3570 -0.1681 -0.0881
12260TIP3    H158195   5.106   1.485  16.760 -1.5393  0.0875  0.5986
12260TIP3    H258196   5.190   1.543  16.871 -0.2772 -0.1620 -0.2162
12261TIP3   OH258197   2.349   0.104  17.018 -0.3193  0.2948  0.3602
12261TIP3    H158198   2.339   0.198  17.034 -4.0806  0.2779 -1.3559
12261TIP3    H258199   2.379   0.098  16.928  0.6218 -0.1298  0.7022
12262TIP3   OH258200   6.087   3.844   4.593 -0.6740  0.3810  0.0987
12262TIP3    H158201   6.001   3.854   4.634 -0.7826 -1.6184  0.4066
12262TIP3    H258202   6.121   3.762   4.628  0.4169  0.0294 -1.7110
12263TIP3   OH258203   4.380   1.362   1.940 -0.1092 -0.1284 -0.4385
12263TIP3    H158204   4.284   1.362   1.940 -0.1711 -0.4378  2.3501
12263TIP3    H258205   4.404   1.278   1.901 -1.0288 -0.6750  0.1389
12264TIP3   OH258206   4.462   2.386  13.317 -0.2377 -1.0852 -0.1906
12264TIP3    H158207   4.488   2.424  13.401  0.0992 -0.7251 -0.4538
12264TIP3    H258208   4.435   2.462  13.265  0.3949 -1.2185 -0.7111
12265TIP3   OH258209   4.642   1.159  11.847  0.3442  0.4504  0.0853
12265TIP3    H158210   4.631   1.096  11.776  3.4809 -0.0315 -0.0337
12265TIP3    H258211   4.609   1.241  11.811  0.4453 -0.1374 -1.3785
12266TIP3   OH258212   4.296   3.550  16.494  0.2477  0.4836  0.2736
12266TIP3    H158213   4.324   3.514  16.578  0.7818 -0.4889 -0.3060
12266TIP3    H258214   4.324   3.642  16.497  0.5498  0.3736  1.0224
12267TIP3   OH258215   2.443   2.499  11.589 -0.5288  0.1855 -0.4270
12267TIP3    H158216   2.458   2.452  11.507 -0.0369 -1.1339  0.3827
12267TIP3    H258217   2.523   2.551  11.602  1.8518 -3.7494  1.8594
12268TIP3   OH258218   0.505   0.402   5.476 -0.3595 -0.1640  0.5635
12268TIP3    H158219   0.471   0.367   5.393  0.1715  1.6934 -0.4644
12268TIP3    H258220   0.599   0.382   5.473 -0.6083 -1.5707  1.5004
12269TIP3   OH258221   6.359   4.275   2.779 -0.1808 -1.2069 -0.0065
12269TIP3    H158222   6.312   4.330   2.716  0.4748  1.1097  1.4605
12269TIP3    H258223   6.388   4.200   2.728  0.4209  0.6726 -2.5223
12270TIP3   OH258224   4.468   4.386   0.008 -0.1919  0.6817  0.0639
12270TIP3    H158225   4.522   4.366   0.084 -0.4942 -1.2185 -0.2049
12270TIP3    H258226   4.530   4.419  -0.058  0.3041  0.7307  0.5502
12271TIP3   OH258227   1.720   6.481  13.136  0.4085 -0.9092  0.3129
12271TIP3    H158228   1.776   6.403  13.138 -0.2052 -1.3557  0.2394
12271TIP3    H258229   1.755   6.538  13.205  2.6125 -0.0204 -1.4595
12272TIP3   OH258230   5.281   0.590  12.863  0.2733 -0.2491  0.0584
12272TIP3    H158231   5.334   0.573  12.785  1.1865  2.2855  0.0701
12272TIP3    H258232   5.215   0.653  12.834 -0.3995 -0.5360  0.9475
12273TIP3   OH258233   6.724   0.144  15.770 -0.1358  0.0896 -0.0059
12273TIP3    H158234   6.702   0.237  15.775 -3.2001 -0.5880  0.2957
12273TIP3    H258235   6.786   0.138  15.698 -0.1691  2.3069 -0.2763
12274TIP3   OH258236   2.980   2.365  15.198 -0.3054 -0.1579 -0.2480
12274TIP3    H158237   2.990   2.425  15.124  0.6403  1.0081  0.8133
12274TIP3    H258238   2.900   2.316  15.178 -1.6467  2.1503 -0.6593
12275TIP3   OH258239   5.921   3.698  15.613  0.1202  0.2749  0.6004
12275TIP3    H158240   5.886   3.774  15.566 -1.0486 -0.6967 -0.1169
12275TIP3    H258241   5.933   3.631  15.545  0.7767 -0.3139  1.2897
12276TIP3   OH258242   4.798   4.949  16.302  0.1494 -0.1453  0.6984
12276TIP3    H158243   4.764   5.033  16.333 -0.5395 -0.0158 -0.4012
12276TIP3    H258244   4.892   4.954  16.318  0.1991  1.0926  0.0473
12277TIP3   OH258245   2.744   6.675   3.391 -0.2528 -0.1937  0.0450
12277TIP3    H158246   2.794   6.699   3.313 -0.8146 -2.5100 -1.0624
12277TIP3    H258247   2.800   6.613   3.437 -1.0996 -0.9993  0.0028
12278TIP3   OH258248   4.596   1.936  13.516  0.6131  0.2856 -0.1373
12278TIP3    H158249   4.603   2.009  13.578  0.2882 -1.2209  1.6954
12278TIP3    H258250   4.608   1.858  13.569  1.2762 -1.0038 -2.1516
12279TIP3   OH258251   1.818   1.862  14.972 -0.2896 -0.2979  0.0332
12279TIP3    H158252   1.723   1.858  14.982 -0.5624  0.0558 -2.2046
12279TIP3    H258253   1.847   1.914  15.047 -2.0048  0.8222 -0.0354
12280TIP3   OH258254   3.748   6.245   4.570 -0.2235  0.3435 -0.2497
12280TIP3    H158255   3.841   6.238   4.587  0.2772 -0.4754 -3.0459
12280TIP3    H258256   3.737   6.329   4.525 -0.6945  0.0180 -0.7552
12281TIP3   OH258257   2.981   4.094  12.298  0.0839  0.1046  0.3601
12281TIP3    H158258   2.940   4.039  12.365 -1.0780 -1.0901 -1.3169
12281TIP3    H258259   3.032   4.033  12.245 -1.5251  0.5479 -1.7578
12282TIP3   OH258260   4.431   2.975  16.008  0.3914 -0.2480 -0.2851
12282TIP3    H158261   4.476   3.021  15.937 -1.2554  1.0406 -0.5019
12282TIP3    H258262   4.439   3.034  16.083 -1.7849  0.4719 -0.5828
12283TIP3   OH258263   4.907   5.736   6.322 -0.3911  0.3713  0.8774
12283TIP3    H158264   4.926   5.825   6.291 -0.0505  0.0499  0.1518
12283TIP3    H258265   4.857   5.749   6.403  0.0372  1.2242  1.0140
12284TIP3   OH258266   6.669   4.961   0.079  0.2862 -0.6198  0.6627
12284TIP3    H158267   6.688   4.906   0.155 -0.2104 -0.4325  0.9244
12284TIP3    H258268   6.716   4.920   0.007 -1.5090 -2.4357  0.4758
12285TIP3   OH258269   2.207   3.811   3.087 -0.5328  0.5882  0.4316
12285TIP3    H158270   2.130   3.764   3.055  0.2310  0.6619 -1.5999
12285TIP3    H258271   2.279   3.778   3.033  0.2395  3.1010 -0.1445
12286TIP3   OH258272   3.779   6.328   0.493  0.0102 -0.0863  0.1302
12286TIP3    H158273   3.849   6.333   0.558  1.0263 -0.6799 -0.8991
12286TIP3    H258274   3.804   6.393   0.426 -0.8169  0.2410  0.1407
12287TIP3   OH258275   5.618   1.039   1.372 -0.1660  0.4540 -0.7640
12287TIP3    H158276   5.696   1.061   1.422 -0.5022  2.8645 -1.2267
12287TIP3    H258277   5.547   1.041   1.436 -0.1531  0.4681 -0.7502
12288TIP3   OH258278   3.491   1.300   4.493  0.2767  0.2499 -0.1503
12288TIP3    H158279   3.466   1.247   4.417  1.5119  0.5594 -0.7758
12288TIP3    H258280   3.584   1.282   4.506  0.2958  0.9276  0.7067
12289TIP3   OH258281   4.303   6.176   4.322 -0.1851 -0.6459 -0.3250
12289TIP3    H158282   4.342   6.147   4.239 -0.1368 -1.2295 -0.0966
12289TIP3    H258283   4.375   6.219   4.368  0.0461 -1.2134 -0.1525
12290TIP3   OH258284   4.712   1.555   1.342  0.7185 -0.3903 -0.8975
12290TIP3    H158285   4.627   1.516   1.365  1.6740 -2.2871 -0.4615
12290TIP3    H258286   4.697   1.596   1.257 -0.8991  0.1957 -0.3550
12291TIP3   OH258287   4.400   5.625   2.169  0.1981  0.4883  0.8289
12291TIP3    H158288   4.442   5.664   2.246  1.0448  1.4425 -0.1064
12291TIP3    H258289   4.472   5.587   2.118 -0.5058 -1.4430  1.2116
12292TIP3   OH258290   1.566   1.734  13.722  0.6025 -0.0426  0.3375
12292TIP3    H158291   1.475   1.722  13.750  0.5604  1.1463  0.7345
12292TIP3    H258292   1.618   1.709  13.798  0.5315  1.6770  0.9637
12293TIP3   OH258293   2.373   5.741   3.956 -0.3293  0.0903  0.0227
12293TIP3    H158294   2.291   5.739   3.907 -1.2250  1.5512  1.3797
12293TIP3    H258295   2.371   5.826   4.001  1.8126  0.0274  0.2811
12294TIP3   OH258296   2.513   4.199   5.612 -0.3071  0.0443 -0.1901
12294TIP3    H158297   2.549   4.243   5.535  2.0350 -0.2435  0.6857
12294TIP3    H258298   2.526   4.106   5.594  3.1700  0.0431  1.8181
12295TIP3   OH258299   0.279   4.903  15.225 -0.3142  0.2212  0.0546
12295TIP3    H158300   0.197   4.952  15.219 -0.4399  0.3279  2.2463
12295TIP3    H258301   0.254   4.818  15.261  0.5707  0.3363  0.9552
12296TIP3   OH258302   2.232   2.769   0.464  0.1358 -0.0697  0.3664
12296TIP3    H158303   2.198   2.845   0.510 -0.3076  1.1691 -1.9180
12296TIP3    H258304   2.182   2.766   0.382  2.4615 -0.7848 -1.0843
12297TIP3   OH258305   6.697   2.681   2.880 -0.7080 -0.8798  0.5468
12297TIP3    H158306   6.746   2.751   2.835 -1.4623  0.2012  1.3875
12297TIP3    H258307   6.753   2.658   2.954  0.7423 -2.9633 -1.1190
12298TIP3   OH258308   3.507   3.902  14.180  0.3745 -0.5965  0.0772
12298TIP3    H158309   3.558   3.980  14.200 -1.2109  0.5154 -0.0669
12298TIP3    H258310   3.521   3.888  14.086  0.4792 -0.3394  0.0527
12299TIP3   OH258311   3.336   3.711   4.764 -0.8714 -0.1727  0.0638
12299TIP3    H158312   3.391   3.733   4.838 -0.0827  0.7071 -0.7702
12299TIP3    H258313   3.375   3.758   4.690 -1.6343 -1.0374 -0.9050
12300TIP3   OH258314   6.476   2.757  13.593  0.0667 -0.2344  0.4681
12300TIP3    H158315   6.560   2.759  13.546 -1.3007  0.2185 -2.0528
12300TIP3    H258316   6.446   2.667  13.586 -0.2822 -0.0994  0.1915
12301TIP3   OH258317   6.260   3.555  16.937 -0.5895 -0.6039  0.3656
12301TIP3    H158318   6.257   3.496  17.012  1.0838 -2.3977 -0.9542
12301TIP3    H258319   6.221   3.505  16.865 -0.7201  0.5196 -0.3609
12302TIP3   OH258320   3.578   1.752  13.727 -0.5283  0.2338 -0.1167
12302TIP3    H158321   3.602   1.698  13.652 -1.0409 -0.2713  0.0788
12302TIP3    H258322   3.575   1.841  13.692 -0.4646  0.0397 -0.6256
12303TIP3   OH258323   6.110   4.032  11.625 -0.0882 -0.1787  0.7441
12303TIP3    H158324   6.185   4.040  11.684  0.9649  1.9573 -0.8006
12303TIP3    H258325   6.127   4.098  11.557 -2.6417 -0.6870 -0.4156
12304TIP3   OH258326   6.372   5.156   2.936  0.1901 -0.2313 -0.1482
12304TIP3    H158327   6.384   5.126   2.846  2.3578 -0.5089  0.2228
12304TIP3    H258328   6.323   5.086   2.978 -0.3111 -0.3697 -0.9509
12305TIP3   OH258329   4.530   0.985  12.746  0.1464  0.4600  0.3514
12305TIP3    H158330   4.436   0.967  12.753  0.1749 -0.1761 -0.6651
12305TIP3    H258331   4.564   0.914  12.691  1.1534  0.8951  0.3907
12306TIP3   OH258332   2.253   4.358   2.768 -0.2606  0.2092  0.1634
12306TIP3    H158333   2.305   4.287   2.805  0.5707  1.0219  0.5925
12306TIP3    H258334   2.310   4.396   2.701 -0.1524  1.3382  0.8828
12307TIP3   OH258335   6.244   1.512  11.575 -0.2932 -0.2308 -0.3126
12307TIP3    H158336   6.294   1.508  11.493  0.2909  1.2915 -0.0519
12307TIP3    H258337   6.153   1.517  11.547 -0.1166 -0.0265 -0.8687
12308TIP3   OH258338   2.048   0.412  11.730 -0.3578  0.2807  0.2712
12308TIP3    H158339   1.988   0.356  11.680  0.2420 -0.5381  0.4671
12308TIP3    H258340   2.132   0.367  11.726  0.8411  2.5533 -1.9122
12309TIP3   OH258341   1.688   2.554   5.988  0.2064  0.5409  0.1465
12309TIP3    H158342   1.770   2.602   6.001 -0.0738  0.6973  1.5102
12309TIP3    H258343   1.682   2.496   6.064 -0.7751  0.2902 -0.1105
12310TIP3   OH258344   4.209   5.982   2.281 -0.1446  0.1033 -0.2451
12310TIP3    H158345   4.192   5.888   2.283  0.6846 -0.0326  0.5756
12310TIP3    H258346   4.133   6.019   2.236 -0.8995 -0.8636  0.2132
12311TIP3   OH258347   3.172   3.438   0.483 -0.5053  0.4124 -0.4779
12311TIP3    H158348   3.202   3.348   0.472 -0.2768  0.0710  2.4280
12311TIP3    H258349   3.079   3.435   0.462 -1.1117 -1.1263  2.2218
12312TIP3   OH258350   2.799   5.998   0.072 -0.3537  0.2756  0.0429
12312TIP3    H158351   2.844   5.997   0.157 -0.2340 -0.4754 -0.0250
12312TIP3    H258352   2.808   5.909   0.039  1.3241  1.0535 -1.6880
12313TIP3   OH258353   0.587   1.557   0.533  0.5737  0.2403  0.7783
12313TIP3    H158354   0.603   1.554   0.627 -0.9749  0.0644  1.0481
12313TIP3    H258355   0.531   1.633   0.521 -0.8509 -0.8787  0.2549
12314TIP3   OH258356   0.552   6.229  12.112 -0.5706 -0.8212 -0.2489
12314TIP3    H158357   0.560   6.140  12.146  0.2936 -1.2635 -1.5508
12314TIP3    H258358   0.643   6.257  12.096 -0.8145  0.4089  0.4342
12315TIP3   OH258359   3.490   4.741   5.018  0.6401  0.0454  0.0271
12315TIP3    H158360   3.464   4.816   4.964  1.7718 -0.1272 -0.7905
12315TIP3    H258361   3.467   4.766   5.107 -0.5997  0.6357 -0.4473
12316TIP3   OH258362   5.380   3.109  12.256  0.2855 -0.3946 -0.7417
12316TIP3    H158363   5.343   3.175  12.315  0.0349 -2.8211  1.9778
12316TIP3    H258364   5.329   3.117  12.176 -0.3003  2.1199 -0.1756
12317TIP3   OH258365   6.443   5.165  13.609 -0.2446  0.0195  0.3927
12317TIP3    H158366   6.536   5.183  13.603 -0.0515 -0.9496  0.3860
12317TIP3    H258367   6.420   5.182  13.700 -0.0034  0.0038  0.4556
12318TIP3   OH258368   2.579   6.148   0.829 -0.0448  0.0528  0.0120
12318TIP3    H158369   2.598   6.070   0.775 -0.2027  0.5613 -0.7866
12318TIP3    H258370   2.556   6.112   0.915  1.8951 -0.6962  0.2485
12319TIP3   OH258371   3.821   4.848   2.596  0.4488 -0.7164  0.3877
12319TIP3    H158372   3.871   4.908   2.541 -0.6094  0.1415  0.3392
12319TIP3    H258373   3.842   4.874   2.685 -0.0107 -0.2656  0.3668
12320TIP3   OH258374   4.339   0.326   2.414  0.8332 -0.1455 -0.1456
12320TIP3    H158375   4.329   0.308   2.321  0.5744 -1.0215  0.0458
12320TIP3    H258376   4.426   0.365   2.422  0.3338  1.1692 -0.9142
12321TIP3   OH258377   0.502   4.566  14.302  0.0578 -0.1657  0.0034
12321TIP3    H158378   0.442   4.563  14.376 -0.8049  1.8882 -0.5820
12321TIP3    H258379   0.552   4.647  14.314 -0.3175  0.3621 -1.7863
12322TIP3   OH258380   6.247   0.777  13.991 -0.3351 -0.1327  0.1607
12322TIP3    H158381   6.184   0.847  13.972  0.3962  0.1890 -1.1549
12322TIP3    H258382   6.312   0.818  14.048  0.5843  0.5410 -1.3367
12323TIP3   OH258383   3.091   1.165  11.036 -0.0251  0.2697 -0.1237
12323TIP3    H158384   3.001   1.135  11.024 -0.2904  0.4477  1.3917
12323TIP3    H258385   3.120   1.187  10.948 -1.3293 -0.1599 -0.6810
12324TIP3   OH258386   4.293   3.052   5.576  0.0134 -0.3324  0.5525
12324TIP3    H158387   4.243   3.132   5.589 -0.1833 -0.7188  2.3052
12324TIP3    H258388   4.236   2.982   5.607  0.8869 -0.9666  0.7719
12325TIP3   OH258389   1.024   6.558  12.428 -0.3307 -0.1196  0.1333
12325TIP3    H158390   1.037   6.593  12.340 -0.8560  1.2651  0.5953
12325TIP3    H258391   0.982   6.629  12.477  0.0227 -0.8366  1.5280
12326TIP3   OH258392   0.987   5.312  15.481 -0.4619 -0.0650  0.2515
12326TIP3    H158393   1.056   5.292  15.418 -1.5236  0.8669 -1.2198
12326TIP3    H258394   1.012   5.397  15.518 -1.6135  1.0529 -1.4517
12327TIP3   OH258395   2.783   3.477   4.230 -0.0858  0.7211 -0.3974
12327TIP3    H158396   2.720   3.504   4.296  1.5109  1.3513  0.9097
12327TIP3    H258397   2.807   3.388   4.255  1.0612  1.2185  0.3296
12328TIP3   OH258398   2.435   5.175  11.875 -0.2382  0.0420  0.5766
12328TIP3    H158399   2.454   5.091  11.916 -1.0312 -0.2845  0.2927
12328TIP3    H258400   2.373   5.154  11.804 -0.5959  0.8851  0.6312
12329TIP3   OH258401   1.337   4.441  16.981  0.4185  0.4983  0.2831
12329TIP3    H158402   1.284   4.489  17.044  1.0839  1.0738  0.4057
12329TIP3    H258403   1.388   4.509  16.936  1.5847 -0.1098  0.6649
12330TIP3   OH258404   4.631   0.621  12.862 -0.2253  0.1430  0.3110
12330TIP3    H158405   4.628   0.618  12.958 -0.3412 -0.0860  0.3007
12330TIP3    H258406   4.556   0.568  12.835 -1.0545  1.3873  0.1075
12331TIP3   OH258407   4.724   3.353   1.616  0.2980 -0.0172 -0.2431
12331TIP3    H158408   4.758   3.269   1.645  0.0553 -0.9857 -2.6391
12331TIP3    H258409   4.802   3.409   1.610  0.5637 -0.2852  0.6334
12332TIP3   OH258410   4.800   5.215   0.181 -0.6293  0.3826 -0.0730
12332TIP3    H158411   4.795   5.179   0.270 -3.7322  1.1040  0.1177
12332TIP3    H258412   4.827   5.141   0.127  0.5844 -0.2412  1.3510
12333TIP3   OH258413   2.164   4.813  15.185  0.1005 -0.0749 -0.3440
12333TIP3    H158414   2.170   4.870  15.261 -2.7514  0.5086 -0.5158
12333TIP3    H258415   2.105   4.743  15.212 -1.0514  0.2110 -2.0422
12334TIP3   OH258416   1.686   3.253  15.261 -0.1264 -0.0599 -0.3267
12334TIP3    H158417   1.599   3.280  15.289  0.0327 -0.2272  0.3375
12334TIP3    H258418   1.683   3.258  15.165 -0.4712  1.1327 -0.2630
12335TIP3   OH258419   5.078   3.369  13.927  0.3195  0.7292  0.1921
12335TIP3    H158420   5.171   3.359  13.948  0.3911 -0.1226 -0.4862
12335TIP3    H258421   5.050   3.446  13.976  1.9305  2.3454 -1.3235
12336TIP3   OH258422   6.509   1.688  13.787 -0.0948  0.2014  0.4332
12336TIP3    H158423   6.478   1.778  13.775 -0.0859  0.3554  1.4834
12336TIP3    H258424   6.580   1.678  13.724 -1.0213  0.4720 -0.6525
12337TIP3   OH258425   0.184   6.677  15.060  0.2543 -0.2436  0.2143
12337TIP3    H158426   0.094   6.663  15.090  0.3069 -0.7281  0.1447
12337TIP3    H258427   0.239   6.654  15.134  0.3614 -0.9271 -0.0735
12338TIP3   OH258428   4.984   4.018   0.804 -0.2264 -0.3547  0.5887
12338TIP3    H158429   5.056   3.983   0.857  0.4321  1.8508  1.1903
12338TIP3    H258430   4.906   3.971   0.836  0.6465 -1.3477  1.2936
12339TIP3   OH258431   0.482   4.131  14.442 -0.0237  0.2401  0.0192
12339TIP3    H158432   0.516   4.208  14.488  1.1390 -0.9229  1.1752
12339TIP3    H258433   0.395   4.157  14.412  0.4245  2.0487  0.2481
12340TIP3   OH258434   5.156   2.157  14.754  0.3027  0.0354  0.8350
12340TIP3    H158435   5.076   2.122  14.792 -0.0670  2.0754  2.0434
12340TIP3    H258436   5.212   2.081  14.742 -0.9320 -1.1239  2.1758
12341TIP3   OH258437   1.979   1.448   5.166 -0.1915  0.3311  0.6495
12341TIP3    H158438   1.983   1.411   5.255  0.6862  0.7126  0.7764
12341TIP3    H258439   2.070   1.469   5.145 -0.2669 -0.6101 -0.7071
12342TIP3   OH258440   0.362   5.523   2.168 -0.5877  0.7526 -0.4979
12342TIP3    H158441   0.333   5.612   2.187  1.3253  1.1698  0.5978
12342TIP3    H258442   0.336   5.473   2.246  1.5817  1.1315  0.4934
12343TIP3   OH258443   2.043   5.607  15.257  0.1777  0.0943 -0.2340
12343TIP3    H158444   2.022   5.646  15.172  1.0946 -0.3315 -0.6682
12343TIP3    H258445   2.060   5.515  15.237 -0.2108 -0.1470  0.5118
12344TIP3   OH258446   5.615   0.399  14.813  0.2747  0.5126 -0.0904
12344TIP3    H158447   5.567   0.431  14.736 -0.4400 -0.8972 -0.2397
12344TIP3    H258448   5.557   0.416  14.887 -0.4463 -1.1251 -0.2633
12345TIP3   OH258449   3.308   4.021   1.509  0.1022 -0.2792  0.1749
12345TIP3    H158450   3.291   4.046   1.600 -2.3998 -3.6468  0.7715
12345TIP3    H258451   3.326   3.927   1.514  0.5864 -0.3778 -2.7504
12346TIP3   OH258452   1.150   6.054   1.584  0.4443 -0.0222 -0.2937
12346TIP3    H158453   1.165   6.143   1.615 -1.0521 -0.2048  1.0498
12346TIP3    H258454   1.062   6.057   1.546  0.9225 -0.6147 -1.4639
12347TIP3   OH258455   5.636   0.634   0.949 -0.7189 -0.0162  0.0395
12347TIP3    H158456   5.627   0.652   1.043 -0.7005 -2.0208  0.4612
12347TIP3    H258457   5.547   0.611   0.921 -0.1479 -2.7886  0.3574
12348TIP3   OH258458   4.994   0.594   2.864  0.3745  0.1433 -0.3176
12348TIP3    H158459   5.008   0.682   2.829  1.4775  0.7358  1.6068
12348TIP3    H258460   4.899   0.587   2.875  0.5095  2.1392  2.2291
12349TIP3   OH258461   4.542   3.937   4.293 -0.0677  0.3131  0.4645
12349TIP3    H158462   4.526   4.029   4.271  0.9995  0.2472 -0.6222
12349TIP3    H258463   4.591   3.902   4.218 -0.3249 -1.1030  0.9320
12350TIP3   OH258464   4.600   0.323   5.329  0.2307 -0.2784  0.3454
12350TIP3    H158465   4.622   0.240   5.370  0.7986 -1.1955 -1.7430
12350TIP3    H258466   4.683   0.371   5.324  0.3709 -0.5996 -0.6208
12351TIP3   OH258467   1.525   2.705  15.268  0.4614 -0.7696 -0.2719
12351TIP3    H158468   1.610   2.709  15.311 -0.0408 -1.1841  0.7756
12351TIP3    H258469   1.536   2.639  15.199  1.4819  0.4476 -1.3044
12352TIP3   OH258470   2.741   6.776  16.404 -0.2910  0.3926  0.4159
12352TIP3    H158471   2.696   6.783  16.320 -0.2232 -0.3561  0.3177
12352TIP3    H258472   2.682   6.820  16.466  0.6202  2.7822 -0.3713
12353TIP3   OH258473   0.532   5.664  16.558  0.8395  0.3896 -0.1147
12353TIP3    H158474   0.449   5.622  16.582  2.2746 -1.8652  1.0863
12353TIP3    H258475   0.533   5.745  16.609 -0.2848  0.0903  0.4094
12354TIP3   OH258476   3.806   2.713  12.958 -0.5341 -0.4157 -0.7248
12354TIP3    H158477   3.842   2.645  12.901  0.1390 -1.2627  0.6703
12354TIP3    H258478   3.831   2.795  12.915 -1.6774 -1.0329 -2.6192
12355TIP3   OH258479   1.175   3.213  14.791 -0.3164 -0.0758  0.5019
12355TIP3    H158480   1.092   3.174  14.819 -0.0009 -0.7134  0.5521
12355TIP3    H258481   1.207   3.259  14.869 -0.4692 -0.0940  0.5754
12356TIP3   OH258482   1.612   4.242   2.499 -0.1576  0.0915 -0.1038
12356TIP3    H158483   1.677   4.172   2.506 -0.9106 -0.5878  0.1409
12356TIP3    H258484   1.632   4.285   2.416  0.9674  0.2592  0.2334
12357TIP3   OH258485   0.197   3.024  12.930 -0.9996  0.6616  0.7311
12357TIP3    H158486   0.265   3.045  12.995 -0.6541  3.0074 -0.3442
12357TIP3    H258487   0.185   2.929  12.938  3.7159 -0.1510 -0.2683
12358TIP3   OH258488   6.180   2.156   5.288  0.5131 -0.0049 -0.0037
12358TIP3    H158489   6.227   2.227   5.331 -2.3015  1.5063  0.7336
12358TIP3    H258490   6.104   2.140   5.345 -0.9847 -0.9273 -2.1782
12359TIP3   OH258491   1.852   4.771  11.597  0.2356  0.0016  0.4645
12359TIP3    H158492   1.874   4.843  11.656  0.3913 -0.1813  0.6303
12359TIP3    H258493   1.812   4.814  11.521 -2.4485  0.0294  1.8479
12360TIP3   OH258494   5.889   3.400   4.587 -0.2994  0.3432  0.4604
12360TIP3    H158495   5.885   3.483   4.540 -1.4402  0.9407  1.5836
12360TIP3    H258496   5.898   3.426   4.679  0.1739 -0.7945  0.7444
12361TIP3   OH258497   1.007   5.766   0.157  0.4825  0.0843 -0.4663
12361TIP3    H158498   1.065   5.691   0.173  1.0798  0.4781 -0.7686
12361TIP3    H258499   1.066   5.841   0.152  0.1160  0.2781 -2.3232
12362TIP3   OH258500   5.236   3.083  16.187  0.1164 -0.2783  0.1982
12362TIP3    H158501   5.171   3.051  16.125 -0.9201  2.2664 -0.1132
12362TIP3    H258502   5.319   3.049  16.154 -0.8224 -1.8584 -0.5805
12363TIP3   OH258503   1.867   4.785   0.304 -0.0266  0.3373  0.7856
12363TIP3    H158504   1.902   4.772   0.392  1.0739 -0.1317  0.2816
12363TIP3    H258505   1.823   4.870   0.308 -0.3052  0.1469  1.8883
12364TIP3   OH258506   3.413   4.846   4.234 -0.3335  0.2343  0.0185
12364TIP3    H158507   3.354   4.918   4.252 -0.6053 -0.0354  0.2156
12364TIP3    H258508   3.489   4.886   4.191 -0.3641  0.6663  0.3708
12365TIP3   OH258509   4.469   0.406   1.604  0.1409 -0.5017 -0.0890
12365TIP3    H158510   4.555   0.446   1.616  0.2812 -0.8971  0.2529
12365TIP3    H258511   4.438   0.388   1.693 -0.8755  0.8349 -0.1554
12366TIP3   OH258512   0.017   3.668   0.266 -0.2081  0.2461 -0.5319
12366TIP3    H158513   0.075   3.599   0.233  1.0269  1.5861 -1.2126
12366TIP3    H258514  -0.031   3.699   0.190 -1.1191 -0.1729 -0.1407
12367TIP3   OH258515   1.490   2.615   2.194  0.0747  0.1885  0.1365
12367TIP3    H158516   1.507   2.542   2.253 -1.6718  0.5169  1.0729
12367TIP3    H258517   1.555   2.681   2.218  1.2122 -0.7777 -0.2468
12368TIP3   OH258518   2.115   2.872  16.559 -0.5040  0.4938 -0.0942
12368TIP3    H158519   2.092   2.921  16.480 -0.4765  1.1679  0.3156
12368TIP3    H258520   2.129   2.939  16.626 -0.1046 -0.0531  0.3741
12369TIP3   OH258521   4.094   0.694  16.287  0.1039 -0.3501 -0.1795
12369TIP3    H158522   4.180   0.714  16.324 -0.0400 -0.6356  0.3179
12369TIP3    H258523   4.036   0.688  16.363 -0.2659 -0.6126 -0.4781
12370TIP3   OH258524   5.882   6.520  16.989 -0.0599 -0.0381 -0.0913
12370TIP3    H158525   5.818   6.451  17.001  0.3217 -0.5676 -1.1048
12370TIP3    H258526   5.951   6.481  16.936  0.2496  1.0572 -0.5229
12371TIP3   OH258527   2.192   5.204  12.898  0.0115  0.5636 -0.6478
12371TIP3    H158528   2.215   5.168  12.813 -1.8306 -1.9031 -0.1810
12371TIP3    H258529   2.111   5.253  12.883  0.9836  2.1735 -0.7434
12372TIP3   OH258530   1.731   2.703   4.634 -0.5460 -0.4967  0.1031
12372TIP3    H158531   1.805   2.709   4.573  0.3718  1.8244  1.4172
12372TIP3    H258532   1.666   2.650   4.587  1.5868 -1.8469 -1.4074
12373TIP3   OH258533   5.093   3.156  14.238 -0.1017 -0.1296 -0.4354
12373TIP3    H158534   5.140   3.230  14.200  0.2357 -0.0096  0.2154
12373TIP3    H258535   5.014   3.195  14.277  0.4280 -0.0127  0.5310
12374TIP3   OH258536   1.493   2.575   3.537  0.2279  0.3782  0.1478
12374TIP3    H158537   1.578   2.581   3.494 -0.0026 -1.2069 -0.5725
12374TIP3    H258538   1.497   2.493   3.586 -1.1316 -0.0599 -0.4608
12375TIP3   OH258539   6.197   1.250  15.464 -0.6378 -0.5162  0.1939
12375TIP3    H158540   6.185   1.271  15.372 -0.0695 -1.8505 -0.1996
12375TIP3    H258541   6.249   1.323  15.499 -0.2891 -0.3351 -0.6995
12376TIP3   OH258542   6.077   6.648  15.615  0.3515  0.1038  0.6120
12376TIP3    H158543   6.066   6.655  15.520  0.9149 -0.3058  0.5140
12376TIP3    H258544   5.992   6.618  15.647 -0.6919  2.8576  0.5476
12377TIP3   OH258545   5.821   0.102  12.274 -0.6398  0.0590  0.3026
12377TIP3    H158546   5.807   0.137  12.186 -0.1520  1.4796  0.7813
12377TIP3    H258547   5.754   0.035  12.284  0.5640 -1.5620 -1.9082
12378TIP3   OH258548   4.653   6.167  15.791 -0.5940 -0.1972  0.0503
12378TIP3    H158549   4.608   6.119  15.721 -1.4776 -0.8221  1.0209
12378TIP3    H258550   4.683   6.098  15.850  2.2555  0.1693 -0.9118
12379TIP3   OH258551   3.555   3.673   0.849 -0.1419  0.2465  0.5555
12379TIP3    H158552   3.545   3.584   0.817 -1.1491  0.8102 -0.7201
12379TIP3    H258553   3.558   3.728   0.770  0.4468  1.3451  1.3195
12380TIP3   OH258554   0.056   3.176   0.870  0.1486  0.0223 -0.0853
12380TIP3    H158555   0.148   3.156   0.854  0.4585  0.8435  0.5866
12380TIP3    H258556   0.010   3.094   0.854  0.7110  0.2000 -2.7410
12381TIP3   OH258557   2.736   4.704   6.360 -0.3990  0.1888 -0.0753
12381TIP3    H158558   2.687   4.623   6.349 -1.2280  0.3278  2.1951
12381TIP3    H258559   2.815   4.678   6.409  0.5069  0.3961 -1.3856
12382TIP3   OH258560   3.492   0.138   2.357  0.0685  0.1824 -0.1180
12382TIP3    H158561   3.431   0.169   2.424 -0.5680  1.1445 -1.1178
12382TIP3    H258562   3.556   0.086   2.405 -1.2895 -0.4837  1.0098
12383TIP3   OH258563   4.319   5.382  14.845 -0.1648  0.6745  0.5636
12383TIP3    H158564   4.278   5.366  14.930 -0.7394  0.6015  0.2743
12383TIP3    H258565   4.355   5.471  14.852  1.0768  0.1310  1.3911
12384TIP3   OH258566   4.079   0.987   0.117  0.0354 -0.2791  0.1266
12384TIP3    H158567   4.158   1.008   0.166 -0.5852 -1.6334  1.7384
12384TIP3    H258568   4.007   1.017   0.173 -0.6320 -0.0636 -0.8309
12385TIP3   OH258569   5.851   2.600  11.873  0.2538 -0.1990  0.4579
12385TIP3    H158570   5.935   2.574  11.836 -0.4219  0.1825 -1.4421
12385TIP3    H258571   5.789   2.535  11.839 -0.8253  1.6654 -1.3045
12386TIP3   OH258572   3.774   4.394  15.456  0.3920  0.1095 -0.8730
12386TIP3    H158573   3.788   4.299  15.454  0.3395  0.0687  0.3163
12386TIP3    H258574   3.830   4.426  15.527 -1.6535  0.5882  0.5728
12387TIP3   OH258575   1.510   1.576   5.588 -0.0246  0.1485  0.5313
12387TIP3    H158576   1.528   1.531   5.670  0.6050 -0.9533 -0.1835
12387TIP3    H258577   1.429   1.537   5.556  1.9438 -2.5659 -1.4490
12388TIP3   OH258578   2.946   0.015   4.948  0.2349 -0.3585 -0.3260
12388TIP3    H158579   2.989  -0.017   5.028  3.1467 -0.4849 -1.8813
12388TIP3    H258580   2.927   0.107   4.966  2.7339  0.1705 -0.1694
12389TIP3   OH258581   5.676   4.428   6.238 -0.1809  0.2153  0.2251
12389TIP3    H158582   5.763   4.398   6.265  0.1187  0.8095 -0.0652
12389TIP3    H258583   5.677   4.523   6.255 -0.7030  0.2560  0.0345
12390TIP3   OH258584   0.069   5.169   3.385 -0.0468 -0.2080  0.1836
12390TIP3    H158585   0.013   5.169   3.462  2.7426 -1.2974  2.2754
12390TIP3    H258586   0.057   5.083   3.346  0.3706 -0.5451  0.7918
12391TIP3   OH258587   5.684   2.276   1.314 -0.0930 -0.1145  0.1604
12391TIP3    H158588   5.632   2.240   1.386  1.0047  1.1779  1.6544
12391TIP3    H258589   5.773   2.245   1.332 -0.1866 -1.7915 -2.0232
12392TIP3   OH258590   5.459   2.857   2.758 -0.3498  0.0256  0.1493
12392TIP3    H158591   5.448   2.902   2.674  1.8832 -1.4516 -1.0016
12392TIP3    H258592   5.530   2.904   2.801 -1.7982  1.0711  1.4791
12393TIP3   OH258593   5.865   2.153  11.152 -0.0445  0.5610 -0.5139
12393TIP3    H158594   5.866   2.126  11.061 -0.6271 -2.3310  0.3008
12393TIP3    H258595   5.786   2.208  11.159 -0.8552 -0.4631 -1.4102
12394TIP3   OH258596   4.153   6.736   4.949 -0.1932 -0.1491  0.1248
12394TIP3    H158597   4.224   6.687   4.990 -0.3106 -0.4625 -0.0418
12394TIP3    H258598   4.140   6.693   4.864 -0.7939 -0.2957  0.2837
12395TIP3   OH258599   0.860   3.244   3.018 -0.3839  0.6288 -0.1309
12395TIP3    H158600   0.895   3.271   2.933 -1.2629  1.0007 -0.3804
12395TIP3    H258601   0.932   3.257   3.079 -0.4742  2.6869 -0.3999
12396TIP3   OH258602   5.540   3.654   5.785 -0.1240  0.2480  0.0075
12396TIP3    H158603   5.456   3.671   5.741  1.0782 -0.1981 -2.6088
12396TIP3    H258604   5.591   3.734   5.771  0.3709  0.0031  0.4111
12397TIP3   OH258605   3.451   4.480  17.048 -0.0989 -0.2102  0.5901
12397TIP3    H158606   3.462   4.534  16.970  0.4601 -0.4255  0.5156
12397TIP3    H258607   3.387   4.527  17.101 -0.3645  0.0133  0.0693
12398TIP3   OH258608   4.717   1.299   1.961  0.2163  0.0650 -0.2378
12398TIP3    H158609   4.641   1.270   2.012  0.2969  1.4530  0.6893
12398TIP3    H258610   4.758   1.217   1.931 -0.8572 -0.7237  0.4046
12399TIP3   OH258611   1.257   4.136  16.234  0.4284 -0.2603  0.1823
12399TIP3    H158612   1.204   4.117  16.311  0.0166  1.4975  0.3549
12399TIP3    H258613   1.310   4.058  16.221  0.0362 -0.8195  1.8595
12400TIP3   OH258614   5.283   4.105   5.454  0.6435 -0.4137  0.4486
12400TIP3    H158615   5.362   4.102   5.399  0.4666 -0.7135  0.2119
12400TIP3    H258616   5.255   4.014   5.460 -0.6094 -0.1192 -0.8024
12401TIP3   OH258617   3.526   1.044   2.089  0.0618 -0.8933  0.3921
12401TIP3    H158618   3.434   1.020   2.094 -0.0432 -0.4329  0.7469
12401TIP3    H258619   3.526   1.140   2.090  0.5391 -0.8907  0.3451
12402TIP3   OH258620   0.221   4.416  13.430 -0.1673  0.3300 -0.0146
12402TIP3    H158621   0.213   4.479  13.502  0.6443  1.4978 -0.9176
12402TIP3    H258622   0.256   4.468  13.357  0.0553 -1.0697 -0.9202
12403TIP3   OH258623   5.549   6.545  16.394 -0.9525  0.2749 -0.1320
12403TIP3    H158624   5.585   6.587  16.316 -0.5592  0.1042 -0.0420
12403TIP3    H258625   5.454   6.546  16.379 -0.7983 -1.1954 -1.3609
12404TIP3   OH258626   2.250   3.130  11.030  0.0561  0.7358  0.2113
12404TIP3    H158627   2.225   3.201  11.090  1.9426  2.7061 -1.2697
12404TIP3    H258628   2.192   3.141  10.955 -1.0021 -0.5705  0.8005
12405TIP3   OH258629   3.427   6.512   4.774  0.1945  0.1466  0.0768
12405TIP3    H158630   3.346   6.499   4.824 -0.6996  1.7143 -0.9172
12405TIP3    H258631   3.417   6.456   4.697  0.5101 -0.4373  0.4590
12406TIP3   OH258632   1.091   1.112  16.608  0.1630 -0.0688 -0.5685
12406TIP3    H158633   1.056   1.036  16.561 -0.4313 -0.3618  0.3290
12406TIP3    H258634   1.085   1.087  16.700 -0.8566  1.4023 -0.2191
12407TIP3   OH258635   0.999   5.538  11.575  0.0345  0.2655 -0.1799
12407TIP3    H158636   0.967   5.503  11.492 -0.0067  1.1855 -0.5528
12407TIP3    H258637   0.944   5.495  11.642 -1.3561  1.1130 -0.7542
12408TIP3   OH258638   2.726   3.895   0.319 -0.3373 -0.0564  0.1168
12408TIP3    H158639   2.637   3.919   0.346  0.5889  1.6594  1.7899
12408TIP3    H258640   2.728   3.912   0.225 -1.4487  1.0030  0.2618
12409TIP3   OH258641   4.661   4.354  15.242  0.2394  0.5944 -0.0279
12409TIP3    H158642   4.653   4.366  15.337 -0.0895  0.4491 -0.0344
12409TIP3    H258643   4.593   4.291  15.220  0.7935  0.0765 -0.2575
12410TIP3   OH258644   6.266   6.283   1.734  0.1648  0.2672 -0.2212
12410TIP3    H158645   6.362   6.283   1.741  0.1454 -0.3292  0.0900
12410TIP3    H258646   6.246   6.363   1.686  0.7743  0.7466  0.3026
12411TIP3   OH258647   6.133   3.345   2.483  0.1618  0.4180  0.7693
12411TIP3    H158648   6.201   3.281   2.463 -1.8539 -1.7737  0.6162
12411TIP3    H258649   6.133   3.350   2.579 -1.5677 -2.0769  0.9651
12412TIP3   OH258650   0.212   5.227  15.024 -0.4361  0.0839 -0.6684
12412TIP3    H158651   0.149   5.298  15.036  0.8742  1.3444 -1.0737
12412TIP3    H258652   0.163   5.159  14.978 -1.8818  0.4762  0.2698
12413TIP3   OH258653   5.329   5.647   0.968 -0.3258  0.3081 -0.4736
12413TIP3    H158654   5.419   5.673   0.986 -0.7405  0.6768  1.2500
12413TIP3    H258655   5.292   5.629   1.055 -1.2397 -2.1414 -1.3189
12414TIP3   OH258656   1.678   4.907   3.129 -0.7636 -0.1855  0.2475
12414TIP3    H158657   1.628   4.842   3.080 -1.0877 -0.4801  0.9704
12414TIP3    H258658   1.723   4.958   3.062 -0.8841 -0.8519 -0.3390
12415TIP3   OH258659   0.919   3.976  16.146 -0.0598  0.2353 -0.2086
12415TIP3    H158660   0.874   3.914  16.088  1.1885  0.1000 -1.0577
12415TIP3    H258661   1.006   3.939  16.158 -0.0660  0.6613  1.1534
12416TIP3   OH258662   1.069   6.317  16.615  0.6018 -0.3593  0.0471
12416TIP3    H158663   1.080   6.229  16.652  1.1392 -0.6812 -0.8828
12416TIP3    H258664   1.126   6.373  16.670 -0.0660 -0.5110  0.9045
12417TIP3   OH258665   5.400   4.253   3.004  0.1031 -0.5305  0.2693
12417TIP3    H158666   5.403   4.348   3.015 -0.0401 -0.4183 -0.6225
12417TIP3    H258667   5.435   4.237   2.917 -1.7265 -1.1358 -0.3713
12418TIP3   OH258668   0.604   1.304  13.888  0.5644 -0.5126  0.1668
12418TIP3    H158669   0.581   1.379  13.833  0.9685  0.2614  1.0505
12418TIP3    H258670   0.698   1.313  13.903  1.0721 -2.4281 -1.5544
12419TIP3   OH258671   3.491   1.158  11.529  0.1323  0.6304 -0.4001
12419TIP3    H158672   3.584   1.135  11.526  0.1911  0.8117 -0.0225
12419TIP3    H258673   3.451   1.085  11.577  0.0428  0.4305 -0.7822
12420TIP3   OH258674   3.700   0.961  17.019 -0.3111 -0.2065  0.0119
12420TIP3    H158675   3.612   0.934  16.990 -0.2421  0.1113 -0.4954
12420TIP3    H258676   3.729   1.024  16.953  0.2402 -0.1919  0.2638
12421TIP3   OH258677   5.882   6.567  16.566 -0.0419 -0.1664  0.2441
12421TIP3    H158678   5.791   6.549  16.587 -0.1589  0.2443  0.1079
12421TIP3    H258679   5.929   6.488  16.590 -0.4305 -0.3652  0.3489
12422TIP3   OH258680   3.695   1.103   1.639 -0.1305 -0.3457  0.3660
12422TIP3    H158681   3.687   1.169   1.708 -1.5568 -1.3646  1.2083
12422TIP3    H258682   3.708   1.021   1.686  0.0307 -0.8898 -0.6211
12423TIP3   OH258683   2.126   3.705  16.081 -0.1417  0.5375 -0.2857
12423TIP3    H158684   2.167   3.717  16.167  0.1983  0.0750 -0.3775
12423TIP3    H258685   2.199   3.711  16.019 -0.1088 -0.9661 -0.4032
12424TIP3   OH258686   4.072   5.818   3.858  0.2579  0.4713 -0.5137
12424TIP3    H158687   4.160   5.848   3.882  0.5465 -1.4349  0.9055
12424TIP3    H258688   4.077   5.722   3.864 -1.9213  0.3516 -0.4007
12425TIP3   OH258689   3.570   1.782   5.404  0.0514  0.4687 -0.9421
12425TIP3    H158690   3.536   1.761   5.318 -2.6332  0.0851  0.1770
12425TIP3    H258691   3.643   1.721   5.417 -2.7717 -3.0679 -0.8634
12426TIP3   OH258692   1.505   0.317   2.334 -0.0806  0.1325 -0.1495
12426TIP3    H158693   1.424   0.324   2.283 -0.2462  0.8095  0.1968
12426TIP3    H258694   1.569   0.366   2.283  0.0022 -0.0251 -0.1978
12427TIP3   OH258695   2.405   5.719   2.573  0.4020 -0.7307  0.2860
12427TIP3    H158696   2.423   5.793   2.631  0.0227  0.2767 -0.8491
12427TIP3    H258697   2.381   5.648   2.632 -1.8676  0.8022  1.3172
12428TIP3   OH258698   4.060   0.097   1.877 -0.2268  0.7027 -0.0824
12428TIP3    H158699   3.973   0.131   1.899  0.0566  1.1688  0.3150
12428TIP3    H258700   4.076   0.030   1.944 -0.9425 -0.4927 -1.0853
12429TIP3   OH258701   1.038   3.433   4.958  0.4578  0.2210 -0.0030
12429TIP3    H158702   1.084   3.349   4.959  2.4998  1.3127  0.7702
12429TIP3    H258703   1.015   3.449   5.049  2.3744  1.6864  0.2645
12430TIP3   OH258704   5.249   0.766  13.105 -0.0056 -0.0290  0.3989
12430TIP3    H158705   5.281   0.855  13.091 -0.8860  0.3618  0.8027
12430TIP3    H258706   5.313   0.710  13.063  0.8892  0.7676  0.6873
12431TIP3   OH258707   3.428   1.333  13.679  0.2145  0.0914  0.0653
12431TIP3    H158708   3.519   1.347  13.654  0.2590 -0.5372 -0.1369
12431TIP3    H258709   3.394   1.421  13.699  0.9854  0.2804  0.5605
12432TIP3   OH258710   1.676   2.329  11.711 -0.1110  0.3897  0.4156
12432TIP3    H158711   1.597   2.318  11.658 -0.4094 -1.8090  1.2750
12432TIP3    H258712   1.660   2.408  11.763 -1.8508 -0.1731  0.7494
12433TIP3   OH258713   4.729   4.442  14.021 -0.1301 -0.2906 -0.4307
12433TIP3    H158714   4.649   4.472  13.978  0.7692 -1.6879 -3.1521
12433TIP3    H258715   4.700   4.410  14.107 -2.1913  1.0096 -0.6297
12434TIP3   OH258716   5.820   2.109   0.835  0.1046  0.1525 -0.2588
12434TIP3    H158717   5.783   2.070   0.755 -2.2110 -0.6091  1.1138
12434TIP3    H258718   5.798   2.046   0.904  2.7329  0.4352  0.8831
12435TIP3   OH258719   2.144   5.970  12.780  0.1634 -0.2217 -0.0866
12435TIP3    H158720   2.059   6.009  12.760 -0.3121 -1.3312 -0.2499
12435TIP3    H258721   2.206   6.023  12.731 -0.5663 -0.1883 -1.0031
12436TIP3   OH258722   4.967   6.409  13.364 -0.6968  0.2682 -0.4737
12436TIP3    H158723   4.892   6.391  13.420 -1.8547  1.7070 -1.5182
12436TIP3    H258724   4.978   6.504  13.369  1.6847 -0.0231  0.4490
12437TIP3   OH258725   5.956   0.175  15.308  0.4646 -0.5291 -0.2715
12437TIP3    H158726   5.989   0.181  15.398  0.9743 -1.2767 -0.4042
12437TIP3    H258727   6.034   0.187  15.253  0.0042  0.8717 -0.6283
12438TIP3   OH258728   1.682   0.129  12.477 -0.3453  0.0600 -0.8972
12438TIP3    H158729   1.660   0.099  12.566 -1.8072  1.3956 -0.7779
12438TIP3    H258730   1.748   0.197  12.491 -1.4220  1.0945 -0.7208
12439TIP3   OH258731   3.065   3.889   0.703  0.0197 -0.0540 -0.3154
12439TIP3    H158732   2.996   3.835   0.666 -0.8445 -2.0567  4.0096
12439TIP3    H258733   3.146   3.841   0.685 -0.1262  0.1002 -1.4489
12440TIP3   OH258734   5.453   1.207  12.005  0.1427  0.2404  0.4298
12440TIP3    H158735   5.512   1.162  11.943 -0.8711 -0.5422  0.0265
12440TIP3    H258736   5.505   1.216  12.085  0.0822 -2.4344  0.8155
12441TIP3   OH258737   0.109   1.757  16.329 -0.3756 -0.1339 -0.4067
12441TIP3    H158738   0.049   1.688  16.354 -0.2645 -0.0978 -0.0272
12441TIP3    H258739   0.194   1.730  16.365 -0.5998  0.8339  0.9231
12442TIP3   OH258740   3.079   3.246  15.792  0.3621 -0.6656 -0.3735
12442TIP3    H158741   3.134   3.267  15.867 -2.1408  0.1210  1.2962
12442TIP3    H258742   3.060   3.330  15.751  2.5784 -1.1725 -2.5962
12443TIP3   OH258743   5.725   2.302   3.131  0.7325 -0.1019  0.2873
12443TIP3    H158744   5.680   2.332   3.210 -0.5692 -2.4530  0.5165
12443TIP3    H258745   5.794   2.366   3.116  0.7435  0.6059  3.0999
12444TIP3   OH258746   5.180   1.433  11.569 -0.1169  0.0552 -0.1248
12444TIP3    H158747   5.219   1.422  11.656 -1.0742 -2.5595  0.0261
12444TIP3    H258748   5.105   1.490  11.583 -0.3692 -0.5032  0.7928
12445TIP3   OH258749   3.867   5.341  13.444 -0.4600  0.5711 -0.4822
12445TIP3    H158750   3.916   5.372  13.368  1.4519  0.2623  0.6067
12445TIP3    H258751   3.834   5.255  13.418  0.5702  0.2717 -0.7953
12446TIP3   OH258752   4.856   4.057  10.959  0.3554  0.4630 -0.1865
12446TIP3    H158753   4.938   4.093  10.926  1.2410  0.0428  1.5494
12446TIP3    H258754   4.811   4.132  10.997 -0.2029  0.7425 -1.3561
12447TIP3   OH258755   3.104   4.883  16.628  0.1208 -0.0777 -1.2272
12447TIP3    H158756   3.020   4.872  16.583 -1.3886  0.0898  1.4293
12447TIP3    H258757   3.103   4.974  16.659  1.1187 -0.1708 -0.9028
12448TIP3   OH258758   1.855   4.107  11.208  0.4203 -0.1350  0.2142
12448TIP3    H158759   1.780   4.050  11.226  1.6518 -1.5708  0.9088
12448TIP3    H258760   1.865   4.159  11.288  0.5153 -0.3645  0.3553
12449TIP3   OH258761   4.682   0.116   2.293 -0.1212  0.7520  0.1755
12449TIP3    H158762   4.665   0.206   2.322 -0.6509  0.6998  0.0258
12449TIP3    H258763   4.637   0.061   2.357 -0.0095  0.6010  0.1240
12450TIP3   OH258764   6.700   3.819  16.624  0.1708  0.2078 -0.1210
12450TIP3    H158765   6.614   3.840  16.659  0.0524 -0.1796 -0.1809
12450TIP3    H258766   6.735   3.753  16.684  0.3100  0.1564 -0.2565
12451TIP3   OH258767   3.941   0.179   1.307  0.4675  0.0822 -0.7569
12451TIP3    H158768   3.888   0.117   1.358  0.0692  0.7824 -0.3072
12451TIP3    H258769   3.930   0.150   1.217  2.7048 -2.3288 -0.3242
12452TIP3   OH258770   4.728   2.213   1.297  0.2602 -0.1070  0.6126
12452TIP3    H158771   4.673   2.134   1.293 -0.2767  0.2735  0.4560
12452TIP3    H258772   4.755   2.229   1.207  1.4803 -0.8855  0.8281
12453TIP3   OH258773   5.349   0.266   3.275 -0.2709  0.2656  0.0366
12453TIP3    H158774   5.423   0.211   3.250 -0.4447  0.9083 -1.9302
12453TIP3    H258775   5.389   0.346   3.309 -0.0160 -0.9953  2.9176
12454TIP3   OH258776   4.608   3.239  10.878 -0.7283  0.3198  0.1216
12454TIP3    H158777   4.619   3.146  10.856 -1.9685  0.3874 -0.8084
12454TIP3    H258778   4.697   3.268  10.900 -0.6444 -1.6048  2.5670
12455TIP3   OH258779   3.198   3.057  12.473  0.4657 -0.3460 -0.4749
12455TIP3    H158780   3.187   3.117  12.399  0.7135  0.3107  0.0105
12455TIP3    H258781   3.293   3.049  12.484  0.4367 -0.9568 -0.6354
12456TIP3   OH258782   5.185   0.505   3.138  0.4886  0.8487 -0.3913
12456TIP3    H158783   5.245   0.570   3.102  1.1956 -0.9488 -2.5807
12456TIP3    H258784   5.214   0.422   3.100 -1.0488 -0.6020  1.5007
12457TIP3   OH258785   1.907   3.522   3.300  0.0341  0.0432 -0.2459
12457TIP3    H158786   1.935   3.454   3.238 -1.0775 -0.2572 -0.4353
12457TIP3    H258787   1.988   3.562   3.330  0.6469 -0.6039 -1.0086
12458TIP3   OH258788   0.500   1.945   4.918  0.0365  0.0590 -0.4569
12458TIP3    H158789   0.465   1.856   4.919 -0.0008  0.0500 -1.7034
12458TIP3    H258790   0.585   1.938   4.962  1.2291 -1.1231 -2.8685
12459TIP3   OH258791   3.801   6.429  13.041 -0.2381  0.2208  0.3563
12459TIP3    H158792   3.880   6.426  12.988 -0.1707  0.1966  0.4582
12459TIP3    H258793   3.749   6.500  13.003 -0.1583  0.2511  0.3036
12460TIP3   OH258794   2.582   4.545  15.065  0.3851  0.2436  0.3249
12460TIP3    H158795   2.592   4.527  15.159  1.4110 -2.2717 -0.2114
12460TIP3    H258796   2.504   4.496  15.040  1.8240 -1.6004 -0.7008
12461TIP3   OH258797   5.206   3.688   4.955  0.0962 -0.4348 -0.3661
12461TIP3    H158798   5.245   3.622   4.898  0.4871 -1.0344  0.5665
12461TIP3    H258799   5.112   3.685   4.935  0.2272 -0.6431 -0.9618
12462TIP3   OH258800   1.513   6.671  14.704  0.8759 -0.2135 -0.3257
12462TIP3    H158801   1.421   6.645  14.709  1.3064 -1.4672  1.8467
12462TIP3    H258802   1.526   6.699  14.613 -1.4028 -0.8994 -0.8851
12463TIP3   OH258803   1.596   0.460   5.374  0.0567 -0.3184 -0.3086
12463TIP3    H158804   1.536   0.417   5.436  0.8320 -1.0693 -0.0694
12463TIP3    H258805   1.647   0.388   5.337  0.0066  0.1908 -1.3940
12464TIP3   OH258806   3.983   1.983  14.799  0.1785  0.0870  0.6676
12464TIP3    H158807   3.923   2.031  14.742  0.3812  1.2323  1.3909
12464TIP3    H258808   4.052   2.046  14.819  0.5770 -0.5853  1.4489
12465TIP3   OH258809   0.258   2.624   0.719  0.5641 -0.3376 -0.4686
12465TIP3    H158810   0.215   2.666   0.793 -2.2203 -0.0471 -2.1913
12465TIP3    H258811   0.346   2.664   0.717  0.2183  0.5843  1.8636
12466TIP3   OH258812   5.936   3.315   1.440 -0.0072  0.2462 -0.1151
12466TIP3    H158813   5.899   3.236   1.479 -0.7678  0.5045 -0.3128
12466TIP3    H258814   6.030   3.311   1.462 -0.1529 -0.3939  0.3987
12467TIP3   OH258815   3.760   2.032   5.295 -0.0562  0.3251  0.6256
12467TIP3    H158816   3.747   2.040   5.201  2.9046 -1.3823  0.0127
12467TIP3    H258817   3.686   1.980   5.326 -1.3473  1.3886 -0.6469
12468TIP3   OH258818   2.528   4.901   6.346  0.0518  0.7342 -0.1562
12468TIP3    H158819   2.460   4.839   6.370 -0.1720  0.3058 -1.8479
12468TIP3    H258820   2.609   4.861   6.378 -0.1367 -0.2578 -0.8877
12469TIP3   OH258821   5.756   5.799  14.785 -0.0651 -0.7349 -0.1713
12469TIP3    H158822   5.803   5.793  14.868  0.2783  0.4378 -0.2703
12469TIP3    H258823   5.817   5.844  14.726 -0.8424 -0.3040 -0.6565
12470TIP3   OH258824   3.131   0.000  15.375 -0.3723  0.6226  0.0030
12470TIP3    H158825   3.166   0.087  15.355  0.0340  0.7453  1.2015
12470TIP3    H258826   3.072   0.015  15.449 -2.8986  0.3914 -1.8938
12471TIP3   OH258827   2.744   6.448  14.352  0.2768 -0.2274 -0.4185
12471TIP3    H158828   2.709   6.504  14.422 -0.8350 -0.7411 -0.5569
12471TIP3    H258829   2.822   6.494  14.321  0.4101  0.3269  0.7243
12472TIP3   OH258830   3.515   3.617   5.453  0.0029 -0.6035 -0.1805
12472TIP3    H158831   3.503   3.523   5.455 -1.2526 -0.4454  0.3178
12472TIP3    H258832   3.434   3.651   5.415  0.2838  0.2918  0.0001
12473TIP3   OH258833   6.641   3.723   5.863  0.1517  0.0716 -0.0459
12473TIP3    H158834   6.607   3.646   5.818 -1.4377  0.4875  0.4265
12473TIP3    H258835   6.632   3.702   5.956 -0.4988  0.9076  0.0845
12474TIP3   OH258836   1.460   6.678   0.632 -0.0892  0.4730  0.0866
12474TIP3    H158837   1.414   6.762   0.630  0.1100  0.5842  0.0562
12474TIP3    H258838   1.400   6.616   0.590  0.0444  0.7443 -0.5112
12475TIP3   OH258839   6.744   6.002  10.347  0.2442  0.1346  0.1871
12475TIP3    H158840   6.819   5.952  10.380 -0.2600 -0.7422  0.0185
12475TIP3    H258841   6.773   6.036  10.263  0.8595  0.7736  0.6512
12476TIP3   OH258842   1.310   3.066  11.395 -0.2078 -0.8493 -0.0327
12476TIP3    H158843   1.267   3.021  11.322 -1.1959 -0.0422  0.0487
12476TIP3    H258844   1.360   3.136  11.354  1.3469 -2.0074 -0.1586
12477TIP3   OH258845   2.837   4.580  15.534  0.4480  0.0418  0.0526
12477TIP3    H158846   2.880   4.645  15.590  1.6832 -1.1624  0.5369
12477TIP3    H258847   2.753   4.564  15.577  0.0033  1.5102 -0.2263
12478TIP3   OH258848   3.969   0.578   4.970 -0.2912  0.6250  0.2886
12478TIP3    H158849   3.974   0.483   4.956 -0.0445  0.8340 -1.1605
12478TIP3    H258850   4.035   0.596   5.036  1.4005  0.1065 -1.2175
12479TIP3   OH258851   0.169   0.706  15.455 -0.5058 -0.4852  0.0615
12479TIP3    H158852   0.231   0.734  15.388 -0.2283  0.7851  0.8166
12479TIP3    H258853   0.188   0.764  15.530 -0.5026 -2.1702  1.3898
12480TIP3   OH258854   1.301   2.850   5.711  0.0367  0.1706 -0.9173
12480TIP3    H158855   1.258   2.768   5.733 -0.1495  0.0147 -1.8334
12480TIP3    H258856   1.229   2.908   5.685  0.1746  0.5991 -0.3421
12481TIP3   OH258857   0.185   3.613  11.355 -0.6007 -0.1114 -0.2126
12481TIP3    H158858   0.120   3.682  11.340 -1.9536 -1.4941 -0.9328
12481TIP3    H258859   0.216   3.590  11.267  1.5802  1.1648  0.1839
12482TIP3   OH258860   3.225   5.467   0.574  0.0961  0.3542  0.1449
12482TIP3    H158861   3.320   5.471   0.573  0.1126  0.1487  0.5029
12482TIP3    H258862   3.199   5.521   0.648 -0.1561  1.8263 -1.0039
12483TIP3   OH258863   2.202   0.251   0.892 -0.5621  0.3000  0.2047
12483TIP3    H158864   2.156   0.287   0.968 -1.6494 -0.2629 -0.1655
12483TIP3    H258865   2.221   0.160   0.917 -2.2645 -0.3452 -0.7500
12484TIP3   OH258866   4.918   3.943  16.004  0.2948 -0.0489 -0.1082
12484TIP3    H158867   4.876   3.936  16.089 -1.9701  0.0390 -1.1981
12484TIP3    H258868   4.854   3.988  15.949  2.6419  2.0077 -1.2564
12485TIP3   OH258869   6.750   2.276  12.355 -0.5812 -0.4446  0.5451
12485TIP3    H158870   6.728   2.365  12.327 -0.6719 -0.3131  1.0380
12485TIP3    H258871   6.777   2.286  12.446  0.7409 -0.7163  0.1953
12486TIP3   OH258872   1.725   1.637  13.926  0.1366 -0.4962  0.0798
12486TIP3    H158873   1.811   1.667  13.896 -0.0395 -0.5779 -0.5240
12486TIP3    H258874   1.723   1.544  13.904  0.5647 -0.8960  1.6737
12487TIP3   OH258875   4.368   0.359   2.679  0.7960  0.5748 -0.1447
12487TIP3    H158876   4.299   0.424   2.670 -0.2442 -0.3935  0.8414
12487TIP3    H258877   4.348   0.293   2.612 -0.1047 -0.4680  1.1260
12488TIP3   OH258878   0.218   1.010   0.720  0.1786  0.3231 -0.1318
12488TIP3    H158879   0.300   1.020   0.768  0.2932  1.6039 -0.5849
12488TIP3    H258880   0.150   1.029   0.785  0.1808 -1.8543  0.5425
12489TIP3   OH258881   2.721   5.155  13.664 -0.3596  0.4607 -0.3920
12489TIP3    H158882   2.691   5.127  13.578 -0.7359 -1.4320  0.3343
12489TIP3    H258883   2.791   5.218  13.646  0.4035 -0.8429 -2.0623
12490TIP3   OH258884   0.555   2.767   2.423 -0.2795  0.2541  0.3942
12490TIP3    H158885   0.622   2.833   2.407 -1.5489  2.4843  3.7105
12490TIP3    H258886   0.476   2.803   2.382 -0.4725 -0.2285  0.3416
12491TIP3   OH258887   1.634   0.038  15.827 -0.0457  0.2408 -0.1415
12491TIP3    H158888   1.722   0.016  15.856 -0.2093 -2.4418 -1.5702
12491TIP3    H258889   1.646   0.116  15.772  1.7125 -1.0839 -1.7124
12492TIP3   OH258890   0.367   3.731   1.842 -0.3584 -0.1310  0.2544
12492TIP3    H158891   0.277   3.761   1.827 -0.5293  0.8277  2.9265
12492TIP3    H258892   0.363   3.685   1.927  1.6733 -0.0282  0.4287
12493TIP3   OH258893   0.403   3.461   4.769  0.1081  0.0844  0.0630
12493TIP3    H158894   0.310   3.464   4.792 -0.7833  1.2560 -3.3995
12493TIP3    H258895   0.437   3.547   4.795  0.2838 -0.4110  1.4960
12494TIP3   OH258896   1.318   5.276  12.212  0.9638 -0.1966  0.0128
12494TIP3    H158897   1.388   5.273  12.278  1.0818 -0.3199 -0.1191
12494TIP3    H258898   1.320   5.367  12.181 -1.7905  1.0015  3.0908
12495TIP3   OH258899   5.914   2.127  13.610 -0.2280  0.7278  0.5281
12495TIP3    H158900   5.999   2.090  13.633 -0.2622 -0.1189 -0.6400
12495TIP3    H258901   5.850   2.063  13.643 -0.3189  0.1712 -0.7069
12496TIP3   OH258902   2.430   1.262  11.746  0.4231  0.1349  0.2562
12496TIP3    H158903   2.426   1.323  11.820  0.5124  1.3137 -0.6987
12496TIP3    H258904   2.350   1.209  11.755 -0.5679  1.5607  0.1116
12497TIP3   OH258905   4.832   2.422  10.861 -0.7003 -0.0684  0.3140
12497TIP3    H158906   4.751   2.409  10.911 -0.5468 -0.1662  0.5359
12497TIP3    H258907   4.803   2.465  10.781 -0.7851  1.4372  1.1196
12498TIP3   OH258908   2.137   6.435   4.240 -0.2505  0.2354 -0.0509
12498TIP3    H158909   2.082   6.456   4.164  0.2091 -0.6319 -0.6351
12498TIP3    H258910   2.179   6.518   4.262 -0.7930  0.6152 -0.4156
12499TIP3   OH258911   1.253   2.542   5.667 -0.3539  0.1744 -0.1262
12499TIP3    H158912   1.337   2.557   5.710 -1.3954  0.8167  1.6973
12499TIP3    H258913   1.210   2.475   5.719 -0.3937 -1.2437 -1.9042
12500TIP3   OH258914   4.709   5.985   0.796  0.0329  0.4110 -0.3686
12500TIP3    H158915   4.671   5.944   0.874 -1.0920 -0.7803 -1.5108
12500TIP3    H258916   4.686   6.078   0.804 -1.9864 -0.0679 -0.3653
12501TIP3   OH258917   0.748   1.665  11.590  0.4155 -0.2787  0.1307
12501TIP3    H158918   0.765   1.585  11.541  0.3428 -0.2540  0.0646
12501TIP3    H258919   0.834   1.706  11.600  0.5775 -0.7991  0.9299
12502TIP3   OH258920   5.712   0.804   1.519 -0.2072  0.3740 -0.1614
12502TIP3    H158921   5.792   0.800   1.467  0.8465 -0.7470  1.5051
12502TIP3    H258922   5.643   0.824   1.456  1.5573  2.6994 -1.4407
12503TIP3   OH258923   2.991   4.101   0.549  0.0458 -0.2930 -0.2188
12503TIP3    H158924   3.067   4.141   0.505  1.0838 -1.7158  0.2423
12503TIP3    H258925   3.028   4.028   0.598 -1.2280  0.6251  2.2243
12504TIP3   OH258926   1.693   0.541  14.672 -0.5813  0.1742 -0.0673
12504TIP3    H158927   1.629   0.478  14.640  0.1977 -0.0753 -1.1653
12504TIP3    H258928   1.775   0.516  14.629 -0.1579  1.6432 -0.1540
12505TIP3   OH258929   3.252   2.586  12.627 -0.8259 -0.1029 -0.3215
12505TIP3    H158930   3.345   2.582  12.604 -0.8879  0.7083 -0.6969
12505TIP3    H258931   3.215   2.651  12.568 -1.2759  0.9350  1.0995
12506TIP3   OH258932   0.666   0.371  10.684 -0.1261 -0.0089 -0.0786
12506TIP3    H158933   0.582   0.328  10.666  0.6757 -0.6978 -2.3414
12506TIP3    H258934   0.684   0.422  10.605  0.0167  2.8093  1.6801
12507TIP3   OH258935   0.418   0.273   5.730 -0.1452 -0.5472 -0.0977
12507TIP3    H158936   0.437   0.335   5.659 -0.0739 -1.0655 -0.5298
12507TIP3    H258937   0.426   0.326   5.809 -3.9076  1.0122 -0.6227
12508TIP3   OH258938   1.468   0.506  13.489 -0.5090  0.4236  0.7024
12508TIP3    H158939   1.503   0.469  13.570 -0.7277  0.3568  0.7662
12508TIP3    H258940   1.534   0.569  13.461 -1.3781  1.9687  2.0271
12509TIP3   OH258941   4.718   3.607  11.198  0.2116 -0.0801  0.2851
12509TIP3    H158942   4.652   3.597  11.130  0.1135 -0.9567  0.4990
12509TIP3    H258943   4.770   3.682  11.170 -1.4424  1.2110  0.5946
12510TIP3   OH258944   2.015   5.284   5.013 -0.1619  0.0857 -0.3670
12510TIP3    H158945   2.003   5.235   5.094  3.5394 -0.7697 -0.2593
12510TIP3    H258946   1.989   5.374   5.035  0.7094 -0.1565  1.7573
12511TIP3   OH258947   3.415   1.181   0.148 -0.0728 -0.1968 -0.1151
12511TIP3    H158948   3.329   1.143   0.166 -0.8814  1.4760 -0.3339
12511TIP3    H258949   3.401   1.276   0.154  1.9773  0.0707  0.7996
12512TIP3   OH258950   5.412   1.326  14.918  0.1504  0.4152  0.1654
12512TIP3    H158951   5.469   1.305  14.991  1.3146  2.0326 -0.2607
12512TIP3    H258952   5.471   1.353  14.848 -0.9957 -0.2385 -1.0927
12513TIP3   OH258953   2.695   4.743   5.610  0.4337 -0.0564 -0.0866
12513TIP3    H158954   2.638   4.674   5.577 -1.7709  2.5228 -1.8756
12513TIP3    H258955   2.677   4.746   5.704 -1.8743  0.2673 -0.5297
12514TIP3   OH258956   1.059   6.547  10.900 -0.1192  0.1200  0.2118
12514TIP3    H158957   1.059   6.633  10.859  1.3186 -0.1561 -0.3816
12514TIP3    H258958   1.110   6.492  10.841 -1.3018 -1.2244  0.4097
12515TIP3   OH258959   0.933   0.521   2.295  0.4259  0.1182  0.0923
12515TIP3    H158960   0.894   0.587   2.238 -1.4240 -0.3807  0.7440
12515TIP3    H258961   1.026   0.522   2.273  0.0077  1.1375 -1.6994
12516TIP3   OH258962   0.987   4.414  11.669 -0.3557  0.2353  0.0103
12516TIP3    H158963   0.945   4.328  11.664  1.3697 -0.6387  0.0972
12516TIP3    H258964   1.078   4.395  11.690  0.1723  2.0624 -0.5102
12517TIP3   OH258965   6.662   6.545   3.524  0.3841 -0.5062 -0.3702
12517TIP3    H158966   6.607   6.475   3.559  0.4322 -0.1712  0.3990
12517TIP3    H258967   6.612   6.625   3.541  0.0854 -0.4056 -1.7311
12518TIP3   OH258968   3.424   5.291  10.466 -0.1189 -0.2234 -0.6105
12518TIP3    H158969   3.363   5.362  10.442  1.5122  0.9582 -1.3582
12518TIP3    H258970   3.459   5.318  10.551  0.3382 -0.2546 -0.7912
12519TIP3   OH258971   4.093   2.898   0.184 -0.1629 -0.3123  0.4745
12519TIP3    H158972   4.056   2.874   0.099  1.5519  0.8986 -0.6299
12519TIP3    H258973   4.179   2.858   0.186  0.2075  0.4912  1.2254
12520TIP3   OH258974   6.212   0.446  15.298 -0.3910  0.6295 -0.4107
12520TIP3    H158975   6.225   0.499  15.376 -1.1995  0.3709 -0.0963
12520TIP3    H258976   6.120   0.459  15.275 -1.0740 -1.9678  0.6622
12521TIP3   OH258977   4.027   2.617   6.122  0.0954  0.0590  0.4361
12521TIP3    H158978   4.098   2.681   6.131  0.1201 -0.1435  1.7789
12521TIP3    H258979   4.011   2.587   6.211  0.1867 -1.9386 -0.1996
12522TIP3   OH258980   5.208   0.976  14.110 -0.5441  0.1656 -0.4305
12522TIP3    H158981   5.235   1.055  14.157  1.0663 -0.4983 -0.1991
12522TIP3    H258982   5.113   0.983  14.104 -0.5884  1.2478  1.1728
12523TIP3   OH258983   0.499   0.430  11.293 -0.4057 -0.2588  0.9304
12523TIP3    H158984   0.487   0.336  11.307  1.0044 -0.5915 -0.0178
12523TIP3    H258985   0.480   0.443  11.201  1.0529  0.0963  0.6700
12524TIP3   OH258986   3.190   1.851  16.541 -0.2107  0.2901  0.1777
12524TIP3    H158987   3.216   1.846  16.449  2.7572  0.1067  1.0034
12524TIP3    H258988   3.175   1.759  16.566  0.4506  0.2180  0.3022
12525TIP3   OH258989   6.699   0.920   0.161 -0.7548  0.0660 -0.2501
12525TIP3    H158990   6.768   0.860   0.191  1.2689  1.8104 -1.2038
12525TIP3    H258991   6.668   0.882   0.079  2.0904  1.3666 -2.0294
12526TIP3   OH258992   0.610   4.421  14.894  0.3348  0.0354 -0.6507
12526TIP3    H158993   0.568   4.507  14.889  0.3943  0.1084  0.1242
12526TIP3    H258994   0.678   4.423  14.827  0.4972  0.6757 -0.4620
12527TIP3   OH258995   1.733   0.385  11.311 -0.0667  0.7246  0.0897
12527TIP3    H158996   1.761   0.308  11.260  0.9489  1.2568 -0.1626
12527TIP3    H258997   1.684   0.438  11.249  1.1179  1.3427 -0.3267
12528TIP3   OH258998   3.483   6.541  14.189  0.4960  0.1506  0.0183
12528TIP3    H158999   3.463   6.510  14.277  1.7622  1.3544  0.7638
12528TIP3    H259000   3.410   6.510  14.135  0.2788 -1.5848  1.2561
12529TIP3   OH259001   5.588   4.426   0.147 -0.3183  0.1623  0.1253
12529TIP3    H159002   5.596   4.515   0.113 -2.0633 -0.0604 -0.9402
12529TIP3    H259003   5.498   4.400   0.126  0.2157 -1.9053  0.2715
12530TIP3   OH259004   5.021   4.401  15.498  0.5040  0.0181 -0.8663
12530TIP3    H159005   4.978   4.450  15.427  0.4811  0.7359 -0.3573
12530TIP3    H259006   4.959   4.331  15.520  0.6189 -0.3612 -1.7250
12531TIP3   OH259007   4.116   1.276   0.720 -0.4452 -0.1043 -0.0226
12531TIP3    H159008   4.073   1.259   0.636  3.8278 -0.8633 -2.1680
12531TIP3    H259009   4.163   1.196   0.741  0.1844  0.7663  2.0977
12532TIP3   OH259010   3.041   1.133  12.738 -0.5276  0.5291 -0.0390
12532TIP3    H159011   3.054   1.039  12.748 -1.5390  0.5498  1.6208
12532TIP3    H259012   3.028   1.166  12.827 -1.7318  1.9951 -0.7177
12533TIP3   OH259013   5.943   2.352  11.455  0.1057 -0.2740 -0.8197
12533TIP3    H159014   5.988   2.356  11.371 -2.0015 -0.2769 -1.9743
12533TIP3    H259015   5.856   2.320  11.434 -0.7331  0.5752  1.2596
12534TIP3   OH259016   1.316   5.349   3.554  0.8751  0.4374 -0.2969
12534TIP3    H159017   1.353   5.264   3.579  0.1042 -0.1369 -1.0609
12534TIP3    H259018   1.298   5.393   3.637  0.5903 -0.4597  0.1268
12535TIP3   OH259019   5.104   4.145   1.449  0.0591  0.2737  0.9741
12535TIP3    H159020   5.105   4.180   1.538  1.8192 -1.8040  1.8107
12535TIP3    H259021   5.119   4.222   1.393 -2.3364  1.8009  2.3515
12536TIP3   OH259022   6.244   5.109  15.387  0.0690  0.1883  0.3815
12536TIP3    H159023   6.150   5.129  15.388  0.0683  0.5056 -2.1212
12536TIP3    H259024   6.251   5.023  15.429 -1.3214  0.2563  0.7729
12537TIP3   OH259025   0.915   3.442   6.427 -1.3146 -0.1699  0.3044
12537TIP3    H159026   0.884   3.359   6.463 -3.4923  0.2147 -0.6142
12537TIP3    H259027   0.995   3.461   6.477 -1.5328 -2.1287  1.4559
12538TIP3   OH259028   6.630   4.804   2.430  0.0263 -0.0286  0.4455
12538TIP3    H159029   6.668   4.731   2.380 -2.0065 -1.5258  1.0115
12538TIP3    H259030   6.627   4.771   2.520  0.9094  1.5342  1.0736
12539TIP3   OH259031   3.429   4.805  13.165 -0.3574 -0.8106 -0.6592
12539TIP3    H159032   3.471   4.753  13.234  1.6213  0.9081 -0.5155
12539TIP3    H259033   3.400   4.885  13.209  1.4344  0.5555 -1.8728
12540TIP3   OH259034   6.656   4.297  12.090  0.2096 -0.4853 -0.1131
12540TIP3    H159035   6.699   4.383  12.086 -0.4234 -0.2198 -1.3346
12540TIP3    H259036   6.577   4.312  12.143 -0.2077 -0.1762 -0.8174
12541TIP3   OH259037   3.034   0.413  11.832 -0.3772 -0.0143 -0.2866
12541TIP3    H159038   3.078   0.494  11.806  0.3791 -0.1718  0.4747
12541TIP3    H259039   3.102   0.346  11.827 -1.0956 -0.6861 -1.2885
12542TIP3   OH259040   5.981   6.383  12.169  0.3255  0.2447  0.2898
12542TIP3    H159041   6.046   6.312  12.168 -0.9299 -0.9233  0.5040
12542TIP3    H259042   5.988   6.421  12.256  2.2195  1.5652 -0.3818
12543TIP3   OH259043   5.165   1.643  15.816 -0.4564  0.6028  0.2231
12543TIP3    H159044   5.129   1.679  15.735  0.6873  1.3089  0.0193
12543TIP3    H259045   5.088   1.618  15.868 -1.2007  0.7637 -0.7962
12544TIP3   OH259046   2.426   0.016   2.449 -0.2566  0.3637  0.1128
12544TIP3    H159047   2.373   0.073   2.394  0.0862  0.5136 -0.0647
12544TIP3    H259048   2.514   0.021   2.412  0.2340  1.3750  1.3767
12545TIP3   OH259049   0.669   2.416   4.531 -0.2837  0.3908  0.0399
12545TIP3    H159050   0.650   2.330   4.568  0.3020  0.3566  0.2762
12545TIP3    H259051   0.594   2.470   4.554 -0.9617 -0.2276 -0.6791
12546TIP3   OH259052   5.688   0.978   5.093  0.0067  0.1106 -0.1705
12546TIP3    H159053   5.756   1.039   5.121 -0.4102  0.4683  0.0647
12546TIP3    H259054   5.736   0.902   5.060  0.5185  0.2163  0.3258
12547TIP3   OH259055   2.606   0.627  16.990 -0.6237 -0.0813  0.2887
12547TIP3    H159056   2.592   0.717  16.960 -0.8985 -0.2733 -0.1628
12547TIP3    H259057   2.614   0.576  16.909  2.6917  0.0102  0.4653
12548TIP3   OH259058   3.543   4.928   3.590 -0.2243 -0.5511  0.4863
12548TIP3    H159059   3.618   4.924   3.650  0.0826 -3.3740 -0.0006
12548TIP3    H259060   3.575   4.978   3.515  0.0017  1.3553  1.8418
12549TIP3   OH259061   5.257   4.367  14.482  0.5032  0.1037  0.0729
12549TIP3    H159062   5.269   4.272  14.487 -1.5482 -0.2389 -0.9101
12549TIP3    H259063   5.174   4.383  14.526 -0.3615  1.1466 -1.8663
12550TIP3   OH259064   1.370   4.248  11.717 -0.0852  0.8346 -0.2660
12550TIP3    H159065   1.286   4.217  11.750  0.8535 -0.8481  0.6417
12550TIP3    H259066   1.354   4.270  11.626 -0.6834 -3.0937 -1.2012
12551TIP3   OH259067   5.532   3.741  15.607  0.1348 -0.4875  0.3494
12551TIP3    H159068   5.481   3.697  15.538 -0.3580 -0.9048  0.9759
12551TIP3    H259069   5.519   3.834  15.590 -0.0621 -0.5871 -0.0654
12552TIP3   OH259070   1.841   6.083   4.185  0.0267 -0.4346 -0.1737
12552TIP3    H159071   1.877   5.996   4.201 -0.3091 -1.0345 -2.4727
12552TIP3    H259072   1.766   6.090   4.244  1.0982 -1.0147  1.2616
12553TIP3   OH259073   4.176   1.643  14.483  0.1385  0.2712  0.5952
12553TIP3    H159074   4.152   1.653  14.575 -2.4632 -0.4459  0.0436
12553TIP3    H259075   4.206   1.553  14.476 -1.5318 -0.2999  0.4039
12554TIP3   OH259076   4.099   4.328   2.101 -0.3857 -0.5948 -0.2519
12554TIP3    H159077   4.103   4.407   2.155 -0.8795 -0.1406 -0.8680
12554TIP3    H259078   4.190   4.306   2.083 -0.2696  0.4898 -1.0135
12555TIP3   OH259079   1.391   6.594   2.777  0.1379  0.2012  0.6563
12555TIP3    H159080   1.455   6.522   2.777  2.2697  2.0428 -0.1233
12555TIP3    H259081   1.345   6.586   2.694  0.5219 -0.1138  0.4734
12556TIP3   OH259082   5.272   5.309   5.617 -0.1348  0.0912 -0.5050
12556TIP3    H159083   5.306   5.301   5.528  1.4059 -2.2369  0.2774
12556TIP3    H259084   5.222   5.229   5.632  0.0824  0.2035  0.9334
12557TIP3   OH259085   4.858   3.526   5.790  0.1475  0.2754  0.0246
12557TIP3    H159086   4.791   3.463   5.817  0.3163  0.0996  0.0308
12557TIP3    H259087   4.895   3.490   5.710  1.9540 -0.8985  1.3368
12558TIP3   OH259088   3.463   6.056   0.065  0.1323 -0.0998 -0.6091
12558TIP3    H159089   3.418   6.051   0.149 -0.9511  2.3183 -1.0003
12558TIP3    H259090   3.429   5.980   0.016 -0.5080 -0.5573  0.5161
12559TIP3   OH259091   2.675   3.540  15.214 -0.0989  0.5866  0.0145
12559TIP3    H159092   2.656   3.626  15.251 -1.5678  0.2529  0.0503
12559TIP3    H259093   2.619   3.480  15.263  0.0614 -0.2325 -0.7991
12560TIP3   OH259094   0.650   5.514   1.987 -0.0792 -0.0113 -0.3839
12560TIP3    H159095   0.638   5.608   2.001 -1.5796  0.1381 -2.4364
12560TIP3    H259096   0.737   5.506   1.946 -0.2520  0.5623 -0.8702
12561TIP3   OH259097   0.197   5.085   0.147  0.1405 -0.0495  0.2115
12561TIP3    H159098   0.258   5.149   0.110 -0.0691  0.0278  0.0008
12561TIP3    H259099   0.166   5.035   0.072 -0.7909  0.5347  0.1962
12562TIP3   OH259100   1.522   3.879  14.311 -0.2657  0.6587 -0.2846
12562TIP3    H159101   1.468   3.873  14.232 -0.7140 -1.5183  0.1591
12562TIP3    H259102   1.596   3.822  14.293 -0.4334  0.0572  0.9297
12563TIP3   OH259103   3.434   1.893  11.183  0.2690 -0.7740  0.0418
12563TIP3    H159104   3.370   1.949  11.138 -1.3337  0.5212  3.7383
12563TIP3    H259105   3.424   1.808  11.141 -2.0053  0.0726 -1.2706
12564TIP3   OH259106   2.573   3.847  16.231 -0.3908  0.2663  0.1129
12564TIP3    H159107   2.652   3.847  16.285 -2.1712 -0.4352  2.8326
12564TIP3    H259108   2.605   3.848  16.141  2.7136 -0.2527  1.1628
12565TIP3   OH259109   5.364   1.466   5.181  0.0344  0.1496  0.4753
12565TIP3    H159110   5.457   1.464   5.162 -0.0135 -1.2555  0.3388
12565TIP3    H259111   5.358   1.442   5.274 -0.2273 -0.4361  0.3108
12566TIP3   OH259112   4.176   4.352  13.828 -0.0756 -0.4413 -0.2055
12566TIP3    H159113   4.202   4.275  13.879  0.8801 -0.4826 -0.7255
12566TIP3    H259114   4.205   4.331  13.738  0.8591  0.8154 -0.2168
12567TIP3   OH259115   4.025   5.794  12.826 -0.5570  0.1684 -1.0319
12567TIP3    H159116   3.963   5.866  12.818 -1.7599 -0.3843  2.3008
12567TIP3    H259117   3.974   5.715  12.809 -0.3235 -0.1651 -0.2355
12568TIP3   OH259118   5.288   6.677  15.528 -0.0804  0.0870  0.6630
12568TIP3    H159119   5.289   6.600  15.585  1.1799 -0.5623 -0.2173
12568TIP3    H259120   5.347   6.739  15.570 -1.5878  0.8435  1.7119
12569TIP3   OH259121   4.692   0.568   0.805 -0.3287 -0.1224  1.0200
12569TIP3    H159122   4.606   0.529   0.821  0.3475 -1.5885  1.1329
12569TIP3    H259123   4.720   0.530   0.722 -0.2259  1.1525  0.4496
12570TIP3   OH259124   3.094   5.320   5.320  0.2148  0.0114  0.0791
12570TIP3    H159125   3.166   5.371   5.357 -1.3274  1.5991  0.9872
12570TIP3    H259126   3.064   5.265   5.392  1.1015 -1.3321 -0.5616
12571TIP3   OH259127   6.083   4.025  11.240 -0.4776 -0.5380 -0.2326
12571TIP3    H159128   6.107   4.097  11.299  0.0278 -2.3342  1.8124
12571TIP3    H259129   6.138   4.037  11.163  1.0413  0.1304  0.9275
12572TIP3   OH259130   6.357   1.558   1.810  0.2030 -0.0234  0.4818
12572TIP3    H159131   6.390   1.471   1.832 -2.8864 -1.0733  1.2848
12572TIP3    H259132   6.348   1.603   1.894  0.3923  0.5371  0.2047
12573TIP3   OH259133   3.276   3.775  15.794 -0.4965 -0.0113  0.6139
12573TIP3    H159134   3.328   3.854  15.777  2.5999 -1.6841  2.0337
12573TIP3    H259135   3.227   3.795  15.873 -2.5577  1.7880 -1.0402
12574TIP3   OH259136   6.190   5.979  16.499  0.2179 -0.5257  0.4349
12574TIP3    H159137   6.203   5.973  16.404  1.1061  0.5801  0.4743
12574TIP3    H259138   6.278   5.990  16.534 -0.2226  0.2995  1.2913
12575TIP3   OH259139   2.649   4.218   4.869  0.0289  0.1350 -0.0766
12575TIP3    H159140   2.572   4.259   4.829 -0.1415 -0.0388  0.0746
12575TIP3    H259141   2.698   4.292   4.906  0.2300  0.3052 -0.6745
12576TIP3   OH259142   2.354   3.234   4.932  0.8134 -0.1934  0.0656
12576TIP3    H159143   2.369   3.279   5.016  0.2026  1.0881 -0.4963
12576TIP3    H259144   2.273   3.273   4.899 -0.3775 -2.5748  0.1200
12577TIP3   OH259145   3.489   4.570  16.790 -0.5335 -0.6667 -0.6756
12577TIP3    H159146   3.541   4.648  16.768  0.4246 -0.8025  0.9784
12577TIP3    H259147   3.403   4.588  16.754 -0.2825  1.1230 -0.4589
12578TIP3   OH259148   1.441   2.705  16.107 -0.0667  0.5183  0.0510
12578TIP3    H159149   1.500   2.766  16.151 -1.3964  1.0434  1.1484
12578TIP3    H259150   1.432   2.740  16.018  1.7876  0.0488 -0.3361
12579TIP3   OH259151   1.577   6.474   4.692 -0.2186  0.4896  0.4011
12579TIP3    H159152   1.608   6.502   4.606 -1.2560 -0.6763 -0.3822
12579TIP3    H259153   1.644   6.414   4.724 -0.2657  0.2061 -0.0212
12580TIP3   OH259154   5.161   0.800   5.687 -0.1457 -0.3474 -0.4889
12580TIP3    H159155   5.181   0.763   5.773  0.4730 -0.8428 -0.8433
12580TIP3    H259156   5.244   0.798   5.639 -0.2880  0.7563 -0.8016
12581TIP3   OH259157   2.140   6.320  12.168  0.0886  0.1607  0.1145
12581TIP3    H159158   2.125   6.415  12.170 -1.3880 -0.0421 -0.3651
12581TIP3    H259159   2.075   6.285  12.230  1.2030 -0.4755  0.9354
12582TIP3   OH259160   6.153   4.102  12.910 -0.5935  0.1136  0.2728
12582TIP3    H159161   6.094   4.118  12.984 -0.1623  0.1827  0.6021
12582TIP3    H259162   6.237   4.081  12.950 -0.1305  1.0339 -0.2103
12583TIP3   OH259163   0.333   0.644   5.249  0.0646  0.0403  0.2101
12583TIP3    H159164   0.250   0.638   5.200 -0.1574 -2.4607  0.8144
12583TIP3    H259165   0.308   0.683   5.333 -0.8220 -1.9876  0.9464
12584TIP3   OH259166   3.157   3.297  11.216  0.4946 -0.0524 -0.8353
12584TIP3    H159167   3.232   3.264  11.266  0.4569  0.7286 -0.2507
12584TIP3    H259168   3.108   3.219  11.191 -0.3538 -0.3950  1.7402
12585TIP3   OH259169   2.147   6.297   0.347 -0.7414 -0.0215 -0.2399
12585TIP3    H159170   2.236   6.313   0.317  0.0171 -0.6035  1.6163
12585TIP3    H259171   2.104   6.382   0.341  0.6853  0.8330  1.1809
12586TIP3   OH259172   0.394   5.619  13.251  0.1826  0.1974 -0.5064
12586TIP3    H159173   0.483   5.648  13.271  0.8024 -1.4751 -0.7868
12586TIP3    H259174   0.396   5.525  13.264 -1.3079  0.0183 -1.4721
12587TIP3   OH259175   0.201   0.516   2.738  0.1539  0.8933 -0.1997
12587TIP3    H159176   0.146   0.451   2.782 -0.6444 -0.1850 -2.6704
12587TIP3    H259177   0.221   0.580   2.805 -2.1476  0.0393  1.3662
12588TIP3   OH259178   3.054   1.336   1.308 -0.0031  0.1865  0.0916
12588TIP3    H159179   3.020   1.402   1.247  0.2252  0.6512  0.4684
12588TIP3    H259180   3.149   1.350   1.309  0.0638 -0.2507  0.0506
12589TIP3   OH259181   5.591   0.564   1.235 -0.0912 -0.1242 -0.5327
12589TIP3    H159182   5.615   0.473   1.217  1.8654  0.3331 -0.3666
12589TIP3    H259183   5.587   0.568   1.331  2.0171  0.4728 -0.4465
12590TIP3   OH259184   0.195   4.417   5.112  0.1270 -0.1886  0.0646
12590TIP3    H159185   0.284   4.422   5.078  0.4012 -0.6346  0.7035
12590TIP3    H259186   0.143   4.387   5.038  0.2288  1.6210 -0.7594
12591TIP3   OH259187   3.706   1.333  13.185  0.4768 -0.2916 -0.1561
12591TIP3    H159188   3.733   1.268  13.250  1.6213 -0.2637 -0.5912
12591TIP3    H259189   3.777   1.397  13.185 -0.3905  0.6797 -0.1237
12592TIP3   OH259190   5.380   5.015   5.693  0.3414  0.2921 -0.4593
12592TIP3    H159191   5.378   5.024   5.598  1.2434  1.2161 -0.3971
12592TIP3    H259192   5.460   4.965   5.711 -0.0732 -0.2925 -0.2142
12593TIP3   OH259193   0.305   1.713  14.093  0.3860  0.5064 -0.0195
12593TIP3    H159194   0.383   1.670  14.059  0.0085 -1.1746  1.1850
12593TIP3    H259195   0.232   1.660  14.060 -0.1214  0.6102  0.9277
12594TIP3   OH259196   4.760   3.752   5.925 -0.4008 -0.1703  0.1241
12594TIP3    H159197   4.798   3.742   6.012  0.7149  2.3185 -0.0468
12594TIP3    H259198   4.780   3.670   5.880  1.8836 -0.1730  1.1138
12595TIP3   OH259199   2.687   2.510   0.396 -0.2984 -0.5589 -0.0376
12595TIP3    H159200   2.641   2.523   0.312  1.3148 -1.0756 -1.0164
12595TIP3    H259201   2.763   2.457   0.374 -0.1320 -1.1458  1.8658
12596TIP3   OH259202   5.257   0.701  10.008 -0.1635 -0.4109 -0.2608
12596TIP3    H159203   5.216   0.615   9.996  1.3022 -1.0153 -1.0886
12596TIP3    H259204   5.351   0.684  10.004  0.1772  0.9864  1.4408
12597TIP3   OH259205   6.395   1.991   6.726 -0.1074  0.1943  0.3219
12597TIP3    H159206   6.461   1.939   6.680 -1.4841 -1.3956  0.0506
12597TIP3    H259207   6.444   2.062   6.767  1.8766 -1.3234  0.7021
12598TIP3   OH259208   3.211   1.701   4.404 -0.5412 -0.0895 -0.5106
12598TIP3    H159209   3.277   1.635   4.380  0.2303 -0.0019  1.3083
12598TIP3    H259210   3.190   1.682   4.496 -3.2026 -0.2282 -1.1063
12599TIP3   OH259211   0.716   3.423   5.715  0.0794 -0.2119  0.0604
12599TIP3    H159212   0.760   3.338   5.726  1.1020  0.4812  1.4897
12599TIP3    H259213   0.755   3.460   5.636  0.4137 -0.5947  0.0443
12600TIP3   OH259214   5.895   4.991   4.496  0.4938 -0.1039 -0.2298
12600TIP3    H159215   5.801   5.010   4.497  0.1103 -2.0137  0.6357
12600TIP3    H259216   5.901   4.896   4.506  2.5216 -0.0117 -0.4020
12601TIP3   OH259217   4.032   0.372   0.651  0.3645  0.1123  0.0534
12601TIP3    H159218   4.116   0.406   0.621  0.1329 -0.6987 -1.6133
12601TIP3    H259219   3.976   0.376   0.573 -0.9116 -0.0626  0.9511
12602TIP3   OH259220   4.916   1.062   5.373  0.2412 -0.4968  0.2047
12602TIP3    H159221   4.860   0.998   5.330  1.6531 -1.7818  0.2495
12602TIP3    H259222   4.909   1.041   5.467  1.5934 -1.3265  0.1275
12603TIP3   OH259223   3.551   0.903   1.424 -0.1256  0.1222  0.2370
12603TIP3    H159224   3.456   0.915   1.420 -0.2413 -0.2377  1.5972
12603TIP3    H259225   3.587   0.985   1.389 -0.9231  0.0005 -0.9166
12604TIP3   OH259226   1.946   2.914  16.063  0.0171  0.3898  0.2266
12604TIP3    H159227   1.855   2.915  16.034  0.1079 -0.7926 -0.1243
12604TIP3    H259228   1.977   3.003  16.049  0.2501 -0.2500 -3.9868
12605TIP3   OH259229   1.135   5.179  12.058 -0.0685 -0.2424  0.9530
12605TIP3    H159230   1.214   5.204  12.106 -0.4280 -0.7261  1.7984
12605TIP3    H259231   1.069   5.166  12.125 -0.7714 -0.2217  0.2745
12606TIP3   OH259232   6.029   1.225  11.961 -0.4105 -0.2097  0.7165
12606TIP3    H159233   6.080   1.161  11.911  1.1840  1.0997  0.6043
12606TIP3    H259234   6.026   1.189  12.050 -2.8653 -2.3196 -0.1550
12607TIP3   OH259235   5.347   6.652  14.283 -0.7693 -0.0961 -0.1316
12607TIP3    H159236   5.266   6.683  14.243 -1.5210 -1.3212  0.4049
12607TIP3    H259237   5.401   6.624  14.210 -1.2947 -0.3469 -0.4245
12608TIP3   OH259238   4.387   3.396   5.053 -0.2174 -0.1041 -0.1850
12608TIP3    H159239   4.312   3.362   5.101 -0.8699  1.0952 -0.3337
12608TIP3    H259240   4.387   3.349   4.970 -1.1816  0.3388 -0.4401
12609TIP3   OH259241   2.901   0.326   2.120 -0.0363  0.1297  0.2585
12609TIP3    H159242   2.929   0.316   2.029  1.2772  1.8597  0.4362
12609TIP3    H259243   2.857   0.244   2.141 -0.5230 -0.2259 -1.9909
12610TIP3   OH259244   0.895   2.735  17.077  0.0382  0.1581 -0.0763
12610TIP3    H159245   0.800   2.727  17.084  0.1132  0.0009  0.8584
12610TIP3    H259246   0.911   2.830  17.079 -0.0344  0.1570  0.8042
12611TIP3   OH259247   0.592   4.147   3.561 -0.5056  0.9925  0.0755
12611TIP3    H159248   0.619   4.089   3.490 -0.2277  1.1124  0.0847
12611TIP3    H259249   0.599   4.235   3.524 -2.0042  0.9729 -0.3138
12612TIP3   OH259250   1.083   1.370  16.718  0.2842 -0.4520 -0.5743
12612TIP3    H159251   1.089   1.287  16.670  1.6969  0.2399 -1.6242
12612TIP3    H259252   1.108   1.437  16.655  0.3953  0.6655  0.6198
12613TIP3   OH259253   2.537   4.696   5.333 -0.2536  0.3743 -0.2056
12613TIP3    H159254   2.500   4.641   5.263 -0.1806 -1.1447  0.9267
12613TIP3    H259255   2.632   4.681   5.327 -0.1076  1.5177 -0.8284
12614TIP3   OH259256   6.124   1.427   4.207  0.7810 -0.0600 -0.7950
12614TIP3    H159257   6.032   1.454   4.210  0.7041  0.1096 -3.8546
12614TIP3    H259258   6.152   1.429   4.299 -2.3640 -0.5135  0.2432
12615TIP3   OH259259   0.347   1.453  10.821 -0.4645  0.0069  0.1012
12615TIP3    H159260   0.338   1.548  10.825  1.4594  0.1714  1.7821
12615TIP3    H259261   0.388   1.437  10.736 -1.3264  0.6207 -0.4378
12616TIP3   OH259262   4.212   6.552  16.348 -0.6760  0.1631  0.3082
12616TIP3    H159263   4.296   6.513  16.371  0.2257  1.3397 -0.8756
12616TIP3    H259264   4.149   6.512  16.408  0.8240 -0.2920  1.6121
12617TIP3   OH259265   6.173   3.522   3.889 -0.1269  0.7121  0.0686
12617TIP3    H159266   6.097   3.468   3.868 -0.0325  0.6390 -0.0754
12617TIP3    H259267   6.233   3.464   3.935  0.1746  0.5768 -0.4912
12618TIP3   OH259268   1.990   4.082  12.899  0.2775 -0.1389  0.6374
12618TIP3    H159269   2.082   4.068  12.874 -0.4005 -1.3011 -1.3803
12618TIP3    H259270   1.969   4.006  12.953 -0.1128 -1.0366 -0.7521
12619TIP3   OH259271   1.313   1.030  11.926  0.4020 -0.6091  0.2700
12619TIP3    H159272   1.261   1.029  12.007 -2.0577 -1.3689 -1.2520
12619TIP3    H259273   1.393   1.076  11.949 -0.8412  0.3724  2.8064
12620TIP3   OH259274   6.708   5.723  17.121 -0.1491 -0.0672 -0.6281
12620TIP3    H159275   6.688   5.646  17.069  0.8117 -0.8332  0.1302
12620TIP3    H259276   6.667   5.705  17.206  1.3282 -0.3901  0.0198
12621TIP3   OH259277   0.862   3.161   4.556 -0.1381  0.0087 -0.0758
12621TIP3    H159278   0.857   3.252   4.586  0.0500  0.1742 -0.5352
12621TIP3    H259279   0.775   3.143   4.520 -0.0981  0.0848 -0.2102
12622TIP3   OH259280   3.558   6.213  15.954  0.4044 -0.2217 -0.2653
12622TIP3    H159281   3.571   6.282  16.020  0.6260  0.2127 -0.7527
12622TIP3    H259282   3.469   6.183  15.967  1.2194 -1.8073  1.8052
12623TIP3   OH259283   5.252   0.092  16.463 -0.5831 -0.6472 -0.1909
12623TIP3    H159284   5.268   0.013  16.412 -0.2465 -0.0842 -0.9701
12623TIP3    H259285   5.335   0.110  16.507  0.1106  0.6174 -1.9235
12624TIP3   OH259286   2.360   1.452   4.121  0.2132  0.5041  0.3427
12624TIP3    H159287   2.337   1.389   4.052  0.1814  3.4137 -2.4320
12624TIP3    H259288   2.449   1.429   4.146  0.6776  0.1244 -1.5806
12625TIP3   OH259289   4.096   4.581  16.044  0.9035  0.3628  0.3113
12625TIP3    H159290   4.093   4.638  15.968  0.0188 -0.0193  0.0595
12625TIP3    H259291   4.071   4.638  16.117 -1.5257 -0.0383 -0.1533
12626TIP3   OH259292   1.747   2.779  14.686  0.0714 -0.9346 -0.2560
12626TIP3    H159293   1.829   2.752  14.728 -0.2696 -0.6379  0.6226
12626TIP3    H259294   1.773   2.845  14.622  0.2428  1.2164  1.9668
12627TIP3   OH259295   6.421   6.267   2.299  0.3798  0.0052 -0.5866
12627TIP3    H159296   6.405   6.180   2.333 -1.6868  1.0167  1.1086
12627TIP3    H259297   6.362   6.324   2.349  1.7190  2.3691 -1.6300
12628TIP3   OH259298   4.357   5.269   1.940 -0.4700 -0.4515 -0.1795
12628TIP3    H159299   4.390   5.180   1.954  0.2545  0.0045  1.0719
12628TIP3    H259300   4.269   5.268   1.977 -1.2007 -1.1676 -1.8912
12629TIP3   OH259301   2.551   5.300   0.604 -0.2285  0.2241  0.0037
12629TIP3    H159302   2.614   5.261   0.665  0.2067  0.3430 -0.3678
12629TIP3    H259303   2.599   5.308   0.522 -0.7945  0.1319 -0.3366
12630TIP3   OH259304   1.245   6.344  16.837 -0.1965  0.5194 -0.5753
12630TIP3    H159305   1.195   6.385  16.907  0.6401  1.3023 -0.4281
12630TIP3    H259306   1.234   6.250  16.851  0.6483  0.6703  1.0954
12631TIP3   OH259307   6.318   0.712  11.140 -0.2245 -0.7066 -0.0499
12631TIP3    H159308   6.280   0.656  11.208 -1.1625 -0.0240 -0.0086
12631TIP3    H259309   6.406   0.675  11.126  0.9650  0.5919  3.2822
12632TIP3   OH259310   1.093   3.513   1.754  0.4808  0.2386 -0.3054
12632TIP3    H159311   1.182   3.542   1.776  1.4715 -2.7014 -0.2456
12632TIP3    H259312   1.078   3.546   1.666  0.8600  2.4167  0.4095
12633TIP3   OH259313   2.175   3.917   1.349  0.4232  0.3307 -0.5387
12633TIP3    H159314   2.164   3.878   1.263  0.5087  0.4134 -0.5876
12633TIP3    H259315   2.250   3.976   1.339 -1.4234  2.6395 -1.2213
12634TIP3   OH259316   2.638   5.930   2.141  0.1291 -0.3393  0.8573
12634TIP3    H159317   2.700   5.992   2.180  0.0585  0.7384 -0.6894
12634TIP3    H259318   2.630   5.959   2.050 -0.5207 -2.1558  0.3252
12635TIP3   OH259319   1.569   3.086  14.376  0.0766 -0.0015 -0.3549
12635TIP3    H159320   1.522   3.079  14.459 -0.9355 -1.3640 -1.0184
12635TIP3    H259321   1.661   3.069  14.399  0.1316  1.7082  0.7950
12636TIP3   OH259322   6.579   2.750  16.668  0.0708 -0.9363 -0.2367
12636TIP3    H159323   6.487   2.769  16.652  0.7450  0.6523 -2.3650
12636TIP3    H259324   6.591   2.769  16.761 -1.6795 -0.9741  0.0166
12637TIP3   OH259325   4.918   2.831   4.506 -0.0310 -0.0249  0.2325
12637TIP3    H159326   4.829   2.801   4.487  0.4474 -0.5663 -1.2100
12637TIP3    H259327   4.965   2.820   4.424  1.2747  0.6393  0.8790
12638TIP3   OH259328   1.303   5.863  10.720 -0.3461  0.2238 -0.2259
12638TIP3    H159329   1.379   5.841  10.774 -1.0688  1.2835  1.2293
12638TIP3    H259330   1.309   5.803  10.645  0.8730 -0.9848  0.8225
12639TIP3   OH259331   0.175   0.031   3.707  0.3835  0.2428  0.6811
12639TIP3    H159332   0.107  -0.008   3.653 -1.7814  3.5695  0.8569
12639TIP3    H259333   0.145   0.017   3.797  1.6709 -1.2525  0.8943
12640TIP3   OH259334   2.170   5.751   2.850  0.3153  0.9191  0.3291
12640TIP3    H159335   2.241   5.699   2.813 -1.0761 -1.2894  0.7327
12640TIP3    H259336   2.118   5.779   2.775  0.6612  1.1536  0.1760
12641TIP3   OH259337   2.693   3.965   0.027  0.0247 -0.0069  0.2371
12641TIP3    H159338   2.727   4.054   0.037 -0.2689  0.2903 -1.3139
12641TIP3    H259339   2.668   3.959  -0.065 -2.3192 -0.8397  0.8883
12642TIP3   OH259340   3.256   2.064  11.053  0.5199 -0.3283  0.2201
12642TIP3    H159341   3.190   1.995  11.054 -1.5454  1.5760  1.3512
12642TIP3    H259342   3.238   2.115  11.131  1.5715  1.8548 -0.9193
12643TIP3   OH259343   5.575   1.657  16.634  0.0932 -0.3674 -0.1749
12643TIP3    H159344   5.657   1.637  16.678  1.0851 -0.2441 -1.9034
12643TIP3    H259345   5.569   1.591  16.564 -2.4835 -1.8872  1.4083
12644TIP3   OH259346   3.032   6.642  11.618 -0.6787 -0.0107  0.1556
12644TIP3    H159347   2.973   6.678  11.684 -1.1542  0.9252 -0.7618
12644TIP3    H259348   2.983   6.569  11.579 -0.4412 -0.4918  0.7594
12645TIP3   OH259349   3.319   3.600   3.839 -0.0528 -0.1749  0.0674
12645TIP3    H159350   3.327   3.686   3.798 -0.4418  0.0802  0.5209
12645TIP3    H259351   3.400   3.555   3.816  1.2368  1.1810  1.8720
12646TIP3   OH259352   1.860   1.793   5.653  0.3582  0.8978  0.0123
12646TIP3    H159353   1.800   1.719   5.662  2.2606 -0.6835 -0.1167
12646TIP3    H259354   1.817   1.852   5.591 -1.7896  0.5458  1.1383
12647TIP3   OH259355   0.756   0.370   2.186 -0.5214  0.2526 -0.3062
12647TIP3    H159356   0.832   0.408   2.230 -1.9299 -0.7712  3.2140
12647TIP3    H259357   0.784   0.281   2.162 -0.4514  0.0115  0.6335
12648TIP3   OH259358   3.889   3.563   1.492 -0.3434 -0.4695 -0.3027
12648TIP3    H159359   3.948   3.504   1.540 -1.1398 -0.7556  0.3339
12648TIP3    H259360   3.879   3.638   1.550  0.2360  0.0644 -0.8786
12649TIP3   OH259361   4.732   1.346  12.697  0.2062  0.2012 -0.5960
12649TIP3    H159362   4.702   1.429  12.735  0.8458  0.5742 -0.8989
12649TIP3    H259363   4.807   1.321  12.751  1.0122  0.6440 -1.5131
12650TIP3   OH259364   6.394   1.178  15.850 -0.2316  0.6058 -0.4173
12650TIP3    H159365   6.375   1.087  15.875  1.1860  0.6016  0.7064
12650TIP3    H259366   6.443   1.171  15.769 -2.8769  0.5183 -2.0518
12651TIP3   OH259367   4.617   3.454   3.711  0.5828  0.3623 -0.0929
12651TIP3    H159368   4.657   3.475   3.626 -1.2863 -1.7015 -1.5237
12651TIP3    H259369   4.581   3.538   3.741 -0.4154  0.7586 -2.2555
12652TIP3   OH259370   6.154   3.110   1.503  0.0785  0.5905 -0.0878
12652TIP3    H159371   6.121   3.023   1.482  0.2008  0.0537  1.8408
12652TIP3    H259372   6.195   3.100   1.589 -0.3934  2.6687  0.4080
12653TIP3   OH259373   3.422   5.403  12.487  0.9771 -0.2936  0.5495
12653TIP3    H159374   3.342   5.402  12.540  0.4864 -1.9684 -0.1845
12653TIP3    H259375   3.423   5.318  12.443  3.4430 -0.5210  0.9512
12654TIP3   OH259376   5.956   6.535  11.020  0.5409 -0.3960 -0.7392
12654TIP3    H159377   5.997   6.584  11.092 -0.8019 -1.4347  0.7692
12654TIP3    H259378   5.877   6.584  11.000  0.6455 -0.3985 -1.1499
12655TIP3   OH259379   2.962   5.407   3.775  0.0460 -0.9841  0.0923
12655TIP3    H159380   3.006   5.473   3.721  1.3845 -1.1130  0.9890
12655TIP3    H259381   2.911   5.458   3.838  1.0730 -0.7979  0.7804
12656TIP3   OH259382   6.307   4.593  13.620 -0.0622  0.4954 -0.2580
12656TIP3    H159383   6.227   4.565  13.664  0.5297 -1.2535 -0.2788
12656TIP3    H259384   6.292   4.686  13.601 -0.9392  0.8794  2.2166
12657TIP3   OH259385   1.320   3.877   2.615  0.4673 -0.1085  0.9063
12657TIP3    H159386   1.341   3.898   2.706 -0.0662 -2.0765  1.5087
12657TIP3    H259387   1.225   3.889   2.609  0.1218 -2.4212  1.3139
12658TIP3   OH259388   0.643   3.678  12.946 -0.1907 -0.0083 -0.0664
12658TIP3    H159389   0.585   3.686  13.022  0.3798 -2.3549  0.6664
12658TIP3    H259390   0.595   3.623  12.885  1.5260 -2.6526  0.8823
12659TIP3   OH259391   6.433   3.072   5.687  0.2493  0.1599 -0.1686
12659TIP3    H159392   6.444   3.118   5.770 -0.4120  2.2566 -1.2046
12659TIP3    H259393   6.369   3.003   5.706  0.8943 -0.0465  1.3045
12660TIP3   OH259394   1.433   3.383  11.597 -0.1501 -0.5072 -0.0467
12660TIP3    H159395   1.469   3.436  11.668  2.5141  2.8302 -3.6456
12660TIP3    H259396   1.501   3.318  11.580 -0.5088 -0.9084  0.0702
12661TIP3   OH259397   5.773   4.144  14.095  0.5464 -0.1291 -0.3446
12661TIP3    H159398   5.692   4.094  14.084  0.1743  0.4175 -0.0993
12661TIP3    H259399   5.830   4.113  14.025  0.3965 -1.0578 -0.0631
12662TIP3   OH259400   5.232   6.637  13.635  0.6084 -0.5867  0.1780
12662TIP3    H159401   5.173   6.607  13.704 -0.4188  0.1879 -0.3498
12662TIP3    H259402   5.190   6.611  13.554  0.4376  0.9211 -0.2371
12663TIP3   OH259403   2.789   0.734  14.974 -0.0648 -0.4524  0.2931
12663TIP3    H159404   2.812   0.821  15.005  0.5682 -0.5261  0.0518
12663TIP3    H259405   2.860   0.711  14.914 -0.9951 -0.5332 -0.7759
12664TIP3   OH259406   6.257   3.085   6.137  0.0615 -0.7520  0.2283
12664TIP3    H159407   6.323   3.142   6.176  1.2376 -0.7098 -1.7692
12664TIP3    H259408   6.297   2.998   6.139 -0.7188 -1.1090  0.9720
12665TIP3   OH259409   4.070   3.019  13.553 -0.0145  0.0140  0.0399
12665TIP3    H159410   4.070   2.955  13.483  0.2580  0.8669 -0.7522
12665TIP3    H259411   4.020   2.978  13.624 -0.5159 -0.7421 -0.7514
12666TIP3   OH259412   1.375   0.551  16.120  0.2488 -0.2404  0.4272
12666TIP3    H159413   1.463   0.526  16.091  0.6363  1.0921  0.4353
12666TIP3    H259414   1.337   0.597  16.045 -0.1496 -0.1162  0.7050
12667TIP3   OH259415   5.674   6.772  16.223  0.8349  0.0388  0.2699
12667TIP3    H159416   5.765   6.764  16.196  0.8971  1.3486  0.0730
12667TIP3    H259417   5.642   6.851  16.179 -1.0060 -1.5765 -1.4055
12668TIP3   OH259418   2.797   1.646   5.514 -0.1443 -0.4636  0.0612
12668TIP3    H159419   2.808   1.662   5.608  0.3899 -1.3104  0.1549
12668TIP3    H259420   2.712   1.684   5.492  0.0992  0.4564  0.7179
12669TIP3   OH259421   6.225   2.492   1.753  0.2265 -0.1749  0.0800
12669TIP3    H159422   6.148   2.450   1.790  0.2931 -0.9773 -0.6769
12669TIP3    H259423   6.284   2.503   1.827 -0.7789  0.8485  0.7477
12670TIP3   OH259424   1.357   6.536   4.843 -0.1671  0.1418  0.1744
12670TIP3    H159425   1.407   6.582   4.910 -0.7623 -2.8703  2.8227
12670TIP3    H259426   1.422   6.491   4.790  0.2656  1.8707 -0.7848
12671TIP3   OH259427   4.436   1.494   2.876  0.3080  0.4238  0.1290
12671TIP3    H159428   4.385   1.529   2.950 -2.0768  0.0089 -1.2773
12671TIP3    H259429   4.430   1.562   2.809  2.3686  0.7441  0.2476
12672TIP3   OH259430   0.110   1.094  15.447  0.5187  0.0660  0.2296
12672TIP3    H159431   0.079   1.117  15.360 -0.2410 -2.1450 -0.1372
12672TIP3    H259432   0.051   1.141  15.506  0.1297  0.4563 -0.4564
12673TIP3   OH259433   2.980   2.993   2.032 -0.0717  1.2118  0.1418
12673TIP3    H159434   2.980   2.899   2.044  3.1915  1.4286  2.4254
12673TIP3    H259435   2.899   3.023   2.075 -0.5923 -0.4255  0.3127
12674TIP3   OH259436   4.471   1.172   0.030 -0.0381 -0.0595  0.2694
12674TIP3    H159437   4.417   1.129  -0.035 -1.7192 -0.3349  1.8015
12674TIP3    H259438   4.539   1.109   0.052 -1.4985 -1.3244  1.2755
12675TIP3   OH259439   3.144   1.210   0.980  0.4958  0.2128 -0.5966
12675TIP3    H159440   3.144   1.275   1.050  1.3061  1.2103 -1.4998
12675TIP3    H259441   3.097   1.251   0.908 -0.4747 -0.8698 -0.6031
12676TIP3   OH259442   3.380   4.019   2.970 -0.5629  0.2945 -0.7940
12676TIP3    H159443   3.378   3.974   3.054 -2.7252  2.8545  0.5698
12676TIP3    H259444   3.351   3.953   2.907  0.1783 -1.3758  0.5807
12677TIP3   OH259445   3.441   5.567   3.685  0.2772  0.1795 -0.5817
12677TIP3    H159446   3.524   5.576   3.731  0.3200  1.1994 -0.8308
12677TIP3    H259447   3.380   5.533   3.750  0.8085 -0.2564 -0.3096
12678TIP3   OH259448   5.405   3.307   4.294 -0.1704 -0.4600  0.1269
12678TIP3    H159449   5.321   3.342   4.265 -0.3529 -1.6296 -0.8040
12678TIP3    H259450   5.470   3.364   4.253 -0.4495 -1.4948 -1.8370
12679TIP3   OH259451   1.151   2.084   4.516  0.0014  0.4637  0.1873
12679TIP3    H159452   1.212   2.049   4.581 -0.3834  0.2889  0.4562
12679TIP3    H259453   1.099   2.149   4.565 -1.6624 -1.1116  0.5724
12680TIP3   OH259454   1.263   2.253   0.540  0.2596  0.4822  0.4830
12680TIP3    H159455   1.333   2.289   0.484  1.3375  0.4838  1.7933
12680TIP3    H259456   1.310   2.212   0.613 -1.0936 -0.4541  0.8403
12681TIP3   OH259457   1.535   5.839  10.859 -0.1653  0.0925  0.5149
12681TIP3    H159458   1.567   5.927  10.879  1.3103 -0.1676 -0.6037
12681TIP3    H259459   1.551   5.829  10.765  0.2908 -1.6101  0.7684
12682TIP3   OH259460   6.299   4.487   0.439 -0.0836 -0.2394 -0.0109
12682TIP3    H159461   6.231   4.420   0.435 -0.5650  0.1608  1.2990
12682TIP3    H259462   6.380   4.440   0.419 -0.7904 -0.6195 -2.1161
12683TIP3   OH259463   2.945   2.872   5.375  0.2202  0.1901  0.3187
12683TIP3    H159464   2.986   2.925   5.443  1.0417 -0.1390  0.0854
12683TIP3    H259465   3.018   2.842   5.320  0.1138 -3.2862  1.9024
12684TIP3   OH259466   3.366   0.692   3.483  0.2217  0.3903 -0.4599
12684TIP3    H159467   3.338   0.724   3.397  0.4682  0.3932 -0.5386
12684TIP3    H259468   3.309   0.738   3.544  1.9677  2.5965 -0.4324
12685TIP3   OH259469   5.383   0.128   0.084 -0.2845  1.2740 -0.2240
12685TIP3    H159470   5.313   0.076   0.125  1.2209 -0.4527  0.2359
12685TIP3    H259471   5.354   0.139  -0.006  0.4959 -2.6497 -1.0632
12686TIP3   OH259472   2.207   2.481  13.515 -0.0135 -0.2440 -0.1853
12686TIP3    H159473   2.129   2.531  13.540 -1.0510 -0.8190 -2.1387
12686TIP3    H259474   2.281   2.538  13.539 -1.0545  0.6128  1.0413
12687TIP3   OH259475   5.411   0.192   1.056  0.2481 -0.1857  0.4685
12687TIP3    H159476   5.426   0.143   1.137  0.2443 -2.3722 -0.8104
12687TIP3    H259477   5.341   0.144   1.012 -0.4641  1.5809 -0.3652
12688TIP3   OH259478   1.960   4.680  11.911  0.0761 -0.0692 -0.7416
12688TIP3    H159479   1.896   4.736  11.867 -0.0459  0.8007  0.5067
12688TIP3    H259480   1.908   4.630  11.974  0.5682  0.4489  0.0884
12689TIP3   OH259481   0.816   6.649  16.070 -0.2873 -0.3890  1.0527
12689TIP3    H159482   0.851   6.643  15.982  0.1287 -0.2729  1.2125
12689TIP3    H259483   0.733   6.696  16.060 -0.8310 -1.4217  0.5592
12690TIP3   OH259484   0.285   4.947  16.509  0.1337  0.5878 -0.1498
12690TIP3    H159485   0.206   5.000  16.499 -1.3147 -1.3373  0.5451
12690TIP3    H259486   0.303   4.948  16.603 -0.9075 -1.4263  0.1227
12691TIP3   OH259487   0.179   4.691  12.252  0.4643  0.7843 -0.0982
12691TIP3    H159488   0.157   4.781  12.228  0.6232  0.6899 -0.5956
12691TIP3    H259489   0.152   4.684  12.344  0.1098  1.2243 -0.1660
12692TIP3   OH259490   0.857   5.412   1.422 -0.2284  0.2641 -0.1748
12692TIP3    H159491   0.802   5.389   1.347  2.2793 -0.5825 -1.7853
12692TIP3    H259492   0.925   5.469   1.385  2.0029 -1.4893  1.1146
12693TIP3   OH259493   2.979   2.179  14.142  0.8286  0.4078  0.1232
12693TIP3    H159494   3.056   2.125  14.158  0.1127 -0.4040  0.8744
12693TIP3    H259495   2.906   2.118  14.145  0.1964  1.0838 -1.1092
12694TIP3   OH259496   6.763   1.264   5.298 -0.7659 -0.3583 -0.1702
12694TIP3    H159497   6.789   1.285   5.387 -1.3134 -1.1591  0.1817
12694TIP3    H259498   6.845   1.239   5.254 -0.4954  0.0545  0.0948
12695TIP3   OH259499   1.750   2.901   1.570 -0.0051 -0.3506 -0.3831
12695TIP3    H159500   1.726   2.854   1.650 -0.6265 -1.9037 -1.4569
12695TIP3    H259501   1.840   2.929   1.585 -0.6872  0.9263  1.5635
12696TIP3   OH259502   3.086   6.144   1.514  0.9348 -0.1202  0.7308
12696TIP3    H159503   3.111   6.163   1.604  1.4465  0.4011  0.4815
12696TIP3    H259504   3.036   6.063   1.520  1.9199 -0.6929  1.3481
12697TIP3   OH259505   5.482   1.996  11.201  0.9912 -0.3666  0.4456
12697TIP3    H159506   5.417   1.953  11.146 -0.3852  2.1823  0.0208
12697TIP3    H259507   5.540   2.041  11.140  1.2700 -0.0175  0.9678
12698TIP3   OH259508   0.569   3.892  16.717 -0.0787 -0.2422  0.3802
12698TIP3    H159509   0.486   3.844  16.724 -0.0488 -0.4010 -0.2947
12698TIP3    H259510   0.555   3.972  16.768 -1.0208  0.2371 -0.6113
12699TIP3   OH259511   2.539   6.346   0.439 -0.0578  0.1094  0.1995
12699TIP3    H159512   2.484   6.294   0.498  0.2115 -1.1447 -0.6467
12699TIP3    H259513   2.628   6.327   0.466  0.0008  2.3716  1.7623
12700TIP3   OH259514   6.098   5.760  16.985  0.0204  0.2111  0.4646
12700TIP3    H159515   6.077   5.688  17.045  1.8732  0.1142  1.0347
12700TIP3    H259516   6.168   5.808  17.030 -0.3025  1.6091 -0.5096
12701TIP3   OH259517   5.470   1.226   4.933 -0.4677 -0.4121  0.0030
12701TIP3    H159518   5.488   1.313   4.968 -1.1045 -1.0466  2.0108
12701TIP3    H259519   5.407   1.241   4.862 -0.4051  0.7867  0.1945
12702TIP3   OH259520   1.216   2.521  13.410  0.3501  0.3607 -0.1928
12702TIP3    H159521   1.163   2.480  13.477  0.0725  1.2204  0.1250
12702TIP3    H259522   1.277   2.578  13.458  0.4796  0.6044 -0.6389
12703TIP3   OH259523   0.146   4.528  13.670 -0.7078 -0.0215  0.1106
12703TIP3    H159524   0.178   4.450  13.714 -0.3218  0.3247  0.4447
12703TIP3    H259525   0.161   4.599  13.733 -1.7830  0.2018  0.1272
12704TIP3   OH259526   1.967   3.520   0.242  0.7577  0.3137 -0.5722
12704TIP3    H159527   2.009   3.501   0.326  0.5204 -0.9773 -0.7313
12704TIP3    H259528   2.027   3.484   0.177 -0.2777 -0.9752 -0.8303
12705TIP3   OH259529   6.028   4.215  13.431  0.1240  0.1193  0.5294
12705TIP3    H159530   5.988   4.301  13.414 -2.4540 -1.1432  0.0674
12705TIP3    H259531   6.043   4.214  13.525 -1.3191  0.4391  0.7614
12706TIP3   OH259532   0.608   3.949  13.191  0.3454  0.3840  0.0346
12706TIP3    H159533   0.687   3.925  13.237  1.3745  2.1673 -0.7493
12706TIP3    H259534   0.564   3.866  13.172  2.4881 -0.6825 -0.3387
12707TIP3   OH259535   0.526   4.122   2.976 -0.2954  0.7066 -0.6164
12707TIP3    H159536   0.546   4.212   3.003 -0.2824  0.9116 -1.2877
12707TIP3    H259537   0.555   4.118   2.885  0.6873 -0.2980 -0.2647
12708TIP3   OH259538   3.898   0.945  12.739  0.5290 -0.4170  1.0353
12708TIP3    H159539   3.831   0.968  12.674  2.2066  0.3852 -0.4692
12708TIP3    H259540   3.852   0.948  12.823 -1.3435 -0.0100  0.0278
12709TIP3   OH259541   4.055   4.976  15.344 -0.1678 -0.2491 -0.0233
12709TIP3    H159542   3.988   4.980  15.275 -0.6773 -0.6120  0.4433
12709TIP3    H259543   4.012   4.928  15.416  0.4957 -0.2270  0.3883
12710TIP3   OH259544   4.106   4.260   0.159 -0.2342  0.2275  0.6018
12710TIP3    H159545   4.020   4.301   0.147  1.1393  2.9739 -0.0538
12710TIP3    H259546   4.136   4.293   0.244  0.2184 -0.7002  0.8101
12711TIP3   OH259547   4.519   6.570   5.523 -0.1133  0.0406  0.1564
12711TIP3    H159548   4.551   6.591   5.436  0.4443 -1.4113  0.0005
12711TIP3    H259549   4.477   6.484   5.514  0.1496 -0.2332  1.3446
12712TIP3   OH259550   4.135   1.499   5.504  0.8167 -0.3706 -0.2155
12712TIP3    H159551   4.214   1.472   5.457  0.3960 -1.2300 -0.4496
12712TIP3    H259552   4.063   1.477   5.445  0.4305  0.8772 -0.2152
12713TIP3   OH259553   6.081   0.709  12.611 -0.4079  0.1247 -0.4648
12713TIP3    H159554   6.163   0.759  12.620 -0.3614 -0.0362  0.0242
12713TIP3    H259555   6.083   0.677  12.521 -0.0160  0.2696 -0.5109
12714TIP3   OH259556   6.406   4.940  11.790 -0.6250 -0.9369 -0.0578
12714TIP3    H159557   6.370   5.028  11.778 -1.7812 -1.3855  0.1077
12714TIP3    H259558   6.334   4.881  11.770  0.0698 -1.8561  0.0992
12715TIP3   OH259559   3.994   0.820  17.123 -0.3006  0.1865  0.6106
12715TIP3    H159560   4.030   0.885  17.183 -0.4534  1.3700 -0.5576
12715TIP3    H259561   3.912   0.858  17.092  0.6523  0.4206 -1.7233
12716TIP3   OH259562   2.748   2.542   6.395  0.2051  0.1436 -0.2277
12716TIP3    H159563   2.744   2.461   6.344 -0.4917  1.8665 -2.9691
12716TIP3    H259564   2.660   2.552   6.431  0.5506 -0.7789  0.9366
12717TIP3   OH259565   1.525   0.563   0.302  0.1353 -0.4913 -0.5901
12717TIP3    H159566   1.531   0.469   0.317 -1.7733 -0.5109  0.1679
12717TIP3    H259567   1.506   0.571   0.208  2.2617 -0.7547 -1.0716
12718TIP3   OH259568   0.351   0.151  15.861 -0.2438  0.1744  0.0706
12718TIP3    H159569   0.292   0.131  15.934 -0.4369 -0.4404 -0.2545
12718TIP3    H259570   0.388   0.237  15.883 -0.9477  0.3792  0.4774
12719TIP3   OH259571   6.478   0.783  13.144 -0.0380 -0.2065 -0.5531
12719TIP3    H159572   6.545   0.724  13.180 -0.4958  0.6152  1.7731
12719TIP3    H259573   6.526   0.864  13.124 -0.0426 -0.1298 -0.2710
12720TIP3   OH259574   4.526   6.154   5.268 -0.7419  0.4134  0.5307
12720TIP3    H159575   4.592   6.109   5.321  0.2992  2.8012  1.3396
12720TIP3    H259576   4.468   6.084   5.237  1.0068 -1.5007  1.4445
12721TIP3   OH259577   4.708   3.920   4.068  0.0413  0.0403 -0.6961
12721TIP3    H159578   4.767   3.924   4.143 -1.0884 -0.2549  0.2186
12721TIP3    H259579   4.733   3.841   4.021  0.8673  0.3202 -0.7376
12722TIP3   OH259580   4.683   4.058   3.157 -0.0216  0.5589  0.2805
12722TIP3    H159581   4.613   4.031   3.097  0.5236 -0.0145 -0.0999
12722TIP3    H259582   4.637   4.104   3.227 -0.8788 -0.5958  0.4967
12723TIP3   OH259583   6.334   6.442   2.471  0.7329 -0.0158 -0.2005
12723TIP3    H159584   6.387   6.521   2.469 -0.0204  0.5188  0.2571
12723TIP3    H259585   6.246   6.474   2.495  0.4259 -0.9819 -0.0375
12724TIP3   OH259586   0.308   0.904  16.121 -0.5832  0.4366  0.1243
12724TIP3    H159587   0.299   0.822  16.170 -1.9615 -1.1142 -2.5826
12724TIP3    H259588   0.218   0.938  16.115 -0.5400  0.2763 -1.7874
12725TIP3   OH259589   3.559   0.197  12.585  0.0711  0.4858 -0.4060
12725TIP3    H159590   3.592   0.115  12.549  1.7715  1.2801 -0.7161
12725TIP3    H259591   3.494   0.227  12.522 -0.5557 -0.6153 -0.2896
12726TIP3   OH259592   0.620   2.132   1.603  0.4746 -0.5509  0.6478
12726TIP3    H159593   0.535   2.167   1.626  1.4399  1.9939  0.4904
12726TIP3    H259594   0.639   2.169   1.516  1.0436 -2.3610 -0.0227
12727TIP3   OH259595   0.710   0.668  12.663  0.0866  0.2098 -0.7823
12727TIP3    H159596   0.789   0.719  12.646  0.3020  0.5371  1.1743
12727TIP3    H259597   0.640   0.720  12.623  0.6781  0.5994 -1.3241
12728TIP3   OH259598   1.043   3.701   5.439 -0.4669 -0.2003  0.1712
12728TIP3    H159599   1.023   3.706   5.532  0.9225  1.2606  0.4049
12728TIP3    H259600   1.101   3.775   5.422 -1.4284  0.0909 -2.0537
12729TIP3   OH259601   5.932   5.377  11.344 -0.1023  0.1192 -0.5359
12729TIP3    H159602   5.873   5.302  11.332 -0.2709  0.0390  0.7600
12729TIP3    H259603   5.904   5.439  11.277 -1.2233 -0.1939 -0.3820
12730TIP3   OH259604   0.675   3.237  10.791 -0.0146  0.1162 -0.2476
12730TIP3    H159605   0.664   3.144  10.808  1.0490  0.2535  1.3360
12730TIP3    H259606   0.589   3.267  10.762 -0.9136 -0.9520  1.2345
12731TIP3   OH259607   2.664   6.360  11.637 -0.3595  0.0951  0.2765
12731TIP3    H159608   2.691   6.452  11.628 -0.6776  0.1422 -0.1942
12731TIP3    H259609   2.571   6.360  11.616 -0.5203 -0.2243  0.9798
12732TIP3   OH259610   0.970   1.962  14.988 -0.2719 -0.3665  0.2915
12732TIP3    H159611   1.043   1.999  15.038 -1.1960 -1.5129  2.5466
12732TIP3    H259612   0.976   2.005  14.903  1.9655  0.8738  1.0223
12733TIP3   OH259613   4.942   5.463  11.757 -0.5197  0.0240 -0.1022
12733TIP3    H159614   4.979   5.386  11.713  1.2977  1.2995 -0.8616
12733TIP3    H259615   4.909   5.429  11.840  0.7249 -1.5026 -0.2150
12734TIP3   OH259616   2.552   0.790   1.346  0.1282 -0.5222  0.2320
12734TIP3    H159617   2.515   0.853   1.284  2.0198 -2.0053 -2.4977
12734TIP3    H259618   2.478   0.735   1.371 -0.4409 -0.6388 -1.6345
12735TIP3   OH259619   2.339   3.747   3.326  0.3539 -0.0478  0.0633
12735TIP3    H159620   2.418   3.708   3.291 -0.1831  0.0663 -1.3076
12735TIP3    H259621   2.306   3.802   3.255 -0.0513  1.2164  1.2063
12736TIP3   OH259622   6.755   1.485   2.875  0.0570 -0.1692  0.1440
12736TIP3    H159623   6.671   1.499   2.920 -0.0446 -0.7956  0.1559
12736TIP3    H259624   6.774   1.392   2.888 -0.0893 -0.4198 -1.2968
12737TIP3   OH259625   4.068   4.139  14.063  0.0782 -0.0415  0.1337
12737TIP3    H159626   3.984   4.100  14.039  1.2399 -1.5265 -1.6778
12737TIP3    H259627   4.104   4.080  14.129  1.1894 -1.3272 -1.5668
12738TIP3   OH259628   5.330   1.528   3.676  0.5937  0.2680  0.0340
12738TIP3    H159629   5.268   1.532   3.603  1.7258 -0.4463 -0.9753
12738TIP3    H259630   5.404   1.580   3.648  0.0678  1.9548  1.6527
12739TIP3   OH259631   6.330   0.174   4.028 -0.3291 -0.3470  0.1372
12739TIP3    H159632   6.236   0.160   4.025 -0.6258  1.1267  1.7366
12739TIP3    H259633   6.340   0.264   4.060  1.5908  0.2480 -1.9942
12740TIP3   OH259634   5.048   5.052   3.877 -0.3700 -0.0661  0.2900
12740TIP3    H159635   5.052   5.042   3.972 -0.0266 -1.0075  0.1891
12740TIP3    H259636   4.987   4.984   3.849 -0.1280 -0.0808 -0.2012
12741TIP3   OH259637   2.568   4.800  15.832 -0.1709 -0.7688 -0.5627
12741TIP3    H159638   2.598   4.875  15.780  0.1206 -0.6723 -0.2580
12741TIP3    H259639   2.494   4.833  15.883  0.0889 -0.6290 -0.2728
12742TIP3   OH259640   6.387   4.250   1.573  0.3091 -0.2368 -0.6174
12742TIP3    H159641   6.308   4.233   1.520  0.1029 -1.8210  0.1685
12742TIP3    H259642   6.387   4.180   1.638 -0.1959  2.4800  2.4144
12743TIP3   OH259643   2.239   4.952  11.670 -0.0942  0.1745 -0.4113
12743TIP3    H159644   2.150   4.917  11.674  0.5407 -1.3364  0.4578
12743TIP3    H259645   2.290   4.897  11.729  1.6160  0.4739 -1.5701
12744TIP3   OH259646   0.573   3.926   2.453  0.0466  0.4859  0.0553
12744TIP3    H159647   0.587   3.846   2.403  1.8514  0.2274  0.9496
12744TIP3    H259648   0.556   3.896   2.543  0.3903  1.0905  0.3266
12745TIP3   OH259649   5.202   3.971  15.652  0.0777 -0.6899  0.4112
12745TIP3    H159650   5.269   3.966  15.721  0.3686 -0.8560  0.1155
12745TIP3    H259651   5.124   4.005  15.697 -0.2862 -2.5181  1.2496
12746TIP3   OH259652   3.769   5.522  14.375 -0.0975  0.4414 -0.1823
12746TIP3    H159653   3.715   5.445  14.355 -2.2009  1.7942  0.1715
12746TIP3    H259654   3.794   5.511  14.466  1.6872 -1.0503 -0.8300
12747TIP3   OH259655   0.011   3.363   2.859  0.0708  0.4520  0.1289
12747TIP3    H159656  -0.074   3.374   2.816 -0.4794 -0.1770  1.0451
12747TIP3    H259657   0.073   3.405   2.799 -1.0448  2.0862  0.0773
12748TIP3   OH259658   5.780   4.795  13.861  0.3734 -0.9956 -0.1015
12748TIP3    H159659   5.697   4.768  13.822  0.2490 -0.8796  0.0847
12748TIP3    H259660   5.756   4.829  13.948  0.6273 -1.0794  0.0008
12749TIP3   OH259661   2.451   1.300   2.558  0.1292  0.0113 -0.1327
12749TIP3    H159662   2.437   1.208   2.581  0.6116 -0.4805 -1.7078
12749TIP3    H259663   2.408   1.349   2.628 -0.0217 -1.4065  0.8010
12750TIP3   OH259664   0.909   5.803  11.724 -0.1161 -0.4731 -0.0073
12750TIP3    H159665   0.951   5.855  11.792  0.9044  0.2020 -1.1356
12750TIP3    H259666   0.815   5.817  11.737  0.1630  2.8672 -1.1870
12751TIP3   OH259667   1.438   0.199  12.777  0.3961 -0.1284 -0.2701
12751TIP3    H159668   1.394   0.250  12.845 -1.8430 -1.6965 -0.4969
12751TIP3    H259669   1.368   0.167  12.721  1.8003 -2.6245 -0.7077
12752TIP3   OH259670   6.478   5.945  14.171  0.1073  0.1906 -0.2956
12752TIP3    H159671   6.536   5.871  14.153  1.0726  1.6965 -3.8197
12752TIP3    H259672   6.393   5.918  14.135 -0.3413 -0.3710  1.1494
12753TIP3   OH259673   1.664   6.104  14.886 -0.3095 -0.4065 -0.1676
12753TIP3    H159674   1.595   6.128  14.949  0.3637  0.8442  0.1039
12753TIP3    H259675   1.743   6.094  14.939  0.2126  0.4285 -0.7795
12754TIP3   OH259676   4.131   0.240  11.248 -0.0408 -0.1646 -0.2721
12754TIP3    H159677   4.120   0.145  11.245 -0.7910 -0.0489 -1.4663
12754TIP3    H259678   4.110   0.269  11.159 -2.5945  1.3981  0.7730
12755TIP3   OH259679   4.132   0.658   0.241 -0.1734 -0.2174  0.1523
12755TIP3    H159680   4.086   0.576   0.223 -0.2846  0.0885 -1.0282
12755TIP3    H259681   4.063   0.724   0.246  0.0228  0.0248 -0.2957
12756TIP3   OH259682   0.168   2.435   1.485 -0.2681  0.5243 -0.2616
12756TIP3    H159683   0.263   2.430   1.493 -0.2699  0.0461 -0.5201
12756TIP3    H259684   0.152   2.510   1.428  0.0993 -1.4613 -3.0931
12757TIP3   OH259685   5.403   5.549   5.258 -0.2924  0.3056 -0.1873
12757TIP3    H159686   5.396   5.566   5.352  1.9927  0.9189 -0.1135
12757TIP3    H259687   5.371   5.459   5.248  2.1846 -0.8272  1.6043
12758TIP3   OH259688   3.211   0.140   1.505  0.0039 -0.4857  0.1478
12758TIP3    H159689   3.149   0.154   1.576  0.6182  0.4150  0.5090
12758TIP3    H259690   3.159   0.152   1.425 -0.6515 -1.3630  0.4362
12759TIP3   OH259691   3.127   5.333  17.192 -0.3779  0.2315  0.1890
12759TIP3    H159692   3.207   5.366  17.150 -0.7796  1.0230  0.0362
12759TIP3    H259693   3.130   5.238  17.178  1.2098  0.0895  1.3424
12760TIP3   OH259694   6.585   5.171   0.695  0.1742 -0.0989  0.4172
12760TIP3    H159695   6.596   5.231   0.622 -0.2281  0.0658  0.4925
12760TIP3    H259696   6.491   5.167   0.710  0.2847  0.2147  1.2085
12761TIP3   OH259697   4.384   2.040   4.614 -0.1055  0.5372 -0.0130
12761TIP3    H159698   4.345   2.038   4.526  0.5931  0.9268 -0.3293
12761TIP3    H259699   4.323   2.092   4.666 -0.1554  0.9054 -0.4369
12762TIP3   OH259700   4.378   0.872  17.003  0.1367  0.2594 -0.2805
12762TIP3    H159701   4.413   0.838  17.085 -0.6193  1.7278  0.6811
12762TIP3    H259702   4.318   0.943  17.030 -1.8950 -0.7509 -1.9716
12763TIP3   OH259703   3.248   5.000   6.018 -0.0707  0.6635  0.4136
12763TIP3    H159704   3.192   4.976   5.944  0.1569  0.6706  0.2406
12763TIP3    H259705   3.333   5.019   5.979  0.5988 -1.2581  0.8886
12764TIP3   OH259706   1.483   0.273   5.594 -0.0338  0.4635 -0.4201
12764TIP3    H159707   1.397   0.263   5.635  1.0343 -0.7340  1.6103
12764TIP3    H259708   1.520   0.352   5.633  0.3707  0.1827 -0.2374
12765TIP3   OH259709   1.404   1.506  11.144 -0.1074  0.0263  0.3798
12765TIP3    H159710   1.485   1.456  11.154 -0.8348 -1.4786 -0.9860
12765TIP3    H259711   1.426   1.575  11.081  0.0870 -0.4254 -0.0437
12766TIP3   OH259712   2.867   4.294   5.626  0.2119  0.2041  1.0148
12766TIP3    H159713   2.830   4.209   5.650 -0.7459  0.2663 -0.2101
12766TIP3    H259714   2.959   4.276   5.609 -0.1538 -0.7492 -0.0164
12767TIP3   OH259715   5.874   0.159   0.960  0.3755 -0.9422 -0.0966
12767TIP3    H159716   5.781   0.173   0.944  0.4437 -2.2991 -1.8106
12767TIP3    H259717   5.918   0.205   0.889  1.0088 -0.5774  0.5202
12768TIP3   OH259718   1.331   6.664   2.002  0.6992  0.6532 -0.1307
12768TIP3    H159719   1.420   6.680   2.031  1.1164  0.5273 -1.3140
12768TIP3    H259720   1.296   6.751   1.983  0.6691  0.6787  0.0392
12769TIP3   OH259721   6.163   2.164   2.017  0.2788  0.4125 -0.0278
12769TIP3    H159722   6.077   2.146   1.979 -0.3040  2.3877  0.2905
12769TIP3    H259723   6.216   2.194   1.942  0.5155 -0.2152 -0.1139
12770TIP3   OH259724   1.559   0.551   5.119  0.3235  0.0638 -0.4531
12770TIP3    H159725   1.554   0.553   5.215  0.0199  1.8313 -0.4870
12770TIP3    H259726   1.468   0.545   5.091  0.4960 -2.3911 -0.6385
12771TIP3   OH259727   4.221   2.169   5.660 -0.1626  0.2461  0.5236
12771TIP3    H159728   4.307   2.171   5.619  1.0735 -2.0193  2.8309
12771TIP3    H259729   4.160   2.153   5.588  1.5599 -0.1477 -0.8779
12772TIP3   OH259730   4.260   3.959   5.847 -0.1259  0.2624  0.3515
12772TIP3    H159731   4.272   3.943   5.753  0.5477  2.6934 -0.0000
12772TIP3    H259732   4.347   3.943   5.885 -0.3708 -0.6037  0.5707
12773TIP3   OH259733   4.458   1.138   6.284  0.0215  0.1192  0.1260
12773TIP3    H159734   4.452   1.150   6.379  1.2327 -0.6706  0.3093
12773TIP3    H259735   4.489   1.049   6.273 -2.0972 -0.4943 -1.0783
12774TIP3   OH259736   0.962   1.756   4.701  0.3015  0.1575  0.4428
12774TIP3    H159737   0.878   1.800   4.705  0.7222  0.8252  2.4613
12774TIP3    H259738   0.965   1.701   4.780  0.8483 -1.5477 -0.7183
12775TIP3   OH259739   3.878   2.080  13.632  0.0734 -0.3296 -0.7225
12775TIP3    H159740   3.944   2.076  13.563  1.1953 -0.5962  0.3532
12775TIP3    H259741   3.813   2.014  13.607  0.5580 -0.5488 -1.4277
12776TIP3   OH259742   4.995   0.847  16.273 -0.0676  0.1955 -0.7639
12776TIP3    H159743   5.041   0.763  16.268 -1.7369 -0.9912  2.1843
12776TIP3    H259744   4.902   0.823  16.278 -0.5341  2.1594  0.5146
12777TIP3   OH259745   5.780   4.443  11.607  0.1431  0.5843  0.0652
12777TIP3    H159746   5.852   4.405  11.556  1.2070  1.5570  0.8126
12777TIP3    H259747   5.706   4.446  11.546  0.7062 -0.5243 -0.6831
12778TIP3   OH259748   1.527   2.854  16.959 -0.6086 -0.5343  0.6198
12778TIP3    H159749   1.560   2.843  16.870 -2.5918  2.0337 -0.4857
12778TIP3    H259750   1.451   2.797  16.964 -0.2491 -0.9994  0.8168
12779TIP3   OH259751   5.739   1.290  12.651 -0.4944  0.1589 -0.1781
12779TIP3    H159752   5.829   1.322  12.660  0.0864 -1.5254  0.2308
12779TIP3    H259753   5.701   1.345  12.583  0.7618  1.0896 -0.1499
12780TIP3   OH259754   4.287   2.216  11.953  0.1769  0.8987  0.1847
12780TIP3    H159755   4.310   2.126  11.976 -0.8253  0.5678 -0.0678
12780TIP3    H259756   4.344   2.238  11.879  1.0142  0.7699  0.7929
12781TIP3   OH259757   3.193   4.045   3.891  0.0717  0.4360 -0.4531
12781TIP3    H159758   3.229   4.123   3.933  0.2746  0.4153 -0.5924
12781TIP3    H259759   3.192   3.979   3.961 -1.8129  1.0909  0.1732
12782TIP3   OH259760   4.093   6.733  11.695 -0.3012 -0.2119 -0.0879
12782TIP3    H159761   4.010   6.743  11.741 -0.5976  0.3213 -0.7293
12782TIP3    H259762   4.141   6.669  11.746 -0.9988 -0.3157  0.4441
12783TIP3   OH259763   4.273   2.923  16.731 -0.1200 -0.5640  0.0781
12783TIP3    H159764   4.293   2.850  16.673  2.4960 -0.0684  0.2803
12783TIP3    H259765   4.313   2.899  16.815 -0.8347  0.2700  0.6698
12784TIP3   OH259766   3.155   2.245   2.260  0.0788  0.2356  0.1192
12784TIP3    H159767   3.169   2.169   2.204 -0.6667  1.0829 -1.2864
12784TIP3    H259768   3.188   2.319   2.208 -0.5978  1.0339  0.8050
12785TIP3   OH259769   4.195   2.342  16.402 -0.0810  0.2289  0.1481
12785TIP3    H159770   4.119   2.284  16.393  0.0263  0.4432 -2.5979
12785TIP3    H259771   4.162   2.417  16.451 -0.2178 -2.1201  3.8148
12786TIP3   OH259772   6.739   1.245  14.729 -0.2148  0.5854  0.1020
12786TIP3    H159773   6.827   1.272  14.754 -0.3037 -0.2123  1.3816
12786TIP3    H259774   6.736   1.253  14.634  1.9178 -1.3344 -0.1544
12787TIP3   OH259775   5.075   3.136  13.389 -0.2845  0.2640 -0.3534
12787TIP3    H159776   5.033   3.051  13.404  1.8513 -0.6864  0.4692
12787TIP3    H259777   5.089   3.172  13.477 -1.5583  1.6972 -0.7092
12788TIP3   OH259778   6.143   0.305  11.458  0.1119 -0.0996  0.1111
12788TIP3    H159779   6.094   0.240  11.509 -1.6875  0.2192 -1.1590
12788TIP3    H259780   6.235   0.285  11.476 -0.4249 -2.3630  0.5338
12789TIP3   OH259781   1.861   3.024   0.595 -0.5920 -0.1504 -0.0845
12789TIP3    H159782   1.777   3.062   0.621 -1.5250 -0.5187 -2.3779
12789TIP3    H259783   1.898   3.088   0.534  0.6322 -0.1687  0.6123
12790TIP3   OH259784   0.082   4.593  14.640 -1.1468 -0.0776 -0.2380
12790TIP3    H159785   0.086   4.649  14.718 -2.6586 -0.8268  0.3850
12790TIP3    H259786   0.026   4.641  14.579 -0.6978  0.0799 -0.5340
12791TIP3   OH259787   1.718   2.647  11.614 -0.2360 -0.8099 -0.3790
12791TIP3    H159788   1.741   2.738  11.635 -0.6634 -0.3521 -1.8385
12791TIP3    H259789   1.796   2.597  11.638 -0.4278 -0.2284  1.5320
12792TIP3   OH259790   2.656   0.122   0.064 -0.5421 -0.3467  0.0058
12792TIP3    H159791   2.585   0.158   0.010  0.5506  1.5704 -0.2061
12792TIP3    H259792   2.611   0.081   0.138 -1.9735 -1.3041 -1.3438
12793TIP3   OH259793   2.610   1.763  11.933 -0.1713 -0.4817 -0.4452
12793TIP3    H159794   2.518   1.791  11.937  0.1301  0.2721  2.1304
12793TIP3    H259795   2.642   1.799  11.850 -0.7379  4.1071  1.1342
12794TIP3   OH259796   1.718   5.558   0.208  0.2272 -0.3139 -0.3610
12794TIP3    H159797   1.690   5.637   0.162 -1.9355 -0.7248  0.1871
12794TIP3    H259798   1.777   5.589   0.276 -1.7945  1.0300  0.8353
12795TIP3   OH259799   5.610   5.355   5.383 -0.1722  0.3279 -0.0508
12795TIP3    H159800   5.588   5.433   5.434 -1.2919  0.3651 -0.5742
12795TIP3    H259801   5.530   5.302   5.384  0.8835 -1.2874  1.1283
12796TIP3   OH259802   6.053   2.411   5.965 -0.2597 -0.3260 -0.0478
12796TIP3    H159803   6.006   2.338   5.925 -0.7425 -0.0615  0.0376
12796TIP3    H259804   6.036   2.402   6.059 -1.9659  1.0454 -0.2070
12797TIP3   OH259805   0.938   4.379  14.971 -0.2745 -0.6666  0.0342
12797TIP3    H159806   0.996   4.438  15.019 -0.9899 -0.0663  0.1725
12797TIP3    H259807   0.908   4.317  15.037  0.1564 -0.9359 -0.0231
12798TIP3   OH259808   2.247   6.549   5.435  0.2637  0.1123 -0.6291
12798TIP3    H159809   2.318   6.563   5.371 -1.0791  0.1200 -2.1417
12798TIP3    H259810   2.283   6.485   5.496  1.7284  0.4121 -1.1564
12799TIP3   OH259811   6.105   0.226   0.416  0.4995 -0.6241 -0.2163
12799TIP3    H159812   6.061   0.212   0.332 -0.5845 -1.5227  0.4976
12799TIP3    H259813   6.086   0.317   0.438  0.4930 -0.4893 -0.7616
12800TIP3   OH259814   5.754   4.859   2.030  0.3001 -0.0468  0.1683
12800TIP3    H159815   5.696   4.878   2.103 -0.9404 -1.0898 -0.5301
12800TIP3    H259816   5.717   4.781   1.989  0.4982  0.9782 -2.0639
12801TIP3   OH259817   6.691   1.957  16.699 -0.1088  0.2322  0.2658
12801TIP3    H159818   6.754   1.962  16.627 -1.0103 -0.1438 -0.5720
12801TIP3    H259819   6.677   2.048  16.725  0.2472  0.3687 -0.0125
12802TIP3   OH259820   4.010   3.048  13.971  0.5074 -0.6203  0.6162
12802TIP3    H159821   4.047   3.130  14.003  0.0894  1.2889 -3.5368
12802TIP3    H259822   4.086   2.997  13.943  0.5221  0.5939 -1.7174
12803TIP3   OH259823   5.717   3.896   5.717  0.1289 -0.1037  0.4862
12803TIP3    H159824   5.635   3.933   5.749  0.0923  0.1649  0.0885
12803TIP3    H259825   5.782   3.965   5.733  0.1385 -0.0282  0.1288
12804TIP3   OH259826   0.861   0.259  13.199 -0.0539  0.3037 -0.6096
12804TIP3    H159827   0.804   0.264  13.122  0.3584 -2.0334 -1.0913
12804TIP3    H259828   0.838   0.336  13.250 -1.4238  1.0737 -2.3289
12805TIP3   OH259829   4.714   6.555   0.022 -0.5308  0.0148  1.2366
12805TIP3    H159830   4.671   6.635  -0.008  0.9412 -0.0986 -1.2683
12805TIP3    H259831   4.643   6.502   0.058 -2.1447  0.7244 -0.8365
12806TIP3   OH259832   1.594   4.810   2.077 -0.1328  0.4479 -0.0784
12806TIP3    H159833   1.567   4.753   2.149 -0.7358  0.8467  0.0097
12806TIP3    H259834   1.554   4.771   2.000 -0.2927  0.5758 -0.0606
12807TIP3   OH259835   4.954   3.774   0.438  0.1566 -0.1070 -0.1992
12807TIP3    H159836   5.000   3.712   0.381 -0.5460 -0.7476 -0.0858
12807TIP3    H259837   4.904   3.719   0.498 -0.0459  0.5727  0.2663
12808TIP3   OH259838   5.714   6.683  14.224 -0.1155 -0.2811 -0.7227
12808TIP3    H159839   5.753   6.770  14.236  0.2313 -0.4919 -0.2892
12808TIP3    H259840   5.780   6.623  14.259  0.1103 -0.7958 -1.9899
12809TIP3   OH259841   2.870   1.027   4.820  0.1649  0.3941  0.1276
12809TIP3    H159842   2.910   1.003   4.736  0.4326 -1.2585  0.7164
12809TIP3    H259843   2.864   1.122   4.817  3.8968  0.7100 -0.1080
12810TIP3   OH259844   4.575   1.732   0.340  0.5975  0.0745  0.2849
12810TIP3    H159845   4.640   1.772   0.283 -0.8003 -0.2689 -1.5934
12810TIP3    H259846   4.624   1.667   0.390  2.0092  0.9839  0.1200
12811TIP3   OH259847   3.471   2.408  12.143 -0.1453  0.0602 -0.9561
12811TIP3    H159848   3.563   2.386  12.125 -0.0074  1.1709 -1.7096
12811TIP3    H259849   3.435   2.429  12.057 -0.7858  0.7843 -0.5153
12812TIP3   OH259850   1.622   0.625  13.967 -0.2414  0.7495 -0.2921
12812TIP3    H159851   1.599   0.608  14.058  0.7885  0.5545 -0.0658
12812TIP3    H259852   1.717   0.626  13.965 -0.1775 -2.1390 -1.8847
12813TIP3   OH259853   1.208   1.010  14.018  0.6408  0.3167 -0.3226
12813TIP3    H159854   1.215   1.064  14.097 -0.5548 -0.9123  0.6361
12813TIP3    H259855   1.298   0.981  14.001  0.6089 -1.1151  1.8095
12814TIP3   OH259856   0.241   2.351   4.835  0.5742  0.3620  0.0649
12814TIP3    H159857   0.324   2.305   4.831  0.3595  0.0308 -0.6447
12814TIP3    H259858   0.210   2.353   4.744  0.6030  1.9361  0.0780
12815TIP3   OH259859   5.240   3.877   5.901  0.4647  0.5254  0.5048
12815TIP3    H159860   5.209   3.803   5.952 -0.3818  0.4321 -0.1321
12815TIP3    H259861   5.164   3.934   5.892  1.3216  1.8640  1.6645
12816TIP3   OH259862   3.485   5.804  16.775  0.2969 -0.4233 -0.0638
12816TIP3    H159863   3.518   5.879  16.726 -0.8124  0.2473  0.2090
12816TIP3    H259864   3.529   5.729  16.736 -0.7198  0.0685 -2.2156
12817TIP3   OH259865   3.872   1.575  14.350  0.2288  0.2349 -0.0566
12817TIP3    H159866   3.924   1.646  14.312  1.7054  0.0223  1.4615
12817TIP3    H259867   3.910   1.495  14.314 -0.5784  0.1580 -0.7488
12818TIP3   OH259868   0.193   0.879  11.824  0.2692 -0.3471  0.3876
12818TIP3    H159869   0.236   0.819  11.762 -2.2391  0.2246 -2.0127
12818TIP3    H259870   0.252   0.954  11.829 -0.1511  0.2497 -2.5396
12819TIP3   OH259871   4.980   1.701  16.243 -0.0821  0.2264  0.6178
12819TIP3    H159872   4.930   1.782  16.252  0.0329  0.1802  1.7032
12819TIP3    H259873   4.950   1.663  16.160  1.9908  2.8392 -1.3964
12820TIP3   OH259874   4.412   3.689  17.171 -0.0889 -0.5559  0.4068
12820TIP3    H159875   4.487   3.747  17.185 -1.2153  0.6050  1.7849
12820TIP3    H259876   4.348   3.744  17.126 -1.2360 -0.6591  1.8734
12821TIP3   OH259877   5.977   1.234   2.034 -0.2455 -0.4915  1.0005
12821TIP3    H159878   5.946   1.152   1.994 -1.0629 -0.5185  1.6716
12821TIP3    H259879   6.002   1.208   2.123  0.2738 -0.1662  0.9495
12822TIP3   OH259880   3.563   4.742  14.503 -0.5632 -0.8386 -0.1497
12822TIP3    H159881   3.650   4.713  14.477 -0.3191 -0.0899 -0.1888
12822TIP3    H259882   3.530   4.790  14.427 -0.1115  0.8007  0.6807
12823TIP3   OH259883   1.332   2.586   4.314 -0.3706 -0.3095 -0.2704
12823TIP3    H159884   1.339   2.561   4.222  0.9406 -0.7395 -0.0690
12823TIP3    H259885   1.318   2.504   4.361  0.7499 -0.3181  0.0734
12824TIP3   OH259886   1.728   0.555  10.488 -0.3657 -0.0457 -0.0837
12824TIP3    H159887   1.737   0.613  10.412 -0.1603 -0.5224 -0.4276
12824TIP3    H259888   1.794   0.587  10.550 -0.8719  0.6577  0.0984
12825TIP3   OH259889   0.794   5.421  13.311  0.1566  0.3607 -0.1678
12825TIP3    H159890   0.707   5.448  13.341  0.3170  0.0112  0.5973
12825TIP3    H259891   0.851   5.435  13.386  0.5733 -0.4261 -0.3410
12826TIP3   OH259892   3.936   2.990   5.935  0.1923 -0.4846 -0.3281
12826TIP3    H159893   3.869   3.057   5.951 -0.0406 -0.4050 -1.5707
12826TIP3    H259894   3.893   2.928   5.876  1.1523 -0.5213 -1.0006
12827TIP3   OH259895   4.049   3.236   6.068 -0.3293 -0.0360  0.2344
12827TIP3    H159896   3.975   3.229   6.129  1.4778  0.6576  2.6109
12827TIP3    H259897   4.109   3.167   6.096  0.8065  0.7040 -0.3450
12828TIP3   OH259898   6.364   2.064  15.419 -0.2062  0.1613 -0.0363
12828TIP3    H159899   6.270   2.058  15.438 -0.4203  1.0184 -0.7934
12828TIP3    H259900   6.369   2.116  15.338  0.7841 -1.8113 -1.2900
12829TIP3   OH259901   2.007   3.778   2.086 -0.3299  0.2399  0.3618
12829TIP3    H159902   2.048   3.693   2.074  0.5353  0.4969  1.3881
12829TIP3    H259903   1.974   3.802   2.000  0.5930 -0.5398 -0.2094
12830TIP3   OH259904   1.462   5.123   5.031 -0.5590  0.0495 -0.1354
12830TIP3    H159905   1.456   5.056   4.962 -0.2483 -0.3835  0.2557
12830TIP3    H259906   1.545   5.168   5.013 -0.7985  0.3688 -0.4354
12831TIP3   OH259907   3.266   5.639  12.077  0.1691 -0.4891  0.2309
12831TIP3    H159908   3.291   5.652  12.169 -1.6983  1.1249  0.5464
12831TIP3    H259909   3.329   5.690  12.028  0.9523 -1.0588  0.6263
12832TIP3   OH259910   3.215   1.005  15.494  0.5812 -0.3499 -0.5522
12832TIP3    H159911   3.309   0.988  15.496  0.1750 -2.6792  0.7871
12832TIP3    H259912   3.197   1.027  15.403  2.5048  0.7007 -0.7113
12833TIP3   OH259913   0.642   3.135  11.572 -0.2526 -0.6760  0.5374
12833TIP3    H159914   0.635   3.221  11.531 -1.6944 -1.3033 -0.5802
12833TIP3    H259915   0.556   3.095  11.559  0.5022 -2.4209  0.7294
12834TIP3   OH259916   4.992   3.306   4.371  0.4265  0.4769  0.1494
12834TIP3    H159917   5.029   3.226   4.334  0.4142  0.5361  0.0098
12834TIP3    H259918   4.933   3.275   4.440 -0.7554  0.2976 -0.9162
12835TIP3   OH259919   2.925   0.778   4.508 -0.4372 -0.6236  0.1005
12835TIP3    H159920   2.832   0.764   4.491 -0.2859 -0.0238 -1.2607
12835TIP3    H259921   2.968   0.701   4.471 -0.3636 -0.7550  0.4592
12836TIP3   OH259922   6.529   4.058   4.341  0.1091  0.1443  0.2461
12836TIP3    H159923   6.443   4.054   4.382  0.7226 -2.1984  1.4185
12836TIP3    H259924   6.549   3.967   4.317  1.4623  0.9123 -1.7095
12837TIP3   OH259925   4.487   3.982   2.979  0.3731 -0.2177  0.1691
12837TIP3    H159926   4.440   3.909   2.938 -1.4640  0.3786  1.1427
12837TIP3    H259927   4.458   4.059   2.931  0.4575  0.1421  0.6882
12838TIP3   OH259928   1.102   2.866   1.639  0.2314  0.2252  0.0973
12838TIP3    H159929   1.063   2.814   1.709 -0.2263 -0.0511 -0.3566
12838TIP3    H259930   1.180   2.906   1.679 -1.5504  2.3697  1.6035
12839TIP3   OH259931   1.022   4.986   0.786 -0.3465  0.0741  0.0160
12839TIP3    H159932   1.085   4.982   0.715 -0.0602 -2.2736  0.3659
12839TIP3    H259933   0.938   5.000   0.742  0.0832  0.6655 -0.6299
12840TIP3   OH259934   3.692   1.005  11.913 -0.6897 -0.2859 -0.2856
12840TIP3    H159935   3.731   0.921  11.938 -0.9922 -0.7219 -1.2776
12840TIP3    H259936   3.641   1.031  11.990  0.8335 -0.1380  0.6957
12841TIP3   OH259937   6.306   5.540  13.254 -0.1067 -0.2285 -0.0610
12841TIP3    H159938   6.398   5.567  13.262 -0.5166  0.5088  2.5145
12841TIP3    H259939   6.309   5.445  13.265  0.2947 -0.1397  0.6469
12842TIP3   OH259940   5.396   0.294   0.387 -0.4001 -1.1580  0.4299
12842TIP3    H159941   5.414   0.200   0.382  2.4199 -0.6909  1.1670
12842TIP3    H259942   5.361   0.316   0.300  0.5797 -2.5431 -0.3300
12843TIP3   OH259943   4.723   6.183  16.883 -0.2639 -0.2864 -0.5010
12843TIP3    H159944   4.794   6.212  16.826  0.2567 -0.2399  0.1728
12843TIP3    H259945   4.644   6.191  16.829  0.3874 -1.5200 -1.6467
12844TIP3   OH259946   1.333   6.361   3.673  0.3329  0.6598 -0.3534
12844TIP3    H159947   1.241   6.333   3.678  0.3394  0.8608  0.8846
12844TIP3    H259948   1.383   6.286   3.705  0.4159  1.6600  1.9022
12845TIP3   OH259949   1.679   5.406  14.540 -0.7646 -0.0835  0.0385
12845TIP3    H159950   1.603   5.443  14.494 -2.7733 -1.2208  2.3324
12845TIP3    H259951   1.678   5.449  14.626  1.0598 -0.2980  0.1764
12846TIP3   OH259952   6.327   6.148  14.316 -0.2328 -0.3462 -0.0282
12846TIP3    H159953   6.238   6.114  14.310 -0.1836 -0.3670 -0.6551
12846TIP3    H259954   6.383   6.073  14.295 -0.1314  0.1800 -1.7188
12847TIP3   OH259955   4.189   5.961  16.555  0.0829 -0.2084  0.3850
12847TIP3    H159956   4.127   5.898  16.518 -0.3835  0.1668  0.5153
12847TIP3    H259957   4.274   5.919  16.547 -0.3297 -1.2651  1.3267
12848TIP3   OH259958   4.965   2.935  14.164  0.2965  0.8607 -0.1323
12848TIP3    H159959   5.029   2.889  14.110  1.1750  0.8688  0.8846
12848TIP3    H259960   5.011   3.013  14.195  0.3158  0.0656  1.8828
12849TIP3   OH259961   3.871   0.246   0.140 -1.1218 -0.3495  0.2308
12849TIP3    H159962   3.813   0.185   0.186  0.1060 -2.0484 -0.4306
12849TIP3    H259963   3.924   0.191   0.082  0.2988  1.2912 -0.0894
12850TIP3   OH259964   4.341   3.692  10.937 -0.4569 -0.3798  0.4089
12850TIP3    H159965   4.263   3.637  10.947 -2.5293  2.3367 -0.2225
12850TIP3    H259966   4.353   3.700  10.842  1.6496 -2.1276  0.4702
12851TIP3   OH259967   3.601   5.317  14.332 -0.2719  0.5573  0.1593
12851TIP3    H159968   3.519   5.341  14.375 -0.2899 -0.6847  0.8221
12851TIP3    H259969   3.600   5.222  14.329  1.1853  0.5342  0.2319
12852TIP3   OH259970   6.615   4.202  13.650 -0.0611 -0.1816 -1.0681
12852TIP3    H159971   6.671   4.186  13.574  0.2544  1.6543 -1.2341
12852TIP3    H259972   6.675   4.199  13.725 -0.0275  0.0714 -1.0837
12853TIP3   OH259973   6.456   1.332   2.840 -0.1828  1.0481 -0.3952
12853TIP3    H159974   6.431   1.382   2.917  1.6898  0.7495  0.4416
12853TIP3    H259975   6.445   1.392   2.766 -2.1705  1.2722  0.0617
12854TIP3   OH259976   1.072   4.095  14.832  0.0214  0.1704  0.0567
12854TIP3    H159977   1.014   4.095  14.755 -0.4856  1.9423  0.4014
12854TIP3    H259978   1.063   4.183  14.868  2.3548  0.2297  0.5778
12855TIP3   OH259979   2.043   1.323  12.254 -0.0847 -0.4291 -0.5564
12855TIP3    H159980   2.001   1.408  12.264  0.5271 -0.2608  0.6532
12855TIP3    H259981   2.104   1.334  12.180 -0.4155  0.0130 -0.7577
12856TIP3   OH259982   5.243   0.690   6.416 -0.2355  0.6776  0.6283
12856TIP3    H159983   5.156   0.658   6.438 -1.4791  2.3955 -1.6445
12856TIP3    H259984   5.251   0.773   6.462 -0.5264  1.4099 -0.6349
12857TIP3   OH259985   1.419   3.927  15.252 -0.3025 -0.3618 -0.3317
12857TIP3    H159986   1.323   3.929  15.254 -0.3425 -1.5732 -0.7211
12857TIP3    H259987   1.440   3.835  15.237  0.9548 -0.5003  2.1171
12858TIP3   OH259988   4.694   6.404  14.673  0.6093 -0.1317 -0.3646
12858TIP3    H159989   4.751   6.450  14.611  0.7068 -0.6602 -0.6694
12858TIP3    H259990   4.606   6.433  14.651  0.7811  0.9747  0.3485
12859TIP3   OH259991   4.415   2.340   1.353 -0.0445  0.5498 -0.2982
12859TIP3    H159992   4.388   2.428   1.327 -3.2789  0.2719  1.8577
12859TIP3    H259993   4.364   2.281   1.296  0.4002  0.0516 -0.1840
12860TIP3   OH259994   5.528   5.614   3.725 -0.3369 -0.0178 -0.1355
12860TIP3    H159995   5.595   5.656   3.672  2.3632 -2.9396  0.8433
12860TIP3    H259996   5.564   5.612   3.813 -2.6385  0.2145  0.8617
12861TIP3   OH259997   3.347   4.873   3.127  0.5566  0.0491  0.0043
12861TIP3    H159998   3.386   4.869   3.040  0.0653  1.4096 -0.2883
12861TIP3    H259999   3.382   4.953   3.166 -0.3763  0.2203  0.5069
12862TIP3   OH260000   1.089   6.756   1.557 -0.6527 -0.2783 -0.3250
12862TIP3    H160001   1.000   6.730   1.582 -0.6619  0.2931  0.2471
12862TIP3    H260002   1.076   6.814   1.481 -0.8732  0.9691  0.6491
12863TIP3   OH260003   5.176   0.355  15.305  0.4985 -0.1610  0.4715
12863TIP3    H160004   5.162   0.318  15.218 -0.2707 -0.0274  0.5372
12863TIP3    H260005   5.242   0.423  15.291  1.9209 -1.5506  0.3564
12864TIP3   OH260006   6.434   0.660   3.710 -0.4038  0.9841 -0.0617
12864TIP3    H160007   6.458   0.752   3.695  1.9475  0.4159  0.0351
12864TIP3    H260008   6.355   0.664   3.764 -0.5625  2.9447 -0.4100
12865TIP3   OH260009   1.678   3.916   6.057 -0.2203 -0.1239 -0.5564
12865TIP3    H160010   1.768   3.943   6.042 -0.1259  0.7600  1.3625
12865TIP3    H260011   1.661   3.849   5.990  1.6973  0.0168 -1.2203
12866TIP3   OH260012   6.043   2.336   5.130  0.3798  0.1463 -0.2159
12866TIP3    H160013   6.126   2.287   5.122  0.4377  0.1008  0.6163
12866TIP3    H260014   5.980   2.283   5.082  0.1722 -1.4199  1.7216
12867TIP3   OH260015   3.750   0.498  16.285  0.0336  0.1405 -0.2247
12867TIP3    H160016   3.777   0.425  16.341  0.6649  0.7913  0.3270
12867TIP3    H260017   3.754   0.575  16.341 -2.5891  0.3446 -0.2512
12868TIP3   OH260018   2.141   0.848   1.223  0.1130 -0.2147 -0.5476
12868TIP3    H160019   2.070   0.797   1.184  0.9628 -1.3817 -0.5869
12868TIP3    H260020   2.100   0.932   1.247 -0.4516  0.4577 -3.7362
12869TIP3   OH260021   5.636   5.638  16.744 -0.1280  0.1013 -0.1265
12869TIP3    H160022   5.704   5.638  16.676  1.2322 -0.1364  1.2087
12869TIP3    H260023   5.555   5.619  16.697  0.8756 -0.6041 -1.6022
12870TIP3   OH260024   2.110   1.253  16.168 -0.3214  0.1641 -0.0540
12870TIP3    H160025   2.108   1.344  16.139 -0.8133  0.5709  1.2329
12870TIP3    H260026   2.063   1.253  16.251  1.2176 -0.9421  0.8463
12871TIP3   OH260027   1.509   3.850   4.488  0.1459  0.5364 -0.1052
12871TIP3    H160028   1.471   3.875   4.573  0.5504 -1.0107  0.5366
12871TIP3    H260029   1.449   3.784   4.454 -0.6070  1.9438 -1.5405
12872TIP3   OH260030   4.303   1.875   2.816  0.4016 -0.3039  0.4667
12872TIP3    H160031   4.312   1.934   2.741 -0.5145 -1.0771 -0.2531
12872TIP3    H260032   4.342   1.792   2.786 -2.5943 -1.5230 -0.2060
12873TIP3   OH260033   6.048   4.662  14.059  1.0625 -0.4968 -0.2057
12873TIP3    H160034   6.088   4.583  14.024  1.4229 -1.2225  1.7583
12873TIP3    H260035   6.097   4.734  14.019  2.2555 -1.3081 -0.2358
12874TIP3   OH260036   2.336   2.768  16.432  0.4867  0.6181  0.8518
12874TIP3    H160037   2.391   2.824  16.377  1.7698 -2.2988 -0.9675
12874TIP3    H260038   2.265   2.826  16.461  2.5158  3.5332  0.2740
12875TIP3   OH260039   1.558   4.050  15.805  0.6330 -0.1676 -0.1399
12875TIP3    H160040   1.481   4.064  15.750  0.1583  1.1112  0.8086
12875TIP3    H260041   1.573   3.955  15.802 -0.9617 -0.4310 -0.3596
12876TIP3   OH260042   2.756   0.426  11.674 -0.5116  0.6710  0.2788
12876TIP3    H160043   2.840   0.421  11.720  0.2409  1.0088 -1.0409
12876TIP3    H260044   2.693   0.388  11.736  0.7168 -0.2065  1.0240
12877TIP3   OH260045   1.050   4.225   0.090 -0.9393 -0.6550  0.6889
12877TIP3    H160046   1.142   4.208   0.110 -1.4470 -2.8041  1.3246
12877TIP3    H260047   1.045   4.225  -0.005  0.1659  2.0934  0.6107
12878TIP3   OH260048   3.267   4.105   4.723 -0.0758  0.0234  0.0993
12878TIP3    H160049   3.218   4.043   4.670 -3.0829  0.6439  2.0254
12878TIP3    H260050   3.315   4.159   4.660  1.3859 -3.1704 -1.6688
12879TIP3   OH260051   6.264   5.466   2.835  0.3232  0.0445  0.4901
12879TIP3    H160052   6.236   5.427   2.918  0.1136 -0.7840  0.0369
12879TIP3    H260053   6.308   5.394   2.789 -0.4827  0.2167 -0.5501
12880TIP3   OH260054   1.812   4.307   3.125  0.3743 -0.5497  0.4716
12880TIP3    H160055   1.842   4.340   3.041 -0.2027  1.2370  0.9600
12880TIP3    H260056   1.873   4.344   3.189  0.2250 -1.1130  0.9518
12881TIP3   OH260057   6.233   1.260  14.017  0.2617  0.4435 -0.1325
12881TIP3    H160058   6.323   1.251  13.985 -0.5505  2.1671 -3.1204
12881TIP3    H260059   6.231   1.347  14.059  0.2688 -0.1125  1.0583
12882TIP3   OH260060   3.442   2.046  14.222 -0.2265  0.4863  0.0548
12882TIP3    H160061   3.513   1.987  14.248 -1.1525 -0.9348 -0.6009
12882TIP3    H260062   3.466   2.076  14.134 -0.0484  0.6331  0.1526
12883TIP3   OH260063   1.403   4.966  11.835  0.0805  0.2862  0.5055
12883TIP3    H160064   1.311   4.942  11.845 -0.2571  1.1396 -0.4743
12883TIP3    H260065   1.443   4.947  11.921 -0.6937 -1.3910  0.5153
12884TIP3   OH260066   4.640   5.936  10.428 -0.2231 -0.1020 -0.0849
12884TIP3    H160067   4.646   5.843  10.450 -0.2920  0.1721  1.1609
12884TIP3    H260068   4.730   5.963  10.414 -0.2644 -0.5331 -1.2776
12885TIP3   OH260069   1.900   1.839   3.083 -0.4111 -0.4457  0.3210
12885TIP3    H160070   1.955   1.910   3.117 -0.1763 -0.8014  0.6880
12885TIP3    H260071   1.934   1.761   3.126 -0.1666 -0.8875 -0.6599
12886TIP3   OH260072   1.172   5.037   0.534  0.9594 -0.2231  0.0169
12886TIP3    H160073   1.218   5.010   0.455 -0.6819 -1.2712 -0.5814
12886TIP3    H260074   1.128   5.119   0.510 -0.1875 -0.9584 -0.3930
12887TIP3   OH260075   1.901   4.443   1.849  0.3313 -0.0020 -0.0403
12887TIP3    H160076   1.903   4.536   1.874  1.2197 -0.1864  0.5901
12887TIP3    H260077   1.980   4.431   1.796  0.7209 -0.6137  0.6676
12888TIP3   OH260078   6.362   0.925  15.936  0.5348  0.1480  0.4404
12888TIP3    H160079   6.427   0.907  16.004 -0.2024 -1.1374  0.8269
12888TIP3    H260080   6.373   0.855  15.872 -0.6459 -0.2543  0.6526
12889TIP3   OH260081   0.405   3.149   5.478 -0.1936  0.3132  0.4510
12889TIP3    H160082   0.420   3.056   5.496 -0.6734  0.0183 -0.6322
12889TIP3    H260083   0.310   3.159   5.481 -0.2280  0.4663 -0.8377
12890TIP3   OH260084   6.688   6.013   1.646 -0.6003  0.0129 -0.0543
12890TIP3    H160085   6.630   5.959   1.592 -0.0484 -0.7781  0.1362
12890TIP3    H260086   6.709   5.959   1.721  1.0982 -0.0518 -0.5479
12891TIP3   OH260087   1.309   1.311   4.977 -0.5160 -0.3232  0.1018
12891TIP3    H160088   1.363   1.370   4.925 -1.4528  0.9774  0.5707
12891TIP3    H260089   1.225   1.308   4.932 -0.6780 -0.7821  0.4280
12892TIP3   OH260090   0.564   1.549  12.163 -0.0562  0.2093 -0.1826
12892TIP3    H160091   0.543   1.624  12.107 -0.4009  1.2531  1.3200
12892TIP3    H260092   0.482   1.500  12.169  0.1478 -0.2614 -1.0970
12893TIP3   OH260093   1.253   1.080   3.854  0.3617 -1.1735  0.0186
12893TIP3    H160094   1.225   1.002   3.806 -0.6139 -1.5670  1.1809
12893TIP3    H260095   1.326   1.050   3.908  1.2374 -0.8125 -0.9476
12894TIP3   OH260096   3.351   1.813  16.913  0.4932  0.2687  0.9903
12894TIP3    H160097   3.349   1.850  17.002  0.8563  2.0009  0.3114
12894TIP3    H260098   3.298   1.874  16.862  1.3849  0.0260 -0.2358
12895TIP3   OH260099   3.072   6.219   4.533  0.3214  0.0080 -0.1440
12895TIP3    H160100   3.026   6.255   4.609  0.2784  0.1188 -0.2219
12895TIP3    H260101   3.157   6.190   4.568  0.6806  0.9281 -0.2294
12896TIP3   OH260102   3.985   1.422  12.132 -0.2338 -0.3411  0.4815
12896TIP3    H160103   3.933   1.343  12.145 -1.1420  0.4572  1.8611
12896TIP3    H260104   3.951   1.484  12.197 -0.4391  1.6313 -1.4390
12897TIP3   OH260105   0.967   0.635  11.324 -0.1509  0.7735  0.2863
12897TIP3    H160106   0.963   0.546  11.287 -2.0177  0.1244  1.9504
12897TIP3    H260107   1.022   0.626  11.402 -0.6134  1.0038  0.6406
12898TIP3   OH260108   4.989   1.942  13.685 -0.8149 -0.5108  0.0484
12898TIP3    H160109   4.979   1.849  13.702 -2.8299 -0.7410 -2.2141
12898TIP3    H260110   5.033   1.947  13.600  0.5247  0.6167  0.7741
12899TIP3   OH260111   4.917   2.964   5.476  0.1016  0.0403  0.1825
12899TIP3    H160112   4.974   2.960   5.553 -0.0417 -0.1991  0.2793
12899TIP3    H260113   4.864   2.884   5.482  0.2990 -0.1275 -0.3293
12900TIP3   OH260114   3.850   2.935   1.406  0.1141 -0.6175 -0.4286
12900TIP3    H160115   3.875   2.883   1.482 -0.1880  1.3924  1.1128
12900TIP3    H260116   3.758   2.913   1.391 -0.6170  0.9785  1.5240
12901TIP3   OH260117   0.563   4.136   5.860  0.0050 -0.6535  0.5429
12901TIP3    H160118   0.512   4.056   5.846  0.1145 -0.8343  1.1283
12901TIP3    H260119   0.609   4.120   5.943 -0.4312  0.2590  0.9726
12902TIP3   OH260120   2.572   1.751  13.085  0.9145  0.8705 -0.1078
12902TIP3    H160121   2.550   1.826  13.030  3.4054  0.9566 -1.0341
12902TIP3    H260122   2.638   1.703  13.035  0.6048 -1.0077  1.2352
12903TIP3   OH260123   0.478   0.876   5.434 -0.0537  0.1673  0.4650
12903TIP3    H160124   0.438   0.945   5.488 -1.7325 -0.4841  0.0773
12903TIP3    H260125   0.417   0.803   5.438  0.4090 -0.3502 -1.2916
12904TIP3   OH260126   4.247   0.676  13.178  0.3638  0.1904 -0.0075
12904TIP3    H160127   4.264   0.665  13.271  0.9808 -0.6249 -0.2061
12904TIP3    H260128   4.155   0.652  13.166  0.9816 -2.3382 -0.0171
12905TIP3   OH260129   1.288   1.422  15.853 -0.0802 -0.6519 -0.6377
12905TIP3    H160130   1.355   1.385  15.795  1.2156  1.6590 -0.6666
12905TIP3    H260131   1.231   1.472  15.794  1.0010  1.3681  0.0080
12906TIP3   OH260132   4.340   6.336   0.578 -0.6072  0.2899 -0.0841
12906TIP3    H160133   4.278   6.378   0.518 -1.1680 -0.3404  0.0362
12906TIP3    H260134   4.344   6.394   0.654 -1.5930 -0.0105  0.2057
12907TIP3   OH260135   3.005   2.870   0.965  0.2862 -0.0651 -0.2837
12907TIP3    H160136   2.945   2.882   1.040  0.3200  2.9670 -0.6563
12907TIP3    H260137   2.947   2.850   0.892  0.2345 -2.8391  0.4844
12908TIP3   OH260138   3.943   6.080  17.128  0.2737  0.2406  0.1404
12908TIP3    H160139   4.018   6.077  17.187 -0.8695 -2.0538  1.5670
12908TIP3    H260140   3.974   6.041  17.047  0.5142 -1.1742  0.8914
12909TIP3   OH260141   6.349   1.636  12.236  1.1359 -0.3451  0.2647
12909TIP3    H160142   6.413   1.578  12.194  0.8596 -1.5480  1.4759
12909TIP3    H260143   6.333   1.705  12.172  0.3097 -2.4389 -1.8444
12910TIP3   OH260144   1.234   5.781  15.327  0.4641  0.1307  0.1277
12910TIP3    H160145   1.272   5.828  15.252 -0.2648  1.5670  0.6241
12910TIP3    H260146   1.192   5.850  15.378 -0.1384 -1.0193  1.1922
12911TIP3   OH260147   4.229   0.458   3.153 -0.0680 -0.3137  0.1885
12911TIP3    H160148   4.161   0.524   3.138 -0.1589 -0.3147  0.5963
12911TIP3    H260149   4.264   0.440   3.065  0.2351  0.5632  0.1260
12912TIP3   OH260150   0.131   4.391   1.247 -0.1531 -0.2400  0.4212
12912TIP3    H160151   0.188   4.316   1.232 -0.9763 -0.5878 -1.1031
12912TIP3    H260152   0.115   4.392   1.341  2.2564 -0.2087  0.8517
12913TIP3   OH260153   0.613   4.790  14.571  0.5726  0.3211 -0.4007
12913TIP3    H160154   0.534   4.753  14.612  1.1290  0.5140  0.8614
12913TIP3    H260155   0.644   4.855  14.633  1.4685  0.5751 -1.1120
12914TIP3   OH260156   0.406   5.634  14.576 -0.5191 -0.4897 -0.0934
12914TIP3    H160157   0.417   5.606  14.666 -1.4131 -2.6148 -0.6253
12914TIP3    H260158   0.479   5.593  14.529  1.3063  2.4773  0.0215
12915TIP3   OH260159   0.880   0.663   3.298 -0.3782 -0.7594 -0.1029
12915TIP3    H160160   0.855   0.575   3.325 -1.6558 -0.6162 -0.7602
12915TIP3    H260161   0.857   0.719   3.372 -0.4461 -0.8545 -0.0525
12916TIP3   OH260162   3.566   1.720  15.300  0.2043  0.4355  0.2284
12916TIP3    H160163   3.538   1.791  15.359  0.8667  0.9946 -0.1212
12916TIP3    H260164   3.597   1.766  15.221  3.0869 -0.1154  0.9935
12917TIP3   OH260165   4.771   5.535  15.627 -0.0301  0.3068  0.0642
12917TIP3    H160166   4.760   5.628  15.608 -1.5619  0.6108  2.2371
12917TIP3    H260167   4.685   5.506  15.656  0.9969 -1.2049  1.7356
12918TIP3   OH260168   5.233   1.783  11.449 -0.2857  1.0142  0.1877
12918TIP3    H160169   5.253   1.807  11.539 -0.3383  0.0621  0.4623
12918TIP3    H260170   5.290   1.708  11.431  0.5183  1.8908 -0.9403
12919TIP3   OH260171   6.651   2.923   4.428  0.7823  0.2791 -0.2564
12919TIP3    H160172   6.686   2.917   4.517 -0.0262  0.7006  0.0940
12919TIP3    H260173   6.703   2.860   4.378 -0.3826 -1.7559  1.0269
12920TIP3   OH260174   1.127   1.230  12.907 -0.2612 -0.0534 -0.3307
12920TIP3    H160175   1.121   1.214  12.813  0.2884  0.4921 -0.4568
12920TIP3    H260176   1.177   1.156  12.941  0.9223  0.5705 -0.6933
12921TIP3   OH260177   4.302   6.773   3.471 -0.1405  0.1506 -0.0727
12921TIP3    H160178   4.301   6.800   3.380 -0.5479  0.6723  0.0848
12921TIP3    H260179   4.223   6.720   3.481  0.6189 -1.0837 -0.3655
12922TIP3   OH260180   5.211   4.906   2.422  0.6111 -0.1216 -0.3902
12922TIP3    H160181   5.153   4.830   2.421  0.1229  0.2093  1.0771
12922TIP3    H260182   5.161   4.974   2.376 -0.1287  0.1235  0.7551
12923TIP3   OH260183   2.277   5.739  12.787  0.5835 -0.0395  0.4116
12923TIP3    H160184   2.341   5.741  12.857  2.1311  1.9747 -1.0197
12923TIP3    H260185   2.239   5.827  12.785 -0.6676 -0.5703 -0.1760
12924TIP3   OH260186   3.136   5.158  12.434  0.1645  0.4136  0.2688
12924TIP3    H160187   3.071   5.089  12.431  0.9479 -0.3090 -0.3562
12924TIP3    H260188   3.099   5.224  12.493 -1.0737 -0.0319 -0.0077
12925TIP3   OH260189   5.598   3.789   4.179 -0.6724 -0.3217 -0.3132
12925TIP3    H160190   5.642   3.707   4.157 -0.2489  0.0604 -0.9254
12925TIP3    H260191   5.591   3.836   4.095  1.3344  1.3489  0.4186
12926TIP3   OH260192   1.430   1.620   2.811 -0.1836 -0.1561  0.4755
12926TIP3    H160193   1.460   1.683   2.877 -1.5169  0.5476  0.4102
12926TIP3    H260194   1.409   1.541   2.861  0.6723 -0.2790  0.6546
12927TIP3   OH260195   3.767   1.327   4.536  0.4143 -0.0090  0.0402
12927TIP3    H160196   3.759   1.418   4.508  1.3099  0.2956  0.7474
12927TIP3    H260197   3.861   1.310   4.537  0.2573 -0.9201  0.0031
12928TIP3   OH260198   6.667   6.555   1.794  1.1828  0.1136  0.2349
12928TIP3    H160199   6.612   6.477   1.785 -1.2928  1.9808 -1.9561
12928TIP3    H260200   6.702   6.570   1.706  0.8017  1.9780  0.3708
12929TIP3   OH260201   1.551   4.039   4.279 -0.3968  0.2218 -0.2550
12929TIP3    H160202   1.502   4.120   4.287 -1.6083 -0.7418  2.9589
12929TIP3    H260203   1.516   3.983   4.348  3.0427 -1.6699  0.0605
12930TIP3   OH260204   6.407   1.957   1.781  0.4722 -0.3324  0.0102
12930TIP3    H160205   6.369   2.045   1.780  1.8645  0.2922 -0.0169
12930TIP3    H260206   6.470   1.960   1.854 -0.5368 -1.7780  0.9677
12931TIP3   OH260207   2.620   4.154   3.619 -0.2517 -0.5437  0.0804
12931TIP3    H160208   2.712   4.171   3.640 -0.1728 -1.7330  0.7769
12931TIP3    H260209   2.608   4.061   3.639 -1.9674 -0.0696  1.3885
12932TIP3   OH260210   0.962   6.310   4.154 -0.4669 -0.4980 -0.2065
12932TIP3    H160211   0.971   6.217   4.134  0.1218 -0.0496 -2.1541
12932TIP3    H260212   0.875   6.318   4.195 -0.1322 -2.0189  0.8231
12933TIP3   OH260213   5.686   3.193   5.909 -0.1989  0.4673  0.2255
12933TIP3    H160214   5.726   3.168   5.992  0.9944  1.3720 -0.0623
12933TIP3    H260215   5.632   3.269   5.931 -1.2504 -0.3539  0.4927
12934TIP3   OH260216   5.897   5.751  13.998  0.6051  0.5913 -0.3930
12934TIP3    H160217   5.888   5.846  14.010 -2.3894  0.4615 -1.1510
12934TIP3    H260218   5.899   5.716  14.087 -0.7717  1.2121 -0.0977
12935TIP3   OH260219   5.060   3.026   4.271  0.7216  0.0953 -0.0616
12935TIP3    H160220   5.044   2.932   4.266  1.3489 -0.1245  1.5871
12935TIP3    H260221   5.008   3.064   4.200  0.4095 -1.4818 -0.6870
12936TIP3   OH260222   6.591   0.428   2.790 -0.5578 -0.5397 -0.5476
12936TIP3    H160223   6.520   0.476   2.748  0.9552  2.2231 -0.0695
12936TIP3    H260224   6.650   0.406   2.718 -0.0535  0.4887 -0.4597
12937TIP3   OH260225   5.339   3.131   2.985 -0.7764  0.2243 -0.4511
12937TIP3    H160226   5.375   3.043   2.999 -0.4946  0.4984  0.5919
12937TIP3    H260227   5.340   3.143   2.890  0.4726 -0.3729 -0.5204
12938TIP3   OH260228   4.414   0.753   2.264 -0.0433 -0.1714 -0.5421
12938TIP3    H160229   4.368   0.774   2.183  0.3198  1.2472 -0.3946
12938TIP3    H260230   4.345   0.747   2.330 -0.1409  0.9186 -0.5269
12939TIP3   OH260231   4.109   5.166  16.939 -0.0549 -0.2892 -0.0333
12939TIP3    H160232   4.036   5.109  16.914 -0.9496 -0.2148  2.3246
12939TIP3    H260233   4.080   5.254  16.913 -0.5895 -0.3288  0.4108
12940TIP3   OH260234   2.895   0.878  11.913  0.1676  0.4036  0.0288
12940TIP3    H160235   2.812   0.832  11.903  0.8890 -1.0008  0.4379
12940TIP3    H260236   2.879   0.965  11.875 -1.0789 -0.3081 -1.1094
12941TIP3   OH260237   4.737   5.363   0.925 -0.0518 -0.2464 -0.3842
12941TIP3    H160238   4.671   5.416   0.969  0.2808 -0.2932  0.1780
12941TIP3    H260239   4.723   5.274   0.958 -0.5365 -0.4946 -1.2402
12942TIP3   OH260240   2.131   1.605  16.794 -0.1081  0.4558 -0.2170
12942TIP3    H160241   2.187   1.573  16.864 -1.4888 -1.3752  0.0848
12942TIP3    H260242   2.192   1.624  16.722  0.8468 -2.0965 -0.1183
12943TIP3   OH260243   3.292   2.971   1.529 -0.1886 -0.0130  0.1411
12943TIP3    H160244   3.302   3.061   1.560  0.7922  0.3877 -1.2905
12943TIP3    H260245   3.204   2.968   1.491 -0.5825  0.0764  1.0451
12944TIP3   OH260246   3.613   3.892  16.147  0.2810 -0.3518  0.1724
12944TIP3    H160247   3.615   3.988  16.145 -0.8366 -0.3248 -0.1491
12944TIP3    H260248   3.521   3.871  16.164  0.2572 -1.3890 -1.2051
12945TIP3   OH260249   1.295   3.178   7.061  0.1797  0.8486 -0.4911
12945TIP3    H160250   1.238   3.213   7.129  0.6441 -1.1698  0.9944
12945TIP3    H260251   1.300   3.247   6.995 -2.4033  1.7981  0.2723
12946TIP3   OH260252   1.051   4.625   0.751 -0.6225 -0.4610 -0.4782
12946TIP3    H160253   0.985   4.576   0.799 -2.4399  1.2830 -1.1310
12946TIP3    H260254   1.117   4.648   0.816 -1.7481 -0.3885  0.6496
12947TIP3   OH260255   4.906   6.270  15.600 -0.6079  0.0654 -0.1826
12947TIP3    H160256   4.984   6.231  15.640 -0.0397 -0.2730 -1.6042
12947TIP3    H260257   4.839   6.264  15.668  0.6372  0.4942  1.1165
12948TIP3   OH260258   4.783   4.848  15.973  0.6140 -0.7317  0.6021
12948TIP3    H160259   4.867   4.878  16.005  0.1954 -0.2140  1.2243
12948TIP3    H260260   4.737   4.817  16.051  0.5602 -1.8314  0.1441
12949TIP3   OH260261   4.454   4.038  16.316  0.0196 -0.0290  0.1689
12949TIP3    H160262   4.370   4.053  16.272  0.5292  0.2171 -0.7424
12949TIP3    H260263   4.478   4.122  16.354  0.6146  0.3223 -0.9430
12950TIP3   OH260264   1.250   6.481   0.445 -0.3718  0.0029 -0.1750
12950TIP3    H160265   1.236   6.555   0.387  0.9133  0.7349  0.4213
12950TIP3    H260266   1.339   6.451   0.426  0.2361  0.5444  1.7150
12951TIP3   OH260267   1.239   3.827  12.458 -0.2245 -0.7152  0.2010
12951TIP3    H160268   1.200   3.829  12.545 -1.2740 -0.5101 -0.2645
12951TIP3    H260269   1.333   3.811  12.473  0.3695  3.4949  1.6035
12952TIP3   OH260270   0.014   0.495   4.356 -0.0037 -0.2835 -0.3490
12952TIP3    H160271   0.005   0.585   4.324 -0.6596 -0.1484  0.2011
12952TIP3    H260272  -0.050   0.488   4.427  1.0603 -0.7497  0.5853
12953TIP3   OH260273   5.764   4.389  12.770  0.0953 -0.6557  0.3071
12953TIP3    H160274   5.780   4.372  12.677  0.2747 -1.5698  0.5010
12953TIP3    H260275   5.850   4.388  12.810 -0.0431 -0.9831  0.5998
12954TIP3   OH260276   3.682   3.502  13.313  0.1198  0.1588 -0.1345
12954TIP3    H160277   3.754   3.517  13.252 -0.1278 -1.1452 -0.7639
12954TIP3    H260278   3.609   3.473  13.259 -0.5633  0.4523  0.6147
12955TIP3   OH260279   2.792   4.186   0.176  0.4602  0.1157  0.4002
12955TIP3    H160280   2.802   4.280   0.158 -0.3403 -0.4716 -3.6604
12955TIP3    H260281   2.881   4.154   0.187  0.8096  1.1553  0.6661
12956TIP3   OH260282   1.791   6.765  13.989 -0.2623 -0.1001 -0.0307
12956TIP3    H160283   1.818   6.686  13.942  2.3776  1.5914 -1.5362
12956TIP3    H260284   1.823   6.752  14.078 -0.8249 -1.1781  0.0250
12957TIP3   OH260285   6.421   3.986   4.781  0.2640  0.1069 -0.3053
12957TIP3    H160286   6.515   4.000   4.782  0.3473 -0.3684 -1.0890
12957TIP3    H260287   6.391   4.032   4.702  0.0508 -1.0591 -0.9130
12958TIP3   OH260288   2.070   0.161   0.502  0.4386  0.0490 -0.0291
12958TIP3    H160289   2.103   0.071   0.501 -0.9429 -0.4662 -1.3470
12958TIP3    H260290   2.010   0.164   0.577  0.3882 -0.1576 -0.0624
12959TIP3   OH260291   1.683   3.322   2.821 -0.7338  0.3899 -0.2456
12959TIP3    H160292   1.667   3.240   2.774 -2.2983  0.3261  0.3664
12959TIP3    H260293   1.626   3.317   2.898  1.5067  0.6549  1.4791
12960TIP3   OH260294   0.009   4.535   5.300 -0.1720  0.1414 -0.4951
12960TIP3    H160295  -0.068   4.478   5.297 -0.5953  0.7768 -2.1840
12960TIP3    H260296   0.072   4.494   5.241  0.8489 -0.4367  0.9705
12961TIP3   OH260297   1.280   0.698   2.363 -0.5972 -0.1397  0.8140
12961TIP3    H160298   1.220   0.737   2.300  1.4422  0.6881 -0.6709
12961TIP3    H260299   1.367   0.722   2.332  0.5806 -2.5272  2.1076
12962TIP3   OH260300   5.048   3.224   5.902 -0.0534 -0.0499 -0.3646
12962TIP3    H160301   4.992   3.176   5.841  2.2220 -1.6798 -1.2196
12962TIP3    H260302   5.093   3.289   5.849 -0.2872  0.5115  0.1165
12963TIP3   OH260303   1.555   2.067   5.005 -0.2441 -0.2299  0.6398
12963TIP3    H160304   1.563   2.133   5.073 -2.1093  0.9887 -0.2998
12963TIP3    H260305   1.496   2.001   5.041 -0.2821 -0.1857  0.6578
12964TIP3   OH260306   6.148   2.667   4.748 -0.3631 -0.0436 -0.0085
12964TIP3    H160307   6.174   2.755   4.778 -0.4045  0.4731 -1.4213
12964TIP3    H260308   6.193   2.657   4.664 -1.0435 -1.0480 -0.2568
12965TIP3   OH260309   2.367   6.297  13.190  0.0894 -0.7087 -0.2033
12965TIP3    H160310   2.284   6.262  13.158  0.7293 -2.2155 -0.2870
12965TIP3    H260311   2.431   6.229  13.169  1.0323 -0.3978  1.5617
12966TIP3   OH260312   2.354   4.542  12.634  0.3694  0.4416  0.2133
12966TIP3    H160313   2.397   4.625  12.652  0.7707 -0.2829  2.8508
12966TIP3    H260314   2.281   4.539  12.696  0.7622 -1.4556  0.6088
12967TIP3   OH260315   1.876   1.342   4.443 -0.0656 -0.6816 -0.2754
12967TIP3    H160316   1.913   1.258   4.470  0.9689 -0.7617 -1.9037
12967TIP3    H260317   1.826   1.371   4.520 -0.1053 -2.5738  0.4595
12968TIP3   OH260318   0.917   4.555   1.288  0.2711 -0.1914  0.4714
12968TIP3    H160319   0.927   4.585   1.378  2.5756 -0.2292  0.2496
12968TIP3    H260320   0.885   4.465   1.296  0.3624 -0.1559  1.2521
12969TIP3   OH260321   2.693   2.345   2.568 -0.4291 -0.0703 -0.3534
12969TIP3    H160322   2.770   2.305   2.529 -0.6293 -0.1146 -0.7041
12969TIP3    H260323   2.619   2.300   2.528 -0.6523  0.5203 -0.6081
12970TIP3   OH260324   0.779   4.065  11.430  0.3277 -0.9425  0.7108
12970TIP3    H160325   0.798   4.013  11.352 -0.7492 -1.6312  0.8962
12970TIP3    H260326   0.686   4.048  11.448 -0.0434  1.0915  0.7490
12971TIP3   OH260327   1.445   3.307   4.451  0.3164 -0.5280  0.3079
12971TIP3    H160328   1.464   3.322   4.358 -0.0186 -1.7882  0.0362
12971TIP3    H260329   1.487   3.224   4.472 -1.6672 -1.4880  0.6519
12972TIP3   OH260330   2.596   3.489   0.161 -0.2843 -0.7613 -0.2244
12972TIP3    H160331   2.546   3.472   0.082  1.1873 -1.5647 -1.0044
12972TIP3    H260332   2.586   3.583   0.177 -1.5532 -0.8170 -0.6789
12973TIP3   OH260333   0.082   5.838  14.405 -0.0485 -0.1704 -0.1082
12973TIP3    H160334   0.106   5.901  14.337 -0.3157  1.7444  1.5158
12973TIP3    H260335   0.127   5.869  14.483 -1.2858 -1.2226  1.0452
12974TIP3   OH260336   5.912   6.333  14.185 -0.2862 -0.7424  0.1488
12974TIP3    H160337   5.994   6.379  14.169 -1.0139  1.0297  1.3827
12974TIP3    H260338   5.919   6.301  14.275 -0.6774 -1.1974  0.0239
12975TIP3   OH260339   1.547   2.484  16.628  0.6061  0.3286  0.0415
12975TIP3    H160340   1.593   2.491  16.544  0.1517  0.9591 -0.1591
12975TIP3    H260341   1.614   2.457  16.690  0.4445 -2.6489 -0.9872
12976TIP3   OH260342   3.246   6.579  13.180  0.5358 -0.2399 -0.6307
12976TIP3    H160343   3.338   6.576  13.208  0.3453 -1.2932 -0.0990
12976TIP3    H260344   3.231   6.492  13.142 -0.8286 -0.7888  1.1288
12977TIP3   OH260345   3.580   2.395  10.937 -0.3018 -0.3850  0.1849
12977TIP3    H160346   3.524   2.472  10.932  0.2994  0.1082  0.8995
12977TIP3    H260347   3.599   2.385  11.030  1.9711  0.3208 -0.1720
12978TIP3   OH260348   4.020   2.079  11.118 -0.0604 -0.7284  0.9621
12978TIP3    H160349   4.009   2.103  11.210 -0.3137  1.0764  0.4766
12978TIP3    H260350   4.089   2.137  11.086 -0.1136 -1.1989 -0.0332
12979TIP3   OH260351   0.416   5.309   2.813  0.0358 -0.1602 -0.0149
12979TIP3    H160352   0.487   5.246   2.818  0.7379  0.7165  1.6469
12979TIP3    H260353   0.437   5.364   2.738  0.4553 -0.7016 -0.2895
12980TIP3   OH260354   6.234   5.080   2.526  0.6640  0.0516 -0.3485
12980TIP3    H160355   6.246   4.994   2.486  0.9301 -0.4763  0.8482
12980TIP3    H260356   6.303   5.086   2.592 -1.8715 -0.5677  2.4897
12981TIP3   OH260357   2.128   3.563   1.989  0.5166 -0.0210 -0.3232
12981TIP3    H160358   2.158   3.612   1.913  1.0426  0.3550  0.1170
12981TIP3    H260359   2.209   3.542   2.036  0.2697 -1.0648 -0.3636
12982TIP3   OH260360   2.304   1.615   5.318  0.7653  0.1068  0.5819
12982TIP3    H160361   2.263   1.593   5.235 -1.0346  1.3818  1.1059
12982TIP3    H260362   2.318   1.710   5.313 -1.2594  0.5598  2.5310
12983TIP3   OH260363   1.544   5.869   5.330 -0.4262 -0.1593  0.0019
12983TIP3    H160364   1.612   5.819   5.377  0.0186  0.6149  0.1905
12983TIP3    H260365   1.508   5.928   5.396 -3.9181 -3.1062  0.9195
12984TIP3   OH260366   4.697   0.725   0.102  0.1942 -0.6610 -0.3540
12984TIP3    H160367   4.657   0.687   0.180  0.1786 -1.1717 -0.6081
12984TIP3    H260368   4.753   0.656   0.067  1.4073  0.0952  0.0676
12985TIP3   OH260369   5.217   0.229   2.148  0.0382  0.5252  0.7332
12985TIP3    H160370   5.248   0.139   2.151  1.0233  0.7616 -1.1137
12985TIP3    H260371   5.124   0.222   2.127  0.3079 -0.0632 -0.3373
12986TIP3   OH260372   4.113   1.425  11.362  0.5147 -0.2790  0.8803
12986TIP3    H160373   4.125   1.362  11.291  1.1017  0.5185  0.2563
12986TIP3    H260374   4.202   1.456  11.381  0.1344  1.1244  0.4656
12987TIP3   OH260375   3.150   0.368  14.856  0.3493 -0.0941 -0.2196
12987TIP3    H160376   3.081   0.360  14.790  0.6792 -0.5021 -0.5283
12987TIP3    H260377   3.232   0.359  14.806  0.6839  2.2742 -0.1259
12988TIP3   OH260378   2.881   4.820   4.123 -0.6908 -0.1592 -0.3048
12988TIP3    H160379   2.959   4.786   4.166 -0.7198 -0.0070 -0.1273
12988TIP3    H260380   2.878   4.912   4.149 -2.5011 -0.8364  2.0320
12989TIP3   OH260381   5.763   5.346   6.423  0.4921 -0.3423 -0.5474
12989TIP3    H160382   5.727   5.258   6.425 -0.9790  0.2645  1.2314
12989TIP3    H260383   5.698   5.399   6.376  0.6887  0.0682 -0.3666
12990TIP3   OH260384   5.550   6.420  10.871  0.3262  0.0556 -0.4459
12990TIP3    H160385   5.634   6.463  10.854 -0.3164  0.9156 -1.5241
12990TIP3    H260386   5.536   6.363  10.796  1.1109 -2.0127  0.9146
12991TIP3   OH260387   5.332   2.059   6.541 -0.2872  0.7205  0.2954
12991TIP3    H160388   5.357   2.086   6.453  2.1922 -1.9351  0.1200
12991TIP3    H260389   5.378   2.120   6.599  2.8815 -1.1624 -0.1510
12992TIP3   OH260390   5.839   0.005  13.264  0.0520 -0.3843 -0.4500
12992TIP3    H160391   5.850  -0.084  13.231 -0.5166 -0.2530 -0.9872
12992TIP3    H260392   5.799   0.054  13.192  1.2927  0.5602 -0.5170
12993TIP3   OH260393   4.712   5.353   2.886  0.2122  0.1912  0.7731
12993TIP3    H160394   4.773   5.279   2.880 -0.0636  0.0397 -0.1444
12993TIP3    H260395   4.763   5.429   2.859 -0.7576 -0.3442 -2.7914
12994TIP3   OH260396   2.815   6.173   6.217 -0.1644 -0.4045  0.1059
12994TIP3    H160397   2.799   6.112   6.289 -1.2524 -1.1125 -0.7223
12994TIP3    H260398   2.734   6.222   6.208  1.1128  2.0374  1.5541
12995TIP3   OH260399   2.615   2.584   5.110 -0.7993 -0.0658  0.0371
12995TIP3    H160400   2.654   2.620   5.031 -2.3734  0.1064 -0.6773
12995TIP3    H260401   2.638   2.646   5.179  2.3314 -1.2625  0.1516
12996TIP3   OH260402   5.285   6.786  15.131 -0.7184 -0.0586  0.1370
12996TIP3    H160403   5.358   6.725  15.145  0.0386  0.6636 -0.5663
12996TIP3    H260404   5.210   6.744  15.174  0.1643 -0.6919  1.0945
12997TIP3   OH260405   6.409   4.832  12.695  0.1780  0.4050 -0.0346
12997TIP3    H160406   6.320   4.800  12.708  0.0406  1.0270  0.6029
12997TIP3    H260407   6.400   4.903  12.631  0.0107  1.3814  1.0398
12998TIP3   OH260408   3.280   2.970  11.543  0.0617 -0.3550 -0.0745
12998TIP3    H160409   3.294   2.876  11.553 -2.5974 -0.4814  3.2712
12998TIP3    H260410   3.185   2.979  11.530 -0.2288  2.0098  3.0080
12999TIP3   OH260411   1.303   3.272   3.580 -0.2179 -0.5035  0.7081
12999TIP3    H160412   1.208   3.263   3.582 -0.0837 -3.3110 -2.2337
12999TIP3    H260413   1.336   3.185   3.598  1.7288 -0.2659 -1.4726
13000TIP3   OH260414   0.563   6.423  16.466  0.0722  0.2880 -0.3748
13000TIP3    H160415   0.506   6.470  16.405  1.1602  1.1412 -0.7428
13000TIP3    H260416   0.641   6.478  16.474  1.0852 -1.1381 -0.2873
13001TIP3   OH260417   3.350   5.415   6.704  0.3154 -0.2605  0.1992
13001TIP3    H160418   3.366   5.441   6.613 -0.7377  0.4544  0.2206
13001TIP3    H260419   3.271   5.462   6.729 -0.3294 -1.7353  0.9653
13002TIP3   OH260420   0.737   2.011  10.772  0.3680  0.6242 -0.8655
13002TIP3    H160421   0.656   2.043  10.813 -0.6040 -1.6885 -0.8736
13002TIP3    H260422   0.725   2.028  10.679 -0.7675 -0.9764 -1.0398
13003TIP3   OH260423   5.442   4.630  16.156  0.3836  0.0436 -0.1221
13003TIP3    H160424   5.347   4.625  16.156  0.4800 -2.9719  1.1367
13003TIP3    H260425   5.464   4.678  16.076 -2.1598  0.2140 -0.7333
13004TIP3   OH260426   4.930   4.846  14.859  0.9982 -0.2264  0.0054
13004TIP3    H160427   4.860   4.819  14.919  1.1112 -2.4513 -0.8139
13004TIP3    H260428   5.003   4.869  14.916 -0.1632  1.5102  0.8457
13005TIP3   OH260429   5.969   1.071  12.812 -0.0994 -0.0597  0.1481
13005TIP3    H160430   5.994   1.163  12.809  0.8541 -0.0390  4.7020
13005TIP3    H260431   5.880   1.071  12.847 -0.6138 -0.8421 -1.1162
13006TIP3   OH260432   2.175   4.558   6.012 -0.6123 -0.3748  0.2683
13006TIP3    H160433   2.177   4.463   6.023 -2.1827 -0.6047 -1.1408
13006TIP3    H260434   2.094   4.575   5.962 -1.1497  1.8443  1.7973
13007TIP3   OH260435   1.649   1.805   0.940  0.0828 -0.1763  0.0174
13007TIP3    H160436   1.679   1.715   0.959  0.4379 -0.1939 -0.6175
13007TIP3    H260437   1.728   1.858   0.949 -0.1652  0.1031  0.5678
13008TIP3   OH260438   5.453   0.785  14.609  0.0053  0.3050 -0.0887
13008TIP3    H160439   5.470   0.797  14.703 -0.9704 -0.1586  0.1581
13008TIP3    H260440   5.391   0.855  14.587 -1.5331 -0.9511  0.1431
13009TIP3   OH260441   2.759   2.205  15.157  0.3706 -0.1663 -0.2836
13009TIP3    H160442   2.689   2.255  15.199  1.9684  1.5340  0.3913
13009TIP3    H260443   2.722   2.181  15.072 -0.2876  2.5886 -0.8325
13010TIP3   OH260444   0.678   0.762  15.030 -0.1305 -0.0179 -0.1368
13010TIP3    H160445   0.620   0.787  15.101  0.5813  0.7024  0.1995
13010TIP3    H260446   0.753   0.821  15.038  1.2675 -1.7990  0.2714
13011TIP3   OH260447   2.126   1.246   2.745 -0.5237 -0.0637  0.6624
13011TIP3    H160448   2.033   1.253   2.726 -0.2875  0.1026 -0.4762
13011TIP3    H260449   2.137   1.158   2.780 -1.2447  0.2304  1.6479
13012TIP3   OH260450   2.730   1.846  12.839 -0.2639  0.0344 -0.2118
13012TIP3    H160451   2.754   1.754  12.847 -0.9010 -0.1404 -0.3499
13012TIP3    H260452   2.796   1.883  12.780  0.3966 -0.1743  0.3841
13013TIP3   OH260453   6.610   6.717  12.922 -0.2813  0.6548  0.1130
13013TIP3    H160454   6.667   6.652  12.879 -1.5048 -1.1035  1.0608
13013TIP3    H260455   6.602   6.788  12.858  0.9458 -0.2063 -1.0348
13014TIP3   OH260456   5.912   3.899   0.398 -0.2526 -0.3192  0.4250
13014TIP3    H160457   5.947   3.896   0.486  0.8319 -0.1777  0.0021
13014TIP3    H260458   5.870   3.985   0.391  0.6942  0.1361  0.4034
13015TIP3   OH260459   4.007   5.638   3.023 -0.4039  0.6582  0.6044
13015TIP3    H160460   3.996   5.559   2.970  1.2379  1.4813 -1.0134
13015TIP3    H260461   4.098   5.634   3.053 -0.9797  0.8055  2.4168
13016TIP3   OH260462   1.522   0.841  16.532  0.2016 -0.4463  0.3898
13016TIP3    H160463   1.464   0.897  16.480  0.9233  1.0253  1.1443
13016TIP3    H260464   1.606   0.887  16.531  0.3864 -0.7039  2.3697
13017TIP3   OH260465   4.903   5.506   3.447  0.1135  0.1565  0.2911
13017TIP3    H160466   4.987   5.530   3.408 -0.5848 -1.3410 -2.2599
13017TIP3    H260467   4.926   5.442   3.514  1.3971  3.2697  2.9655
13018TIP3   OH260468   4.902   1.921   5.748 -0.2003  0.1629 -0.0308
13018TIP3    H160469   4.831   1.979   5.722  0.2330  0.6196 -0.2069
13018TIP3    H260470   4.921   1.870   5.669  1.3669  1.8112 -0.7502
13019TIP3   OH260471   0.145   2.829   6.403  0.0604 -0.5976 -0.4569
13019TIP3    H160472   0.053   2.824   6.380  0.1764 -0.6006 -0.9304
13019TIP3    H260473   0.171   2.738   6.418  0.2999 -0.7305 -1.5985
13020TIP3   OH260474   5.896   0.928  12.526  0.3611 -0.0352 -0.0656
13020TIP3    H160475   5.930   0.855  12.578  0.8832 -0.5637 -1.1319
13020TIP3    H260476   5.870   0.993  12.591  2.3726 -0.0646  0.8386
13021TIP3   OH260477   4.004   4.614   3.983  0.0057  0.1912  0.5345
13021TIP3    H160478   4.059   4.692   3.990  1.1161 -0.5808  0.4924
13021TIP3    H260479   4.013   4.586   3.891 -0.3368 -0.0194  0.5634
13022TIP3   OH260480   3.782   6.456   1.793 -0.1085 -0.3230  0.1240
13022TIP3    H160481   3.704   6.403   1.809  0.8290 -2.0752 -0.8756
13022TIP3    H260482   3.853   6.406   1.832  0.4273  1.6542  1.7360
13023TIP3   OH260483   2.530   4.218   8.521 -0.4266  0.1665  0.1553
13023TIP3    H160484   2.601   4.238   8.582  1.2822 -2.0526 -1.0480
13023TIP3    H260485   2.561   4.248   8.436 -0.5476 -1.5242 -0.5182
13024TIP3   OH260486   5.772   4.959   1.413  0.0176 -0.0756 -0.0021
13024TIP3    H160487   5.837   4.927   1.475 -1.0865  0.5469  1.5171
13024TIP3    H260488   5.733   4.880   1.376  0.6952 -0.4549  0.0914
13025TIP3   OH260489   1.981   3.894   6.310 -0.3288  0.5797  0.8158
13025TIP3    H160490   2.039   3.929   6.377 -1.2580 -0.5696  2.2584
13025TIP3    H260491   1.987   3.799   6.320  1.3594  0.2778 -2.3508
13026TIP3   OH260492   1.369   3.850  15.647  0.2165  0.3845 -0.5570
13026TIP3    H160493   1.302   3.910  15.681 -1.5915 -1.2478 -1.1395
13026TIP3    H260494   1.330   3.814  15.568  0.8743 -2.2742  0.2798
13027TIP3   OH260495   4.963   0.309  16.330 -0.3042 -0.1529 -0.1508
13027TIP3    H160496   4.894   0.246  16.351  0.1654 -0.0613  1.7541
13027TIP3    H260497   5.044   0.258  16.334  0.1208  0.6263  1.8060
13028TIP3   OH260498   6.449   3.581   0.779  1.0682 -0.0996  0.9780
13028TIP3    H160499   6.518   3.586   0.844 -0.0680 -1.0581  2.2681
13028TIP3    H260500   6.445   3.489   0.753  1.3378  0.2216 -0.2635
13029TIP3   OH260501   1.757   4.621   5.146  0.1951 -0.1888 -0.6180
13029TIP3    H160502   1.754   4.535   5.187 -0.0452  0.1232  0.0212
13029TIP3    H260503   1.719   4.608   5.059 -1.0145 -0.4585 -0.0521
13030TIP3   OH260504   1.302   2.854  15.344  0.1342  0.0359 -0.2178
13030TIP3    H160505   1.220   2.825  15.384  0.3550 -0.7957 -0.3586
13030TIP3    H260506   1.353   2.774  15.333  0.6154  0.4389 -0.9450
13031TIP3   OH260507   1.955   1.744  16.469 -0.2794 -1.0720  0.9902
13031TIP3    H160508   1.997   1.666  16.433  0.4178 -0.6612  0.9170
13031TIP3    H260509   2.027   1.805  16.487 -0.6339 -1.1556  2.8163
13032TIP3   OH260510   3.088   4.100   4.288 -0.4048 -0.3179  0.2794
13032TIP3    H160511   3.091   4.155   4.367 -0.7270 -0.3973  0.3483
13032TIP3    H260512   3.054   4.157   4.220  0.9159  0.0769 -0.0792
13033TIP3   OH260513   2.211   1.946   1.897 -0.1530 -0.5803  0.0624
13033TIP3    H160514   2.179   1.980   1.981  0.6077  0.9994 -0.2568
13033TIP3    H260515   2.189   2.014   1.834 -0.2011 -1.5017 -0.9219
13034TIP3   OH260516   0.480   1.679  15.100 -0.4299 -0.4085  0.2087
13034TIP3    H160517   0.428   1.759  15.105  0.9996  0.5983 -1.0267
13034TIP3    H260518   0.518   1.680  15.013  1.5393 -1.2194  1.0380
13035TIP3   OH260519   5.165   6.125  12.902  0.2938 -0.7187  0.5616
13035TIP3    H160520   5.191   6.108  12.993 -0.1058  0.0447  0.8239
13035TIP3    H260521   5.082   6.080  12.891 -0.0371 -0.1798  0.8127
13036TIP3   OH260522   4.303   1.637  14.163 -0.3002 -0.0245 -0.4909
13036TIP3    H160523   4.367   1.699  14.199 -0.1970 -1.5960  2.1117
13036TIP3    H260524   4.218   1.674  14.186 -0.2868  0.1570 -0.7231
13037TIP3   OH260525   0.280   1.150   1.678 -0.9468  0.0755 -0.0489
13037TIP3    H160526   0.371   1.132   1.699 -1.1941  1.1240  1.9766
13037TIP3    H260527   0.248   1.067   1.640  0.9714 -0.1030 -1.3630
13038TIP3   OH260528   3.003   3.239   3.605  0.1622  0.0913  0.0465
13038TIP3    H160529   2.999   3.307   3.538 -1.1940  1.1100  1.1175
13038TIP3    H260530   3.043   3.283   3.681  1.2387 -0.9114  0.0793
13039TIP3   OH260531   6.775   6.279   4.352  0.5182 -0.0399 -0.1779
13039TIP3    H160532   6.849   6.283   4.412  1.5348 -3.4524 -1.0984
13039TIP3    H260533   6.814   6.273   4.265 -0.8853  0.2001 -0.8469
13040TIP3   OH260534   6.072   3.478   3.223 -0.4183 -0.0962  0.1454
13040TIP3    H160535   6.061   3.540   3.150 -1.8305 -0.2871  0.1893
13040TIP3    H260536   5.983   3.462   3.254  0.1208 -0.6195  1.4188
13041TIP3   OH260537   3.829   6.327   3.044 -0.1621  0.1450 -0.1237
13041TIP3    H160538   3.815   6.288   3.130  1.3837 -0.6075 -0.1919
13041TIP3    H260539   3.791   6.264   2.983  0.4228 -0.2289 -0.1041
13042TIP3   OH260540   2.613   1.027   3.857 -0.0712 -0.0681 -0.3286
13042TIP3    H160541   2.675   0.975   3.909 -0.9921 -0.0199  0.8381
13042TIP3    H260542   2.666   1.063   3.786  0.6265 -2.5276 -1.1336
13043TIP3   OH260543   0.970   0.970   0.069  0.2432 -0.4136  0.0554
13043TIP3    H160544   1.052   0.960   0.117  0.4212 -2.2371 -0.5823
13043TIP3    H260545   0.995   1.018  -0.010  0.6345 -0.6324  0.0419
13044TIP3   OH260546   3.642   0.803   2.078 -0.0496 -1.1178  0.2858
13044TIP3    H160547   3.562   0.753   2.093 -0.9733  0.4301  0.6185
13044TIP3    H260548   3.618   0.893   2.099  1.2883 -0.3590 -1.3418
13045TIP3   OH260549   2.674   5.568   5.765 -0.3665 -0.2266 -0.2788
13045TIP3    H160550   2.743   5.527   5.713  1.6034  1.6765  0.7340
13045TIP3    H260551   2.652   5.503   5.832 -0.0819 -1.1380 -1.0599
13046TIP3   OH260552   4.479   0.018   5.654  0.7291  0.3976 -0.1767
13046TIP3    H160553   4.489  -0.070   5.618  0.2099 -0.1077  0.8886
13046TIP3    H260554   4.388   0.020   5.686  0.6470  1.4159 -0.4610
13047TIP3   OH260555   5.477   2.132  12.606 -0.1846 -0.3234  0.2330
13047TIP3    H160556   5.568   2.161  12.606  0.1991 -1.3382  4.0203
13047TIP3    H260557   5.427   2.211  12.630 -0.5004  0.5368 -2.9903
13048TIP3   OH260558   4.311   1.306  16.632 -0.0737  0.5340 -0.5293
13048TIP3    H160559   4.219   1.319  16.608 -0.2792 -2.4596 -1.5545
13048TIP3    H260560   4.360   1.326  16.552  0.0607  0.7171 -0.4021
13049TIP3   OH260561   2.013   2.252  15.908 -0.5111  0.1829 -0.7881
13049TIP3    H160562   2.021   2.198  15.987 -1.8437  1.1320  0.0144
13049TIP3    H260563   2.102   2.278  15.888  0.1847 -2.4630 -1.2873
13050TIP3   OH260564   4.341   3.246   4.821 -0.0086  0.6067  0.6330
13050TIP3    H160565   4.260   3.280   4.784  0.5900  0.9964 -0.3555
13050TIP3    H260566   4.393   3.219   4.745  0.4543 -0.4065  1.2955
13051TIP3   OH260567   2.346   6.440   3.980  0.5414  0.5318  0.1432
13051TIP3    H160568   2.278   6.501   4.008  1.6636  2.5259 -1.2769
13051TIP3    H260569   2.318   6.410   3.893  1.0738  0.7775 -0.1202
13052TIP3   OH260570   3.148   0.306  15.629  0.4465 -0.8526  0.1874
13052TIP3    H160571   3.129   0.285  15.720 -0.3431 -0.5206  0.1103
13052TIP3    H260572   3.070   0.277  15.581  0.0311  0.7379 -0.1315
13053TIP3   OH260573   3.933   5.971   0.301 -0.1388 -0.4186 -0.0291
13053TIP3    H160574   3.993   6.045   0.305  0.8119 -1.2505  1.5722
13053TIP3    H260575   3.983   5.901   0.258 -0.3306 -0.7780  0.3307
13054TIP3   OH260576   2.265   2.265  16.445  0.1221  0.3861  0.3687
13054TIP3    H160577   2.246   2.354  16.475  0.4559  0.6338 -0.1392
13054TIP3    H260578   2.180   2.222  16.441 -0.3359  1.3828 -1.5684
13055TIP3   OH260579   0.024   3.939   4.249  0.0409  0.0576  0.0263
13055TIP3    H160580  -0.015   3.872   4.305 -0.0588  1.4366  1.6460
13055TIP3    H260581  -0.019   3.928   4.164 -1.0122 -0.9859  0.6885
13056TIP3   OH260582   5.564   2.475  13.352  0.6281 -0.4726  0.2896
13056TIP3    H160583   5.495   2.409  13.351  1.2277 -1.1040 -0.0017
13056TIP3    H260584   5.522   2.553  13.388 -0.2317 -0.8527  0.1325
13057TIP3   OH260585   3.323   5.131  13.032  0.1214  0.0357 -0.4048
13057TIP3    H160586   3.235   5.106  13.005 -0.6257  0.8285  1.2296
13057TIP3    H260587   3.363   5.168  12.954 -1.2224  0.2745 -0.9848
13058TIP3   OH260588   5.352   5.695   4.058 -0.1744 -0.0038  0.1645
13058TIP3    H160589   5.308   5.620   4.099  0.4292 -0.3998  0.1028
13058TIP3    H260590   5.446   5.674   4.065 -0.0246  0.4928 -0.3368
13059TIP3   OH260591   4.008   5.659  16.678  0.3912 -0.0342  0.1560
13059TIP3    H160592   4.001   5.605  16.599  0.3751  0.8474 -0.4514
13059TIP3    H260593   3.937   5.723  16.669  0.9806  0.6592  0.4203
13060TIP3   OH260594   2.156   5.459   0.337 -0.6412 -0.0527 -0.1198
13060TIP3    H160595   2.117   5.384   0.291  0.7374 -1.4104  0.8945
13060TIP3    H260596   2.240   5.472   0.294 -0.7791  0.7662 -0.1399
13061TIP3   OH260597   4.530   3.732   0.223  0.3494 -0.0129 -0.5416
13061TIP3    H160598   4.443   3.770   0.230  0.3210  0.0441 -1.2155
13061TIP3    H260599   4.590   3.801   0.253  0.1477 -0.1422  0.1689
13062TIP3   OH260600   6.384   2.747   5.356  0.1686  0.1019 -0.0172
13062TIP3    H160601   6.419   2.695   5.283 -1.7397  1.8713 -2.2814
13062TIP3    H260602   6.454   2.809   5.376  0.6588 -0.3077 -0.4196
13063TIP3   OH260603   0.900   4.040   0.679  0.4056 -0.2165 -0.0053
13063TIP3    H160604   0.816   4.084   0.670  0.2680 -0.5429 -0.3407
13063TIP3    H260605   0.908   3.987   0.600  1.2645  0.3672 -0.3169
13064TIP3   OH260606   4.135   5.885  12.591 -0.3319 -0.1159 -0.7352
13064TIP3    H160607   4.096   5.826  12.656  1.3840 -0.3901  0.0561
13064TIP3    H260608   4.169   5.958  12.642  0.4609 -0.0240 -1.3955
13065TIP3   OH260609   3.083   1.532  11.887 -1.0793  0.1567 -0.2127
13065TIP3    H160610   3.085   1.566  11.977  0.1432 -1.0722  0.2481
13065TIP3    H260611   3.023   1.458  11.890 -1.4067  0.4076 -0.5239
13066TIP3   OH260612   2.964   1.878   1.202  0.1108 -0.1664 -0.0152
13066TIP3    H160613   2.976   1.938   1.128  0.2958 -0.0771  0.0857
13066TIP3    H260614   2.901   1.813   1.170  0.0571 -0.0297 -0.1915
13067TIP3   OH260615   6.619   3.558  16.221 -0.3592 -0.4001 -0.2697
13067TIP3    H160616   6.597   3.649  16.204  0.7085  0.1552  1.1696
13067TIP3    H260617   6.714   3.554  16.212 -0.4089 -1.3940 -0.4396
13068TIP3   OH260618   5.204   0.882   0.522  0.7662 -0.8244  0.7525
13068TIP3    H160619   5.115   0.914   0.511  1.3467 -0.5334 -3.6592
13068TIP3    H260620   5.195   0.787   0.527  0.2017 -0.7745  0.6315
13069TIP3   OH260621   0.943   6.455  14.098  0.2877 -0.1492  0.3398
13069TIP3    H160622   1.011   6.495  14.044 -0.5368  0.1636 -0.4760
13069TIP3    H260623   0.986   6.380  14.140  1.2481  0.3122  0.1820
13070TIP3   OH260624   2.970   4.404   3.850  0.5486 -0.2732 -0.3999
13070TIP3    H160625   3.062   4.386   3.869  0.9348  0.8708 -1.1213
13070TIP3    H260626   2.935   4.322   3.816  0.3909 -1.7451  3.1137
13071TIP3   OH260627   2.580   3.843  10.535 -0.4954  0.3706 -0.9516
13071TIP3    H160628   2.626   3.761  10.515  1.0879  1.0989 -0.3991
13071TIP3    H260629   2.620   3.907  10.477 -2.4277  0.5815 -2.1022
13072TIP3   OH260630   1.508   6.634   0.917  0.2850 -0.0625 -0.0521
13072TIP3    H160631   1.578   6.686   0.877 -0.2482  0.2130 -0.6379
13072TIP3    H260632   1.456   6.603   0.843  0.7357 -1.6354  0.2711
13073TIP3   OH260633   4.007   1.221  13.157 -0.0589 -0.1751  0.2574
13073TIP3    H160634   4.079   1.274  13.124  0.4982 -1.3606 -0.4801
13073TIP3    H260635   4.050   1.149  13.204 -0.7749 -0.4807  0.4506
13074TIP3   OH260636   2.219   5.482  14.636  0.3777  0.2488 -0.2987
13074TIP3    H160637   2.303   5.436  14.645  0.2307 -0.1955 -1.1434
13074TIP3    H260638   2.178   5.441  14.560 -1.2675 -0.5631  0.9903
13075TIP3   OH260639   4.961   0.218  15.451  0.1665  0.4455 -0.0622
13075TIP3    H160640   4.880   0.208  15.402 -1.1935 -1.3976  2.4983
13075TIP3    H260641   5.026   0.240  15.384 -1.9346 -0.4254 -2.4767
13076TIP3   OH260642   4.603   4.792   1.801  0.2277 -0.2085 -0.3109
13076TIP3    H160643   4.562   4.746   1.728  1.4767  0.5281 -1.4951
13076TIP3    H260644   4.693   4.761   1.801  0.1956 -0.3348  1.0381
13077TIP3   OH260645   4.308   4.102   3.888 -0.0097  0.3174  0.0286
13077TIP3    H160646   4.399   4.084   3.910 -0.2712 -0.3184  0.6087
13077TIP3    H260647   4.292   4.054   3.807  0.0564  0.1115  0.1382
13078TIP3   OH260648   2.373   3.427   1.505  0.2731  0.0204  0.3874
13078TIP3    H160649   2.384   3.521   1.524  1.1599 -0.0475  0.2443
13078TIP3    H260650   2.323   3.393   1.579  1.9006  0.1696  1.5790
13079TIP3   OH260651   2.800   0.957   4.055 -0.8535 -0.0871 -1.0060
13079TIP3    H160652   2.738   0.977   4.125  0.0936 -0.5907 -0.0022
13079TIP3    H260653   2.821   0.864   4.068  1.4412  0.4918 -0.2146
13080TIP3   OH260654   1.066   5.994   4.623 -0.2876 -0.1955  0.3463
13080TIP3    H160655   1.145   5.941   4.621  0.5297  1.0179 -1.2182
13080TIP3    H260656   1.098   6.085   4.620 -1.6716  0.3584  1.7461
13081TIP3   OH260657   0.408   3.890   3.119 -0.0091 -0.0727 -0.1254
13081TIP3    H160658   0.353   3.855   3.049 -0.7450 -0.2884  0.5664
13081TIP3    H260659   0.458   3.960   3.076 -0.2394 -0.3908 -0.9354
13082TIP3   OH260660   4.968   3.344   4.820  0.0537  0.6385  0.5610
13082TIP3    H160661   4.899   3.319   4.882 -0.7352  0.1114 -0.5074
13082TIP3    H260662   4.930   3.327   4.734  1.7019 -0.1468 -0.0425
13083TIP3   OH260663   4.000   5.461   5.199  0.1894  0.1613 -0.5126
13083TIP3    H160664   4.013   5.489   5.109 -1.4292  1.8968 -0.2352
13083TIP3    H260665   3.954   5.377   5.192  1.6590 -0.5874 -1.3083
13084TIP3   OH260666   0.121   2.880   5.272  0.6510  0.5436 -0.0904
13084TIP3    H160667   0.154   2.959   5.316 -0.1039  0.1593  1.1909
13084TIP3    H260668   0.189   2.858   5.209  2.8159 -0.1217  2.3661
13085TIP3   OH260669   6.231   0.775   5.004  0.0766 -0.7182 -0.4315
13085TIP3    H160670   6.252   0.857   4.958 -2.4515  0.8040  1.0305
13085TIP3    H260671   6.271   0.786   5.091 -0.1834 -1.0636 -0.2687
13086TIP3   OH260672   2.825   1.170   3.274 -0.3812  0.0591 -0.2054
13086TIP3    H160673   2.918   1.186   3.288 -1.0701  2.9302  1.5697
13086TIP3    H260674   2.803   1.225   3.198 -0.9999  0.8739  0.5528
13087TIP3   OH260675   4.077   2.249  10.647 -0.4453  0.0322  0.6345
13087TIP3    H160676   4.112   2.314  10.586 -1.2615  1.5508  1.7535
13087TIP3    H260677   4.041   2.180  10.592 -0.1508  0.8395 -0.5698
13088TIP3   OH260678   0.841   4.356   2.324  0.6523 -0.4645  0.0098
13088TIP3    H160679   0.825   4.262   2.326 -0.7729 -0.2356 -0.3980
13088TIP3    H260680   0.914   4.366   2.262 -0.9543 -1.0675 -2.0306
13089TIP3   OH260681   3.273   1.629   3.764  0.1002  0.6149 -0.5958
13089TIP3    H160682   3.226   1.546   3.757 -1.0695  1.2951 -1.0132
13089TIP3    H260683   3.300   1.633   3.856 -1.2954  0.5218 -0.1539
13090TIP3   OH260684   2.644   6.164   5.486  0.7689 -0.0596 -0.2026
13090TIP3    H160685   2.602   6.215   5.417  0.9073  0.6168  0.2104
13090TIP3    H260686   2.652   6.076   5.450  0.4408  0.1915 -0.8809
13091TIP3   OH260687   0.801   3.514   5.463  0.1241 -0.2017 -0.3271
13091TIP3    H160688   0.770   3.579   5.400  1.1429  0.0637 -0.5665
13091TIP3    H260689   0.783   3.430   5.421 -0.5894 -0.0650 -0.3048
13092TIP3   OH260690   4.308   5.606  11.580 -0.4946  0.3355  0.2451
13092TIP3    H160691   4.263   5.680  11.540 -0.8117 -0.8426 -1.6317
13092TIP3    H260692   4.330   5.636  11.668  0.3450  3.0394 -0.8414
13093TIP3   OH260693   4.040   5.979   1.373  0.3596 -0.2884 -0.1187
13093TIP3    H160694   4.020   5.902   1.427 -1.0776  0.9316  1.1491
13093TIP3    H260695   4.062   6.047   1.437  1.9104  0.2832 -1.2429
13094TIP3   OH260696   3.846   6.649  15.031  0.5694 -0.4526 -0.1591
13094TIP3    H160697   3.816   6.635  14.942 -0.0607 -1.7552  0.2407
13094TIP3    H260698   3.771   6.687  15.076  0.7959 -0.0516 -0.1203
13095TIP3   OH260699   4.675   0.013   3.971 -0.5043  0.7021  0.0400
13095TIP3    H160700   4.713   0.017   3.883  0.1830  0.8920  0.3398
13095TIP3    H260701   4.615  -0.062   3.969  0.8659 -0.4037 -0.0649
13096TIP3   OH260702   4.026   0.713  11.246  0.6177 -0.1071 -0.1688
13096TIP3    H160703   4.052   0.647  11.181  2.4628  2.2806 -1.9382
13096TIP3    H260704   3.956   0.762  11.204  0.6461  0.3664  0.3269
13097TIP3   OH260705   4.101   4.555   2.319  0.4162  0.1546  0.1441
13097TIP3    H160706   4.024   4.565   2.375  0.9520  0.4975  0.8130
13097TIP3    H260707   4.161   4.502   2.371  1.0857  0.8337  0.0616
13098TIP3   OH260708   4.084   6.710   3.049  0.1319  0.1274 -0.1052
13098TIP3    H160709   4.135   6.731   2.970  1.7118  2.1778  1.3945
13098TIP3    H260710   4.036   6.790   3.068  2.3074  0.7972  2.8484
13099TIP3   OH260711   4.333   2.579  14.615  0.5802 -0.1090 -0.3131
13099TIP3    H160712   4.364   2.605  14.702  2.2457 -0.8383 -0.6601
13099TIP3    H260713   4.251   2.534  14.632  1.4135 -1.1952  1.0214
13100TIP3   OH260714   1.085   6.113   3.742 -0.3377  0.2052  0.4247
13100TIP3    H160715   1.119   6.059   3.813 -3.2690  0.5957  2.2524
13100TIP3    H260716   1.085   6.202   3.779  0.0735  0.7352 -0.8438
13101TIP3   OH260717   5.357   3.110  14.862  0.0578  0.4066 -0.1947
13101TIP3    H160718   5.281   3.096  14.918 -0.1392  1.2384 -0.2540
13101TIP3    H260719   5.431   3.084  14.917 -0.3230 -1.4166 -0.4892
13102TIP3   OH260720   5.656   5.804   0.045 -0.1362  0.2874  0.4004
13102TIP3    H160721   5.575   5.786   0.093  1.0338 -0.6342  2.0520
13102TIP3    H260722   5.649   5.749  -0.034 -0.8814 -0.1554  0.7693
13103TIP3   OH260723   3.224   1.696  13.579 -0.6167 -0.4020 -0.3044
13103TIP3    H160724   3.136   1.658  13.581 -0.7033 -0.1928 -0.1061
13103TIP3    H260725   3.272   1.651  13.649 -0.7746 -0.0176  0.0569
13104TIP3   OH260726   1.719   2.967  13.677  0.2757  0.0414  0.5068
13104TIP3    H160727   1.667   2.927  13.747 -0.8753  0.7947  0.0809
13104TIP3    H260728   1.704   3.061  13.686  1.0183  0.2212 -0.0572
13105TIP3   OH260729   6.289   0.411   5.629 -0.5694  0.3897  0.1651
13105TIP3    H160730   6.221   0.358   5.589 -0.5748  0.7003 -0.2463
13105TIP3    H260731   6.284   0.392   5.722 -1.0271  0.1930  0.0982
13106TIP3   OH260732   4.869   1.562   2.586 -0.1820  0.6089  0.3261
13106TIP3    H160733   4.886   1.652   2.560 -3.2851  1.0769 -0.3156
13106TIP3    H260734   4.821   1.524   2.512  1.4819 -1.7204  0.3951
13107TIP3   OH260735   1.186   1.171   0.732  0.1517  0.0755  0.2422
13107TIP3    H160736   1.251   1.216   0.679 -0.5908  1.3244  0.3792
13107TIP3    H260737   1.115   1.234   0.743 -1.0733 -1.2373  0.1302
13108TIP3   OH260738   1.184   5.286   4.870 -0.8400  0.1110 -0.0973
13108TIP3    H160739   1.094   5.253   4.874 -0.4490 -0.9043  0.3883
13108TIP3    H260740   1.213   5.266   4.781 -0.2958 -1.6851  0.4728
13109TIP3   OH260741   5.032   1.999   3.204  0.4093  0.2785  0.7779
13109TIP3    H160742   5.059   2.056   3.277 -0.1442  1.3248  0.1748
13109TIP3    H260743   5.114   1.966   3.168  0.6877 -0.3073  1.9253
13110TIP3   OH260744   3.161   4.976   3.972  0.7455 -0.1925  0.4585
13110TIP3    H160745   3.245   4.930   3.980  1.3470  0.6936 -0.5804
13110TIP3    H260746   3.105   4.915   3.923  0.6486 -0.9415  1.4797
13111TIP3   OH260747   1.200   0.691  13.700 -0.5300 -0.4643 -1.0570
13111TIP3    H160748   1.215   0.604  13.739 -1.5243 -0.4242 -0.5538
13111TIP3    H260749   1.158   0.673  13.616 -0.7283 -0.4796 -0.9560
13112TIP3   OH260750   5.446   1.546   3.376  0.1908 -0.2253 -0.1092
13112TIP3    H160751   5.459   1.639   3.394 -0.5633  0.0191 -0.8185
13112TIP3    H260752   5.404   1.544   3.291  1.2175 -1.2727 -0.6006
13113TIP3   OH260753   0.613   4.806  16.345 -0.1946  0.2073 -0.1891
13113TIP3    H160754   0.536   4.849  16.308  0.7902  2.0589 -0.1530
13113TIP3    H260755   0.578   4.734  16.397 -1.8434  0.3746 -1.0510
13114TIP3   OH260756   6.338   2.399  11.363  0.4414 -0.0909 -0.1351
13114TIP3    H160757   6.244   2.397  11.381  0.5845  0.5522  0.7234
13114TIP3    H260758   6.347   2.457  11.288  0.2941  1.0374  0.7179
13115TIP3   OH260759   0.275   3.320  15.223  0.1995  0.4920 -0.8289
13115TIP3    H160760   0.354   3.318  15.170 -0.2751  1.8278 -1.5856
13115TIP3    H260761   0.209   3.277  15.169 -0.4775  2.5398 -1.6456
13116TIP3   OH260762   4.300   3.557   0.519 -0.1921 -0.0926 -0.1789
13116TIP3    H160763   4.361   3.489   0.489 -0.6222  0.1317 -1.6373
13116TIP3    H260764   4.356   3.631   0.541  0.1710 -0.4073 -0.0262
13117TIP3   OH260765   0.281   3.095  15.779  0.2913 -0.3665  0.1949
13117TIP3    H160766   0.324   3.139  15.852 -0.1416  0.4003 -0.0020
13117TIP3    H260767   0.294   3.154  15.705 -0.7168 -0.3173  0.0400
13118TIP3   OH260768   6.201   5.551  11.375  0.1133 -0.4147  0.4642
13118TIP3    H160769   6.245   5.634  11.359 -2.1407  0.8744  0.6741
13118TIP3    H260770   6.180   5.553  11.469 -0.1743 -1.1046  0.4167
13119TIP3   OH260771   2.729   6.039  13.630  0.7516  0.4201  0.2829
13119TIP3    H160772   2.707   6.014  13.720 -0.1014 -2.9454 -0.7623
13119TIP3    H260773   2.792   5.972  13.602 -0.6507  0.1305 -2.3107
13120TIP3   OH260774   1.416   1.290   0.669  0.5459  0.1080  0.1959
13120TIP3    H160775   1.429   1.376   0.628  1.1699  0.2663  0.7206
13120TIP3    H260776   1.495   1.276   0.721  0.7250 -1.0541 -0.3574
13121TIP3   OH260777   2.891   0.107   3.642 -0.2090  0.1739  0.4667
13121TIP3    H160778   2.873   0.123   3.735  0.7730  2.3822  0.3074
13121TIP3    H260779   2.818   0.149   3.596 -0.4664 -0.5512  0.1932
13122TIP3   OH260780   0.451   5.766  15.093  0.2899 -0.1204 -0.1197
13122TIP3    H160781   0.482   5.679  15.118  1.8553  0.6983  0.8167
13122TIP3    H260782   0.487   5.825  15.159  1.0727  1.5396 -1.9864
13123TIP3   OH260783   5.170   0.822  12.737 -0.1193  0.4152 -0.0819
13123TIP3    H160784   5.144   0.836  12.646  3.5214 -0.5761 -1.3342
13123TIP3    H260785   5.189   0.910  12.770 -0.6724  0.6975 -0.5067
13124TIP3   OH260786   5.564   0.032  16.757 -0.5918 -0.4474  0.3617
13124TIP3    H160787   5.500   0.077  16.811  0.3403  0.6611  0.5766
13124TIP3    H260788   5.646   0.040  16.806 -0.4277 -2.4955  0.4644
13125TIP3   OH260789   3.642   4.881  15.934  0.5197 -0.3047 -0.8190
13125TIP3    H160790   3.686   4.842  16.010  0.7852  0.0871 -0.7648
13125TIP3    H260791   3.590   4.953  15.971  1.5277  0.6072 -1.1290
13126TIP3   OH260792   3.401   3.516  16.936  0.0239  0.6529  0.2081
13126TIP3    H160793   3.429   3.538  16.847 -0.8142 -1.3748 -0.5834
13126TIP3    H260794   3.343   3.441  16.925  0.8639 -0.3901  2.5815
13127TIP3   OH260795   5.804   5.486   2.639 -0.4860  0.0167  0.5576
13127TIP3    H160796   5.892   5.515   2.616 -1.2615  1.9702 -0.0460
13127TIP3    H260797   5.753   5.567   2.648 -1.1076 -0.7835  5.5680
13128TIP3   OH260798   6.624   6.093   4.510  0.0748  0.0419  0.0499
13128TIP3    H160799   6.583   6.163   4.560 -0.9607 -0.3797 -0.2128
13128TIP3    H260800   6.677   6.138   4.444 -1.3552  0.5677 -0.7519
13129TIP3   OH260801   6.098   1.648  15.720  0.1973 -0.3672 -0.0670
13129TIP3    H160802   6.077   1.560  15.751  0.4943 -0.5110 -0.2600
13129TIP3    H260803   6.108   1.638  15.625 -0.5640  0.0383 -0.1871
13130TIP3   OH260804   5.956   2.133  15.699 -0.0069 -0.0095  0.1607
13130TIP3    H160805   5.870   2.092  15.687  0.0852 -0.5306  1.2839
13130TIP3    H260806   5.994   2.089  15.775  1.1838  0.3514 -0.2091
13131TIP3   OH260807   1.179   4.341   2.241 -0.0492 -0.2723  0.5278
13131TIP3    H160808   1.189   4.319   2.333 -1.8148 -1.2236  0.5208
13131TIP3    H260809   1.126   4.269   2.205  0.1435  0.3762 -1.0882
13132TIP3   OH260810   1.116   4.015   5.435 -0.4949  0.1913 -0.4470
13132TIP3    H160811   1.183   4.064   5.386 -2.0315  0.9242 -1.8639
13132TIP3    H260812   1.115   4.057   5.521  1.7909 -0.6915  0.0456
13133TIP3   OH260813   6.080   3.616  13.761 -0.1070  0.2491 -0.5626
13133TIP3    H160814   6.056   3.526  13.739  0.0533  0.3522 -1.1670
13133TIP3    H260815   6.021   3.670  13.709 -0.4751  0.4954  0.1068
13134TIP3   OH260816   6.284   5.439  14.504  0.3902 -0.2921  0.1316
13134TIP3    H160817   6.352   5.403  14.448 -0.3249 -1.0603 -0.2611
13134TIP3    H260818   6.207   5.386  14.484 -0.7860  1.7005 -0.7097
13135TIP3   OH260819   3.399   3.643  16.409  0.4629 -1.0842 -1.1393
13135TIP3    H160820   3.487   3.605  16.403  0.6485 -0.8038 -0.3380
13135TIP3    H260821   3.346   3.574  16.449  0.8110 -0.5140  0.3632
13136TIP3   OH260822   3.017   5.780  11.316 -0.1092 -0.2734 -0.2265
13136TIP3    H160823   2.952   5.845  11.341 -0.8600 -1.1272  0.0370
13136TIP3    H260824   3.097   5.808  11.361 -0.8137 -0.3928  1.1302
13137TIP3   OH260825   1.950   4.777  16.822  0.1333  0.1052 -0.2044
13137TIP3    H160826   1.905   4.803  16.741 -1.7439  0.0116  0.7915
13137TIP3    H260827   1.958   4.858  16.872 -0.9786 -0.2580  0.5931
13138TIP3   OH260828   6.781   0.665   5.551  0.1121 -0.4125 -0.3898
13138TIP3    H160829   6.848   0.599   5.566 -1.5168 -1.6941  1.3098
13138TIP3    H260830   6.699   0.616   5.546 -0.6945  1.1012 -2.7727
13139TIP3   OH260831   3.485   4.899   6.841  0.5582  0.1358  0.3195
13139TIP3    H160832   3.482   4.943   6.926  0.8797 -1.8372  1.3811
13139TIP3    H260833   3.556   4.835   6.850 -2.2947 -3.2223  0.1646
13140TIP3   OH260834   2.070   2.526  12.521 -0.3921 -0.5667  0.4887
13140TIP3    H160835   2.147   2.570  12.556 -0.1596 -2.2675  2.2138
13140TIP3    H260836   2.086   2.521  12.426  0.9468  0.3371  0.6528
13141TIP3   OH260837   4.908   1.340  15.375  0.1706  0.7139  0.7043
13141TIP3    H160838   4.828   1.297  15.345  0.1624  0.4111  1.1360
13141TIP3    H260839   4.897   1.347  15.470  1.1768 -0.4443  0.9268
13142TIP3   OH260840   4.518   3.362   5.312  0.5396 -0.2336 -0.1676
13142TIP3    H160841   4.485   3.273   5.301 -4.3895  1.2589  1.3297
13142TIP3    H260842   4.482   3.411   5.238  0.5416  1.2105  0.7712
13143TIP3   OH260843   1.703   3.075  11.351  0.2123  0.1194  0.5915
13143TIP3    H160844   1.638   3.076  11.281  2.1942 -1.2109 -1.3201
13143TIP3    H260845   1.759   3.150  11.334 -2.1441  2.7317  3.6319
13144TIP3   OH260846   4.772   2.160   4.718  0.1858  0.8753  0.3094
13144TIP3    H160847   4.682   2.141   4.745  0.7435 -1.3971  0.6726
13144TIP3    H260848   4.807   2.076   4.690  2.2817  1.6915  0.3677
13145TIP3   OH260849   4.928   5.690   5.350 -0.0356  0.1478  0.5808
13145TIP3    H160850   5.015   5.663   5.381 -0.9071 -0.6775  2.3536
13145TIP3    H260851   4.882   5.719   5.429 -0.9813  1.7331 -0.5112
13146TIP3   OH260852   1.342   1.701  11.412 -0.2602  0.5050 -0.0991
13146TIP3    H160853   1.426   1.727  11.450 -0.0824 -0.0780 -0.0889
13146TIP3    H260854   1.334   1.608  11.433 -1.0793  0.6426  0.2140
13147TIP3   OH260855   4.946   0.890   1.695  0.0386 -0.5140  0.1210
13147TIP3    H160856   5.011   0.904   1.626 -1.1064 -0.7878 -1.0475
13147TIP3    H260857   4.968   0.954   1.762 -0.6473  1.8967 -1.8516
13148TIP3   OH260858   0.177   0.014  14.161  0.3039 -0.0835  0.0343
13148TIP3    H160859   0.096   0.065  14.169  0.5362  0.1631  0.8911
13148TIP3    H260860   0.156  -0.069  14.203  0.1889 -0.3920 -0.6261
13149TIP3   OH260861   0.911   3.384  12.661  0.3271  0.4359 -0.1499
13149TIP3    H160862   0.884   3.456  12.718 -1.6346  0.4863 -1.0930
13149TIP3    H260863   0.849   3.388  12.587 -1.2222 -3.5700  0.8426
13150TIP3   OH260864   3.445   2.190  15.997 -0.3501 -0.0159  0.5587
13150TIP3    H160865   3.499   2.262  16.029 -0.1078 -0.5113  1.2725
13150TIP3    H260866   3.498   2.112  16.012 -0.5948 -0.3443 -0.2596
13151TIP3   OH260867   5.176   3.795  16.026  0.1290 -0.2372  0.5077
13151TIP3    H160868   5.247   3.815  15.965 -1.1774 -1.1575 -1.3657
13151TIP3    H260869   5.159   3.877  16.071  0.6847  0.6428 -0.8549
13152TIP3   OH260870   3.798   3.688  15.696 -0.3313  0.6224  0.0956
13152TIP3    H160871   3.868   3.687  15.762 -0.4000 -0.3860  0.1584
13152TIP3    H260872   3.745   3.610  15.716 -0.4761  0.4374 -1.0071
13153TIP3   OH260873   2.528   2.251  14.032 -0.3023  0.0001  0.1069
13153TIP3    H160874   2.491   2.290  13.953  0.1484  0.8797  0.3195
13153TIP3    H260875   2.500   2.311  14.102  0.4798 -0.0114  0.4286
13154TIP3   OH260876   1.528   5.515   3.939  0.1132  0.0403 -0.5224
13154TIP3    H160877   1.558   5.465   4.015  1.2248 -1.1341 -1.6953
13154TIP3    H260878   1.474   5.584   3.976  1.2243 -0.0577  1.3910
13155TIP3   OH260879   5.104   2.295  14.537 -0.6465 -0.2504  0.0689
13155TIP3    H160880   5.166   2.368  14.528 -1.3910  0.6119  1.7050
13155TIP3    H260881   5.142   2.238  14.603 -0.6138 -0.7678 -0.3936
13156TIP3   OH260882   1.573   3.049   2.759 -0.4795 -0.2431 -0.0467
13156TIP3    H160883   1.588   2.968   2.807 -1.0237 -0.0429  0.4578
13156TIP3    H260884   1.478   3.055   2.751 -0.3915 -0.7961 -2.0381
13157TIP3   OH260885   3.752   3.689  12.039  0.1067  0.3363 -0.0764
13157TIP3    H160886   3.727   3.597  12.037  0.5888  0.2093 -0.4074
13157TIP3    H260887   3.673   3.735  12.009  0.2368 -0.0539 -1.0509
13158TIP3   OH260888   2.782   6.735   4.314 -0.3445 -0.0939 -0.9733
13158TIP3    H160889   2.802   6.829   4.319  1.3633 -0.4831  0.0567
13158TIP3    H260890   2.740   6.715   4.398  0.6920 -0.5508 -0.5579
13159TIP3   OH260891   2.398   2.633  13.692 -0.5237 -0.2562  0.2313
13159TIP3    H160892   2.493   2.632  13.703 -0.5428 -0.1118  0.4151
13159TIP3    H260893   2.364   2.669  13.774 -0.5964  2.0703 -0.7706
13160TIP3   OH260894   1.745   5.806  14.218 -0.2256 -0.7202  0.2008
13160TIP3    H160895   1.777   5.896  14.224 -0.5243 -0.4119 -2.1920
13160TIP3    H260896   1.785   5.761  14.292 -2.2858  2.0110  3.1565
13161TIP3   OH260897   6.378   5.117  12.073  0.4381  0.3358 -0.1355
13161TIP3    H160898   6.415   5.105  11.985  2.1533  2.0117  0.3048
13161TIP3    H260899   6.455   5.118  12.130 -0.6133 -0.0038  1.2912
13162TIP3   OH260900   3.740   4.129  15.550 -0.2348  0.0222 -0.7998
13162TIP3    H160901   3.810   4.072  15.580  0.9004  1.0264 -1.5058
13162TIP3    H260902   3.735   4.198  15.616 -0.4932  0.0067 -0.8015
13163TIP3   OH260903   5.084   0.391   3.409 -0.0389 -0.0496  0.5817
13163TIP3    H160904   5.134   0.309   3.410  1.3759  0.8115  1.2877
13163TIP3    H260905   5.052   0.399   3.319  2.7572  0.3815 -0.4299
13164TIP3   OH260906   2.818   2.640  15.430  0.5420  0.0791 -0.3294
13164TIP3    H160907   2.890   2.577  15.437 -0.2183 -0.7267  0.3819
13164TIP3    H260908   2.797   2.641  15.337  1.7075  0.5908 -0.5975
13165TIP3   OH260909   5.316   2.944   0.269 -0.0590  0.2616 -0.2366
13165TIP3    H160910   5.288   3.006   0.336  0.9159  2.0960 -1.4495
13165TIP3    H260911   5.251   2.953   0.199 -0.6351 -1.0504  0.1305
13166TIP3   OH260912   2.037   0.295  11.053 -0.1280  0.3207 -0.3974
13166TIP3    H160913   2.046   0.235  10.980 -1.1275  0.5115 -0.6876
13166TIP3    H260914   1.951   0.275  11.091  1.5193 -1.6855  2.4789
13167TIP3   OH260915   2.893   0.238   1.363  0.2270 -0.0381  0.3021
13167TIP3    H160916   2.973   0.288   1.352 -1.0562  1.7589 -1.1396
13167TIP3    H260917   2.846   0.249   1.280 -1.3324 -1.3818  0.9725
13168TIP3   OH260918   2.508   1.662   5.542  0.4906 -0.1489 -0.4378
13168TIP3    H160919   2.453   1.717   5.598  2.2087  0.4224  0.7257
13168TIP3    H260920   2.459   1.656   5.460 -2.4985 -1.7350  1.3504
13169TIP3   OH260921   5.532   3.988  15.554 -0.3673  0.3099  0.3288
13169TIP3    H160922   5.541   3.998  15.459 -2.0816 -0.8250  0.0232
13169TIP3    H260923   5.498   4.072  15.584 -1.2080  0.2003 -0.2777
13170TIP3   OH260924   6.640   5.289  15.834 -0.9101 -0.0774  0.0694
13170TIP3    H160925   6.710   5.352  15.818 -0.6982 -0.0539  1.0875
13170TIP3    H260926   6.642   5.231  15.757  0.1225  0.0069  0.0269
13171TIP3   OH260927   6.257   1.982   3.558  0.3981  0.3506  0.4585
13171TIP3    H160928   6.291   2.055   3.506  0.0734  0.5829  0.5664
13171TIP3    H260929   6.258   1.907   3.499 -1.4892  0.9668 -0.4076
13172TIP3   OH260930   1.114   2.380   5.855 -0.1602  0.0006 -0.5795
13172TIP3    H160931   1.134   2.345   5.941  1.4189  2.1052 -0.0682
13172TIP3    H260932   1.029   2.423   5.865  0.2474  0.6611  0.0618
13173TIP3   OH260933   4.685   4.898   4.847 -0.4488  0.0068  0.7855
13173TIP3    H160934   4.649   4.868   4.930  0.6604  1.7298  1.9217
13173TIP3    H260935   4.775   4.923   4.867 -0.3183  0.9334 -0.8161
13174TIP3   OH260936   3.220   1.089   3.093 -0.4979  0.0187 -0.1081
13174TIP3    H160937   3.153   1.056   3.034  0.7346  0.0772 -1.5809
13174TIP3    H260938   3.174   1.104   3.176 -2.0367 -1.0133 -0.7522
13175TIP3   OH260939   0.748   1.332  14.376 -0.2975 -0.3241 -0.0646
13175TIP3    H160940   0.701   1.301  14.299 -1.5131  0.9773  0.1279
13175TIP3    H260941   0.760   1.426  14.361  1.5068 -0.4739  0.2885
13176TIP3   OH260942   1.134   5.141  16.056  0.3988 -0.6053  0.4730
13176TIP3    H160943   1.149   5.117  15.964 -0.0400  1.0576 -0.0527
13176TIP3    H260944   1.220   5.170  16.087  0.1566  0.5885  0.0390
13177TIP3   OH260945   6.429   3.483   4.196  0.2325  0.3907 -0.0468
13177TIP3    H160946   6.426   3.412   4.260 -0.3739  0.7289  0.3134
13177TIP3    H260947   6.375   3.452   4.123  0.3319  0.2999 -0.0812
13178TIP3   OH260948   2.275   1.890  13.110  0.0401  0.2058  0.2169
13178TIP3    H160949   2.287   1.805  13.152 -1.4301 -1.1490 -2.0430
13178TIP3    H260950   2.312   1.880  13.023 -3.1340  0.7878 -1.2767
13179TIP3   OH260951   3.796   5.973  13.225 -0.0815  0.4164  0.0494
13179TIP3    H160952   3.715   5.961  13.274 -0.0476  0.5704  0.1458
13179TIP3    H260953   3.783   6.056  13.179 -1.3067 -1.1683 -2.5735
13180TIP3   OH260954   4.425   1.858  11.465 -0.1227 -1.1307  0.7384
13180TIP3    H160955   4.352   1.899  11.510  1.0058  0.6676  0.9867
13180TIP3    H260956   4.410   1.876  11.372  0.3113 -0.2102  0.8385
13181TIP3   OH260957   5.460   0.476  13.787 -0.4312  0.3062  0.0977
13181TIP3    H160958   5.466   0.514  13.875  2.0862  1.9710 -0.7391
13181TIP3    H260959   5.516   0.399  13.790 -1.0744 -0.1621  0.1985
13182TIP3   OH260960   1.879   3.825   0.529  0.0468  0.4000 -0.4310
13182TIP3    H160961   1.820   3.760   0.490 -0.1141  0.8331 -0.9078
13182TIP3    H260962   1.822   3.880   0.582  0.1886  0.1364 -0.0020
13183TIP3   OH260963   0.844   3.126   1.741 -0.1566 -0.4075  0.3359
13183TIP3    H160964   0.869   3.133   1.649 -2.8356  3.0252 -0.2269
13183TIP3    H260965   0.889   3.200   1.783  0.0410 -1.2145  1.5847
13184TIP3   OH260966   5.773   0.260   3.917 -0.2985  0.4793 -0.0807
13184TIP3    H160967   5.679   0.242   3.909 -0.0540 -0.3590 -1.3171
13184TIP3    H260968   5.800   0.283   3.828  0.6441  0.8108  0.2890
13185TIP3   OH260969   6.603   1.167   4.334  0.0602 -0.7305  0.0492
13185TIP3    H160970   6.687   1.132   4.365 -0.4588 -1.2717  0.8930
13185TIP3    H260971   6.607   1.159   4.239  1.4935  0.4908 -0.0166
13186TIP3   OH260972   2.741   5.852  12.942  0.1384 -0.2069 -0.2096
13186TIP3    H160973   2.693   5.802  12.875  0.2701 -1.0221  0.2995
13186TIP3    H260974   2.700   5.827  13.025  1.9258 -1.4976  0.3058
13187TIP3   OH260975   4.428   5.132  15.088 -0.1353  0.3006  0.3332
13187TIP3    H160976   4.414   5.186  15.167  0.1988  1.1344 -0.1753
13187TIP3    H260977   4.343   5.133  15.044 -0.8236 -1.5998  1.5534
13188TIP3   OH260978   5.707   5.234  11.228 -0.2505  0.5735 -0.4161
13188TIP3    H160979   5.732   5.236  11.135 -0.7919 -1.4994 -0.6294
13188TIP3    H260980   5.611   5.240  11.227 -0.1856  1.8336  0.0847
13189TIP3   OH260981   5.976   4.131  16.039  0.0829  0.9126 -0.5841
13189TIP3    H160982   5.999   4.131  15.946 -0.3083  0.4878 -0.6805
13189TIP3    H260983   5.970   4.039  16.063 -1.2658  1.0204 -0.4944
13190TIP3   OH260984   6.748   1.552  14.808  0.7035 -0.2569 -0.0975
13190TIP3    H160985   6.820   1.514  14.757  1.1758  1.1124 -0.4535
13190TIP3    H260986   6.759   1.646  14.799  0.0244 -0.0161  1.4893
13191TIP3   OH260987   3.856   0.452  17.199  0.4370  0.5552  0.1877
13191TIP3    H160988   3.869   0.381  17.261 -3.6627 -0.2849  0.1927
13191TIP3    H260989   3.880   0.415  17.114 -1.2147 -0.6985  0.2559
13192TIP3   OH260990   6.069   0.031  11.883  0.5108  0.1839  0.8728
13192TIP3    H160991   6.146   0.044  11.939 -0.5246  1.2409  2.0696
13192TIP3    H260992   6.020  -0.040  11.925  1.2368 -1.0634 -0.3467
13193TIP3   OH260993   5.103   3.099   3.610  0.4275 -0.3235 -0.5155
13193TIP3    H160994   5.088   3.036   3.680 -1.5120 -1.0303 -1.5491
13193TIP3    H260995   5.173   3.061   3.557  1.6677  0.0605  0.8400
13194TIP3   OH260996   3.710   0.025   2.849 -0.6862  0.5168  0.3080
13194TIP3    H160997   3.793  -0.012   2.816 -0.7820  1.3262 -0.8876
13194TIP3    H260998   3.715   0.014   2.944  1.5283  2.0367  0.4169
13195TIP3   OH260999   3.648   5.365   0.339  0.5703  0.2329  0.2075
13195TIP3    H161000   3.710   5.431   0.371 -2.2919  2.0616  2.2221
13195TIP3    H261001   3.690   5.282   0.360  2.6285  1.4118  0.9904
13196TIP3   OH261002   0.664   3.965  14.878 -0.0184  0.2439  0.2280
13196TIP3    H161003   0.675   4.011  14.795 -0.8716 -1.7729 -1.0440
13196TIP3    H261004   0.746   3.918  14.892  0.2567  0.8648  0.7077
13197TIP3   OH261005   2.855   1.262  15.001 -0.5073  0.1235 -0.0668
13197TIP3    H161006   2.894   1.222  14.923 -1.6162  0.1979 -0.6822
13197TIP3    H261007   2.905   1.341  15.015 -1.2971  0.9391 -1.6721
13198TIP3   OH261008   0.041   1.743  11.997 -0.0409  0.4917 -0.5852
13198TIP3    H161009   0.025   1.791  11.916  0.0566  0.9697 -0.3287
13198TIP3    H261010   0.107   1.795  12.043  0.7190 -0.3727 -0.6980
13199TIP3   OH261011   2.125   5.011   6.049  0.3369  0.0960  0.3617
13199TIP3    H161012   2.137   5.010   6.144 -2.2927  0.2384  0.7266
13199TIP3    H261013   2.173   4.934   6.018  2.0242  0.5818  1.6671
13200TIP3   OH261014   1.010   0.399   5.338 -0.1593 -0.6300 -0.0790
13200TIP3    H161015   0.996   0.424   5.247  2.0388 -0.1862 -0.3361
13200TIP3    H261016   1.047   0.478   5.379  1.7752 -1.7557  0.4152
13201TIP3   OH261017   0.062   3.837   2.547  0.3217  0.1792 -0.1254
13201TIP3    H161018   0.153   3.824   2.574  0.2136  0.9654  0.6490
13201TIP3    H261019   0.010   3.800   2.619  0.0323  1.2582  0.2274
13202TIP3   OH261020   1.471   1.038  15.835 -0.5552  0.3406  0.1805
13202TIP3    H161021   1.508   1.126  15.833 -4.3248  2.0321  1.1842
13202TIP3    H261022   1.446   1.020  15.744  1.8734 -0.5051 -0.3606
13203TIP3   OH261023   0.599   4.938   1.344 -0.0415  0.3627 -0.0376
13203TIP3    H161024   0.562   4.996   1.277 -1.4154 -1.2766 -0.7687
13203TIP3    H261025   0.618   4.995   1.418  0.0059  1.9659 -1.2631
13204TIP3   OH261026   5.325   4.654   4.499  1.0804 -0.4561  0.8549
13204TIP3    H161027   5.419   4.660   4.517  1.3662 -1.9596 -0.0728
13204TIP3    H261028   5.318   4.589   4.430 -0.7451 -1.1655  1.6781
13205TIP3   OH261029   0.072   1.157   0.095 -0.6139 -0.0682  0.5314
13205TIP3    H161030   0.037   1.124   0.013 -2.1056 -0.6585  1.3754
13205TIP3    H261031   0.043   1.094   0.161 -0.1942  0.8568  1.6342
13206TIP3   OH261032   2.826   0.127  15.761 -0.4202 -0.0076  0.1925
13206TIP3    H161033   2.890   0.124  15.832 -0.3766  1.0196  0.2020
13206TIP3    H261034   2.874   0.165  15.687 -0.8010  0.0619 -0.0217
13207TIP3   OH261035   1.368   4.166  16.898 -0.0951 -0.0296 -0.1588
13207TIP3    H161036   1.346   4.250  16.940  0.4966  0.3749 -0.6391
13207TIP3    H261037   1.373   4.104  16.970 -1.0677  0.2330  0.1474
13208TIP3   OH261038   0.253   4.677  15.363  0.2644  0.0333 -0.1284
13208TIP3    H161039   0.201   4.650  15.439 -0.3406 -0.5872 -0.7570
13208TIP3    H261040   0.342   4.648  15.383 -0.5705 -3.5692 -1.3274
13209TIP3   OH261041   4.304   3.498   4.532  0.2502 -0.5542  0.1183
13209TIP3    H161042   4.367   3.562   4.499 -0.5009 -0.0980 -0.4272
13209TIP3    H261043   4.236   3.494   4.465 -0.5405 -0.7105  0.9270
13210TIP3   OH261044   5.072   5.179   4.881 -0.6493  0.4861  0.4611
13210TIP3    H161045   5.037   5.196   4.969 -2.1665  1.7580 -0.3719
13210TIP3    H261046   5.128   5.254   4.863 -0.6092  0.3908  0.1976
13211TIP3   OH261047   5.323   5.730  15.618  0.2006  0.6476  0.6029
13211TIP3    H161048   5.313   5.635  15.621 -0.5464  0.6029 -2.1734
13211TIP3    H261049   5.340   5.755  15.709  2.4982 -2.3547  1.0831
13212TIP3   OH261050   5.525   4.976  12.383 -0.1254  0.2782 -0.5984
13212TIP3    H161051   5.443   5.025  12.390 -0.0744  0.5704 -1.8675
13212TIP3    H261052   5.573   4.999  12.462 -0.8764  0.8514 -0.3028
13213TIP3   OH261053   1.839   3.528  16.718 -0.4349 -0.2415 -0.9578
13213TIP3    H161054   1.867   3.564  16.802 -1.2295 -0.6998 -0.4769
13213TIP3    H261055   1.812   3.604  16.666 -1.0092 -0.0384 -0.3759
13214TIP3   OH261056   3.637   1.145  15.804 -0.0903 -0.6361 -0.1586
13214TIP3    H161057   3.719   1.095  15.805  1.0666  1.1840  0.7592
13214TIP3    H261058   3.608   1.145  15.896 -1.3603 -1.6368 -0.5527
13215TIP3   OH261059   1.231   3.589   3.766  0.0284 -0.0509  0.2388
13215TIP3    H161060   1.199   3.634   3.844  2.7272 -1.2412  2.1072
13215TIP3    H261061   1.326   3.586   3.778  0.3512 -1.3861 -2.4920
13216TIP3   OH261062   4.496   1.601   4.751  0.1948 -0.6576  0.1276
13216TIP3    H161063   4.447   1.633   4.675 -1.2413  0.0147  1.3221
13216TIP3    H261064   4.579   1.649   4.747 -0.3469  0.2691 -0.3578
13217TIP3   OH261065   4.461   1.591  10.597  0.0718  0.4976 -0.1684
13217TIP3    H161066   4.474   1.623  10.687  0.5634  1.5271 -0.5971
13217TIP3    H261067   4.550   1.577  10.564 -0.1179 -0.2817 -0.3565
13218TIP3   OH261068   2.998   5.203  16.496  0.2450 -0.1435  0.1108
13218TIP3    H161069   2.986   5.170  16.585 -3.5207  1.8809  0.4786
13218TIP3    H261070   2.925   5.164  16.447 -0.0103  1.8294 -1.1135
13219TIP3   OH261071   0.158   4.803  16.788 -0.4143 -0.0213 -0.0294
13219TIP3    H161072   0.070   4.785  16.756 -0.0280 -1.1322 -0.4882
13219TIP3    H261073   0.152   4.889  16.829 -1.7202 -0.1173 -0.0234
13220TIP3   OH261074   0.644   0.024  15.567  0.3215 -0.0152 -0.2565
13220TIP3    H161075   0.699   0.054  15.495  0.4354  1.3960  0.3912
13220TIP3    H261076   0.657  -0.071  15.570  1.5888  0.1294 -1.0309
13221TIP3   OH261077   2.926   6.284  14.598 -0.0073  0.0208  0.4924
13221TIP3    H161078   2.912   6.253  14.687  3.2593  0.0511  1.0926
13221TIP3    H261079   2.863   6.356  14.587 -1.7035 -1.1952  2.0904
13222TIP3   OH261080   3.553   0.819  10.704 -0.3237 -0.0748  0.2757
13222TIP3    H161081   3.546   0.785  10.614  0.1553 -0.4767  0.3850
13222TIP3    H261082   3.463   0.837  10.730 -0.6975 -2.1344  0.5379
13223TIP3   OH261083   3.257   1.988   0.367  0.6212 -0.0872 -0.0102
13223TIP3    H161084   3.232   1.975   0.459  2.0292 -0.5639  0.3286
13223TIP3    H261085   3.348   2.019   0.372 -0.5931  3.8539 -1.0703
13224TIP3   OH261086   2.832   0.318   0.802  0.2962  0.2015  0.6089
13224TIP3    H161087   2.808   0.398   0.756  0.5360  1.0663  1.9698
13224TIP3    H261088   2.911   0.287   0.756  1.3360  1.7996  1.2672
13225TIP3   OH261089   2.308   6.706   3.379  0.0175 -0.0655 -0.3219
13225TIP3    H161090   2.358   6.688   3.459  0.5661  0.4260 -0.5471
13225TIP3    H261091   2.375   6.724   3.313 -0.3923 -1.5547 -1.1715
13226TIP3   OH261092   2.691   5.011  11.016  0.4349  0.2777  0.1778
13226TIP3    H161093   2.667   5.101  10.991  0.0697 -0.5996 -2.8632
13226TIP3    H261094   2.670   4.959  10.938  0.6933 -2.4483  1.8913
13227TIP3   OH261095   5.902   2.985   3.861 -0.1679 -0.0007 -0.3465
13227TIP3    H161096   5.870   2.900   3.892  1.5359 -0.6331 -0.3109
13227TIP3    H261097   5.928   3.031   3.941 -1.0729  0.5713 -0.3677
13228TIP3   OH261098   0.815   3.619   3.219 -0.7045 -0.2139  0.4934
13228TIP3    H161099   0.871   3.666   3.281  0.6310  0.2712 -1.0187
13228TIP3    H261100   0.729   3.658   3.230  0.1884  2.0172 -0.1095
13229TIP3   OH261101   2.342   1.719   2.405  0.1106 -0.1480  0.5701
13229TIP3    H161102   2.351   1.645   2.465 -0.2811 -0.4680  0.2330
13229TIP3    H261103   2.419   1.773   2.423  2.0738 -2.2165 -1.3827
13230TIP3   OH261104   0.751   1.362   0.906 -0.0315  0.7556  0.5474
13230TIP3    H161105   0.690   1.341   0.835  2.6131  1.0105 -1.8885
13230TIP3    H261106   0.699   1.412   0.969 -2.3790  0.7462 -1.3264
13231TIP3   OH261107   2.404   0.398  10.923 -0.5147  0.8922  0.2645
13231TIP3    H161108   2.363   0.350  10.995  0.5036  1.8396  1.5160
13231TIP3    H261109   2.496   0.403  10.947 -0.2014  1.4043 -1.0120
13232TIP3   OH261110   2.118   6.734   1.773  0.2274 -0.1522  0.1451
13232TIP3    H161111   2.073   6.690   1.846 -0.2889  0.7120  0.3549
13232TIP3    H261112   2.061   6.718   1.698 -1.5716  2.7155  0.8163
13233TIP3   OH261113   0.892   4.845  15.685 -0.3795  0.0195 -0.3257
13233TIP3    H161114   0.912   4.937  15.672  0.8535 -0.1353  0.4148
13233TIP3    H261115   0.895   4.806  15.598  0.5565  0.3900 -0.4586
13234TIP3   OH261116   3.914   4.124   2.737  0.2674 -0.1627  0.4600
13234TIP3    H161117   3.834   4.169   2.764  0.3400  1.1847 -1.4946
13234TIP3    H261118   3.885   4.064   2.668  0.9634  0.4875 -0.4071
13235TIP3   OH261119   4.098   3.488   6.376 -0.0600  0.2850 -0.2028
13235TIP3    H161120   4.015   3.443   6.362  0.0339  0.7176 -2.3478
13235TIP3    H261121   4.073   3.572   6.415 -0.5302 -0.0211  0.1677
13236TIP3   OH261122   2.375   3.807  11.260 -0.4787 -0.0767 -0.9753
13236TIP3    H161123   2.318   3.867  11.307  0.0416  0.6560 -1.2712
13236TIP3    H261124   2.431   3.863  11.207 -0.9274 -0.8774 -2.3320
13237TIP3   OH261125   1.925   3.588   5.791 -0.2836 -0.7395 -0.2022
13237TIP3    H161126   1.920   3.506   5.839  0.7075 -0.9492 -0.4567
13237TIP3    H261127   1.980   3.569   5.715 -1.2505 -0.2220 -1.0467
13238TIP3   OH261128   2.337   5.670   3.657 -0.3144 -0.3854  0.6806
13238TIP3    H161129   2.421   5.673   3.612 -1.4464 -1.0144 -1.5165
13238TIP3    H261130   2.311   5.762   3.666  0.6109 -0.1907  1.3816
13239TIP3   OH261131   0.986   2.222  17.207  0.2605 -0.1813 -0.1163
13239TIP3    H161132   0.979   2.243  17.300  0.5645 -1.2641  0.1634
13239TIP3    H261133   0.895   2.221  17.176  0.2963  2.7222 -0.4327
13240TIP3   OH261134   4.114   2.835   5.409  0.5045 -0.1312 -0.0771
13240TIP3    H161135   4.065   2.764   5.369  1.3707 -0.8988  0.1935
13240TIP3    H261136   4.201   2.797   5.427  0.3856  0.4128  1.7980
13241TIP3   OH261137   4.373   1.656   1.522 -0.2318  0.0957  0.0162
13241TIP3    H161138   4.318   1.654   1.601  0.4651 -2.5466  0.4645
13241TIP3    H261139   4.310   1.654   1.450 -0.8414 -4.4422  0.5032
13242TIP3   OH261140   3.261   5.337  14.710 -0.0345  0.1529 -0.0053
13242TIP3    H161141   3.193   5.288  14.756  0.6998 -1.1575 -0.2715
13242TIP3    H261142   3.319   5.367  14.780  0.8823 -1.5286 -0.0128
13243TIP3   OH261143   4.288   4.845   1.460  0.0128 -0.2809 -0.2324
13243TIP3    H161144   4.381   4.821   1.465  0.3790  0.9719 -0.8501
13243TIP3    H261145   4.242   4.769   1.496  1.2532 -1.0690 -0.2728
13244TIP3   OH261146   1.859   0.102   4.080  0.0938 -0.2589 -0.3062
13244TIP3    H161147   1.914   0.051   4.140 -2.0252 -0.9213  1.1310
13244TIP3    H261148   1.783   0.126   4.132 -1.4965 -0.2780 -2.5595
13245TIP3   OH261149   2.569   3.869  15.740 -0.3194 -0.9617  0.4571
13245TIP3    H161150   2.598   3.799  15.682  0.3482 -0.5885  0.3308
13245TIP3    H261151   2.563   3.946  15.683 -3.2029 -1.3948  0.1233
13246TIP3   OH261152   4.379   3.226   0.249  0.1990 -0.1291 -0.5020
13246TIP3    H161153   4.365   3.301   0.192  1.5770  0.0668 -0.5885
13246TIP3    H261154   4.298   3.218   0.299 -0.9146 -0.1140 -2.2536
13247TIP3   OH261155   1.251   5.970  12.468 -0.1694  0.5406  0.2598
13247TIP3    H161156   1.308   6.047  12.474  0.3191  0.2247 -0.3037
13247TIP3    H261157   1.311   5.896  12.465 -0.5590  0.2604 -1.3107
13248TIP3   OH261158   1.126   3.939  14.005  0.5782 -0.3413  0.6522
13248TIP3    H161159   1.103   3.969  13.917 -0.4950 -2.5491  0.1368
13248TIP3    H261160   1.125   4.018  14.058 -0.1039  0.8364 -1.0579
13249TIP3   OH261161   2.219   5.101   2.186  0.0433  0.2009 -0.2023
13249TIP3    H161162   2.249   5.187   2.157  0.0253 -0.0197 -0.8843
13249TIP3    H261163   2.132   5.117   2.223  0.6154  0.6939  0.9550
13250TIP3   OH261164   6.761   1.813   5.593  0.4017  0.6819 -0.1912
13250TIP3    H161165   6.818   1.873   5.642 -2.4630  2.0199  1.7103
13250TIP3    H261166   6.708   1.871   5.538 -1.0105 -0.2472  0.1517
13251TIP3   OH261167   0.185   1.277  13.617  0.5704  0.5551 -0.4012
13251TIP3    H161168   0.261   1.242  13.664  0.7140  1.1917 -0.1480
13251TIP3    H261169   0.113   1.218  13.638  0.9790 -0.0061 -0.5739
13252TIP3   OH261170   5.962   6.146  16.077 -0.0760 -0.6147  0.2069
13252TIP3    H161171   5.892   6.207  16.055 -0.7626 -1.7073 -0.6618
13252TIP3    H261172   5.918   6.073  16.120  0.3850 -1.8170 -1.3328
13253TIP3   OH261173   4.975   1.315  14.059 -0.5435 -0.3453 -0.5429
13253TIP3    H161174   4.991   1.313  14.153 -0.2324 -1.7595 -0.6074
13253TIP3    H261175   4.885   1.346  14.050  0.5229  3.0669  0.0505
13254TIP3   OH261176   4.743   4.259   4.108 -0.0045 -0.0592  0.0941
13254TIP3    H161177   4.701   4.208   4.177 -1.1026 -0.5274 -0.8991
13254TIP3    H261178   4.728   4.350   4.134  0.0983 -0.2316  0.7681
13255TIP3   OH261179   2.755   6.172   5.180 -0.1138 -0.2318  0.0016
13255TIP3    H161180   2.768   6.138   5.092 -0.7236 -1.7231  0.4741
13255TIP3    H261181   2.741   6.094   5.234 -1.2979  0.7458  1.1437
13256TIP3   OH261182   1.209   3.002   0.953 -0.0891 -0.1529  0.1301
13256TIP3    H161183   1.149   2.931   0.932 -0.2133  0.4968 -1.7988
13256TIP3    H261184   1.295   2.960   0.956 -0.1312 -0.3497 -1.2405
13257TIP3   OH261185   2.826   3.663   3.820 -0.1848  0.7170  0.2908
13257TIP3    H161186   2.893   3.633   3.758  0.5054  1.6041  0.5945
13257TIP3    H261187   2.866   3.650   3.906 -0.0480  2.0756  0.4438
13258TIP3   OH261188   0.555   2.828   3.469 -0.0584 -0.0812 -0.6880
13258TIP3    H161189   0.644   2.814   3.502  0.1763  0.1731 -1.2132
13258TIP3    H261190   0.512   2.879   3.538  0.5288  0.7191 -0.9071
13259TIP3   OH261191   2.258   4.940  13.554 -0.2890 -0.3798 -0.2800
13259TIP3    H161192   2.302   4.909  13.633  0.7953  0.0794 -0.6920
13259TIP3    H261193   2.187   4.996  13.586 -0.6973 -1.2768  0.3942
13260TIP3   OH261194   4.602   1.735   0.855  0.2415 -0.5017 -0.1555
13260TIP3    H161195   4.559   1.652   0.833 -1.3436  0.4658 -0.7711
13260TIP3    H261196   4.666   1.747   0.785 -0.4261 -0.5729 -0.7922
13261TIP3   OH261197   5.633   1.564   6.031 -0.6347 -0.4976  0.0108
13261TIP3    H161198   5.654   1.543   6.122 -0.9524 -0.5364  0.0736
13261TIP3    H261199   5.559   1.624   6.036 -0.1558  0.1052 -0.1944
13262TIP3   OH261200   6.411   4.173   5.249  0.5226  0.3036 -0.1980
13262TIP3    H161201   6.392   4.185   5.156 -1.4231  0.4960  0.2030
13262TIP3    H261202   6.421   4.078   5.260 -0.8151  0.1442 -0.3215
13263TIP3   OH261203   4.328   5.004  12.347  0.2839 -0.2002 -0.2733
13263TIP3    H161204   4.336   4.979  12.439 -0.0296  0.9312  0.0635
13263TIP3    H261205   4.346   4.923  12.299 -1.4658 -1.2492  0.8113
13264TIP3   OH261206   5.507   4.689  11.330 -0.1529 -0.5091 -0.2640
13264TIP3    H161207   5.502   4.776  11.369 -1.0918 -0.7980  0.2655
13264TIP3    H261208   5.416   4.662  11.320  0.0352 -0.2929 -2.9884
13265TIP3   OH261209   1.804   2.266   6.266 -0.0344 -0.4024 -0.5785
13265TIP3    H161210   1.716   2.302   6.280  0.3916  0.8363 -0.9488
13265TIP3    H261211   1.805   2.184   6.314  0.0453  1.7365  3.2914
13266TIP3   OH261212   5.258   2.281   5.858  0.2730  0.2113  0.3013
13266TIP3    H161213   5.193   2.212   5.841  0.8365 -0.5038  0.9849
13266TIP3    H261214   5.230   2.320   5.941 -0.1876  0.9855 -0.2084
13267TIP3   OH261215   3.777   1.010  10.563 -0.0524 -0.1904  0.1193
13267TIP3    H161216   3.818   1.060  10.493 -1.7613  0.3952 -0.4661
13267TIP3    H261217   3.684   1.033  10.559 -0.8133 -3.1187  0.0728
13268TIP3   OH261218   1.383   0.116  14.989 -0.0990 -0.2579 -0.0748
13268TIP3    H161219   1.423   0.193  14.948 -2.7070  1.8680  1.2052
13268TIP3    H261220   1.394   0.132  15.083 -2.9920 -0.1043  0.2620
13269TIP3   OH261221   0.350   1.142  15.338  0.3745 -0.0070 -0.3012
13269TIP3    H161222   0.291   1.076  15.373  0.9677 -0.6713 -0.5518
13269TIP3    H261223   0.331   1.221  15.389  1.9094 -1.2203  2.1998
13270TIP3   OH261224   5.712   4.669  16.305  0.1957 -0.0158 -0.2928
13270TIP3    H161225   5.628   4.638  16.270 -0.2435 -0.0400  0.7551
13270TIP3    H261226   5.691   4.702  16.393  0.6294  3.4171 -1.4092
13271TIP3   OH261227   3.538   5.665   1.418  0.1356 -0.0897 -0.0698
13271TIP3    H161228   3.589   5.613   1.356  0.7824 -1.3598  1.5154
13271TIP3    H261229   3.601   5.727   1.455  0.3165 -0.9644  1.1156
13272TIP3   OH261230   3.139   6.017  15.379  0.4649 -0.0436 -0.4488
13272TIP3    H161231   3.095   5.988  15.459 -0.9543 -0.8360 -1.4914
13272TIP3    H261232   3.070   6.021  15.314  2.1482 -2.6081 -2.4842
13273TIP3   OH261233   4.873   0.964  16.820 -0.6685 -0.2938 -0.2005
13273TIP3    H161234   4.853   1.007  16.904  1.1110  0.6808 -0.2436
13273TIP3    H261235   4.872   1.036  16.756 -0.4496 -0.7662 -0.7366
13274TIP3   OH261236   3.491   4.851  12.224  0.4553  0.5608  0.0693
13274TIP3    H161237   3.397   4.862  12.231  0.3604 -0.8707  1.2225
13274TIP3    H261238   3.524   4.939  12.206 -1.0253  1.1903  0.3579
13275TIP3   OH261239   0.132   2.213  12.844  0.1178 -0.2058  0.3761
13275TIP3    H161240   0.066   2.181  12.905 -1.3684  1.4916 -0.3065
13275TIP3    H261241   0.207   2.236  12.899 -0.2583 -1.1100  1.2803
13276TIP3   OH261242   0.639   1.800   6.470 -0.1401  0.1330 -0.2718
13276TIP3    H161243   0.576   1.851   6.521 -3.0994 -1.9524 -1.6670
13276TIP3    H261244   0.639   1.841   6.384  0.6919  0.3242 -0.1844
13277TIP3   OH261245   6.399   2.482  16.367 -0.1413 -0.0122 -0.2984
13277TIP3    H161246   6.311   2.492  16.405 -0.4788 -0.9100 -0.8316
13277TIP3    H261247   6.458   2.506  16.438 -0.8397  2.5370 -0.5361
13278TIP3   OH261248   5.003   2.285  17.118  0.5916  0.4012 -0.3148
13278TIP3    H161249   5.033   2.372  17.143  0.5320  0.0941  0.8512
13278TIP3    H261250   5.035   2.228  17.188 -0.7583 -0.2687 -0.2286
13279TIP3   OH261251   4.868   5.572   2.728  0.6392  0.6258 -0.4683
13279TIP3    H161252   4.853   5.625   2.807  2.2327  1.1715 -0.5157
13279TIP3    H261253   4.960   5.587   2.706  0.8656 -1.4795 -1.0163
13280TIP3   OH261254   1.075   1.678   1.471  0.4058  0.1406  0.2781
13280TIP3    H161255   1.101   1.665   1.380 -1.0915 -1.6626  0.0767
13280TIP3    H261256   0.980   1.664   1.471  0.0276  2.4608  1.7075
13281TIP3   OH261257   5.327   6.665  16.237 -0.1918 -0.7342 -0.6644
13281TIP3    H161258   5.234   6.680  16.221 -0.1963 -2.2154 -2.0790
13281TIP3    H261259   5.371   6.738  16.194 -0.6873  0.0667  0.1556
13282TIP3   OH261260   2.533   1.684   1.522  0.1101  0.5201  0.0778
13282TIP3    H161261   2.607   1.641   1.478 -1.7297 -1.7806 -0.8627
13282TIP3    H261262   2.469   1.699   1.453 -1.0206  0.9660  1.1942
13283TIP3   OH261263   1.749   3.174   0.185 -0.6449 -0.4602  0.1730
13283TIP3    H161264   1.662   3.168   0.147 -0.3265 -0.2048 -0.6274
13283TIP3    H261265   1.799   3.226   0.121 -0.7493  2.1641  2.1534
13284TIP3   OH261266   5.575   2.653  11.994  0.0820  0.4526  0.0807
13284TIP3    H161267   5.579   2.677  12.086 -1.4033 -1.1354  0.6029
13284TIP3    H261268   5.616   2.566  11.990  1.4452  1.1234 -1.0130
13285TIP3   OH261269   0.428   4.771   4.528 -1.5293 -0.1277  0.1267
13285TIP3    H161270   0.473   4.780   4.444 -0.8541 -0.0422  0.4939
13285TIP3    H261271   0.339   4.746   4.505 -0.9384 -1.6102 -0.5621
13286TIP3   OH261272   3.177   2.711  13.406  0.4954 -0.1333  0.0906
13286TIP3    H161273   3.200   2.758  13.326  0.6665  0.1776  0.3207
13286TIP3    H261274   3.258   2.669  13.434  0.3358 -0.5965 -0.1312
13287TIP3   OH261275   6.211   5.384  12.239 -0.0527  0.5756 -0.5966
13287TIP3    H161276   6.128   5.419  12.206 -0.3234  1.0293  0.5573
13287TIP3    H261277   6.187   5.306  12.288  0.0941  1.2682  0.5898
13288TIP3   OH261278   0.850   6.743  14.221  0.2588  0.3214 -0.3839
13288TIP3    H161279   0.822   6.710  14.135 -0.0855  0.0506 -0.1674
13288TIP3    H261280   0.771   6.782  14.259  0.1634 -0.4746  0.2417
13289TIP3   OH261281   1.317   5.505  12.512 -0.0692 -0.0897 -0.6050
13289TIP3    H161282   1.380   5.433  12.513  1.4355  1.2169 -0.1214
13289TIP3    H261283   1.263   5.490  12.589 -1.1671 -1.8953 -1.6832
13290TIP3   OH261284   0.373   2.535  13.400 -0.3179  0.3930  0.1125
13290TIP3    H161285   0.415   2.464  13.449 -0.7990  0.6435  0.9076
13290TIP3    H261286   0.437   2.605  13.401 -0.6744  0.7283  1.2141
13291TIP3   OH261287   0.037   4.601  15.174 -0.1608 -0.0712 -0.3322
13291TIP3    H161288   0.124   4.630  15.148  0.3287  0.3911  1.7844
13291TIP3    H261289  -0.002   4.677  15.216 -1.2599 -0.5558 -0.4570
13292TIP3   OH261290   5.070   1.071  14.774 -0.2605 -0.4265  0.0387
13292TIP3    H161291   5.152   1.032  14.744 -0.2724  0.3216 -0.9796
13292TIP3    H261292   5.055   1.145  14.715 -0.3486  1.0189  1.8113
13293TIP3   OH261293   1.043   5.086  15.653 -0.2134 -0.3445  0.4389
13293TIP3    H161294   1.118   5.075  15.596 -0.3728 -0.7521  0.3069
13293TIP3    H261295   1.021   5.179  15.647 -1.0719 -0.6401 -1.2219
13294TIP3   OH261296   1.713   1.627  13.259  0.1992 -0.0910 -0.2530
13294TIP3    H161297   1.714   1.722  13.266 -1.0108 -0.0671 -0.3643
13294TIP3    H261298   1.803   1.601  13.281  0.2376  0.9799  0.9478
13295TIP3   OH261299   6.155   0.479  16.110  0.4958  0.5189 -0.2019
13295TIP3    H161300   6.149   0.451  16.201 -0.3408 -1.4516 -0.8314
13295TIP3    H261301   6.249   0.491  16.094  0.5623  1.8536  1.1953
13296TIP3   OH261302   2.729   2.685   3.877 -0.4458 -0.5693  0.6775
13296TIP3    H161303   2.650   2.735   3.860  0.9595  0.9059 -1.9931
13296TIP3    H261304   2.701   2.593   3.877 -2.1883 -0.0443  0.0517
13297TIP3   OH261305   3.832   3.274   0.198 -0.4154 -0.6025 -0.0094
13297TIP3    H161306   3.841   3.327   0.119  0.4896 -0.5855  0.0910
13297TIP3    H261307   3.841   3.336   0.270  1.0088 -0.9205  0.1100
13298TIP3   OH261308   4.990   2.757   2.109 -0.1372  0.4495 -0.1218
13298TIP3    H161309   5.018   2.842   2.074  1.1733 -0.4350 -1.2619
13298TIP3    H261310   5.071   2.706   2.115 -0.9942 -0.9059  0.0346
13299TIP3   OH261311   5.758   3.102   2.677 -0.4384 -0.4028 -0.1454
13299TIP3    H161312   5.720   3.087   2.764 -2.5256 -0.6227 -1.0634
13299TIP3    H261313   5.759   3.197   2.667  0.3803 -0.3531  0.3530
13300TIP3   OH261314   1.778   5.487  14.781 -0.0790  0.1416 -0.7827
13300TIP3    H161315   1.842   5.467  14.849 -0.0525 -0.6634 -1.0337
13300TIP3    H261316   1.709   5.535  14.827  1.3655  2.2621 -0.7979
13301TIP3   OH261317   4.416   0.105   2.103 -0.0557 -0.0576  0.3256
13301TIP3    H161318   4.383   0.110   2.014 -1.5267  2.6575  0.9617
13301TIP3    H261319   4.367   0.033   2.143 -1.0404  0.1987 -0.4022
13302TIP3   OH261320   5.544   0.232   2.071 -0.2150 -0.4344 -0.5293
13302TIP3    H161321   5.552   0.243   2.166  0.2254 -0.2487 -0.5874
13302TIP3    H261322   5.630   0.200   2.043 -0.0470  0.4159 -0.9910
13303TIP3   OH261323   0.159   4.149   3.097 -0.4401 -0.2203  0.2490
13303TIP3    H161324   0.113   4.095   3.032  1.0382 -1.7315  0.4173
13303TIP3    H261325   0.109   4.230   3.101 -1.0169 -0.4184 -2.2097
13304TIP3   OH261326   3.242   6.777  15.711 -0.6490  0.3094 -0.1867
13304TIP3    H161327   3.181   6.730  15.653 -0.9070  1.2402 -0.6735
13304TIP3    H261328   3.230   6.735  15.796 -0.5646 -0.8036 -0.7077
13305TIP3   OH261329   1.144   3.665   3.527 -0.2646  0.1031  0.0104
13305TIP3    H161330   1.066   3.611   3.514  0.9010 -1.4962 -0.4227
13305TIP3    H261331   1.161   3.659   3.621 -0.0491 -0.4140 -0.0603
13306TIP3   OH261332   6.471   0.179  14.432 -0.7572  0.5514 -0.7235
13306TIP3    H161333   6.546   0.120  14.433  0.1626  1.6951 -0.3741
13306TIP3    H261334   6.432   0.170  14.519 -0.8720  0.1563 -0.8157
13307TIP3   OH261335   0.137   0.041   2.743  0.0825 -0.1141 -0.1729
13307TIP3    H161336   0.121   0.053   2.836  0.6355 -2.9052  0.3219
13307TIP3    H261337   0.064  -0.013   2.713  0.5437 -0.2388 -1.0968
13308TIP3   OH261338   1.248   2.371  16.555 -0.3145  0.5525  0.4625
13308TIP3    H161339   1.275   2.433  16.486 -0.2225  0.1439  0.1337
13308TIP3    H261340   1.273   2.414  16.636 -0.4150  1.0376  0.2397
13309TIP3   OH261341   6.234   5.020   3.548  0.4403 -0.3018  0.5563
13309TIP3    H161342   6.247   4.925   3.539  2.4655 -0.1523  1.6400
13309TIP3    H261343   6.302   5.058   3.493 -2.1361  0.5772 -2.1811
13310TIP3   OH261344   1.562   1.691   4.761  0.0374  0.3860 -0.2672
13310TIP3    H161345   1.516   1.774   4.751 -1.0629 -0.4824 -3.0584
13310TIP3    H261346   1.655   1.714   4.762 -0.2967  1.7596  0.6837
13311TIP3   OH261347   5.405   1.922   3.465  0.4290  0.2802  0.0430
13311TIP3    H161348   5.371   1.877   3.387  2.1730  0.5888 -0.9145
13311TIP3    H261349   5.444   2.002   3.431 -2.9065  2.7840  1.7655
13312TIP3   OH261350   6.150   3.243   3.436  0.0344  0.3178 -0.4203
13312TIP3    H161351   6.110   3.234   3.522  2.0843  0.8396  0.6004
13312TIP3    H261352   6.135   3.334   3.412 -0.5371  0.1719 -0.6432
13313TIP3   OH261353   3.422   2.332  11.817 -0.6609 -0.4488 -0.1922
13313TIP3    H161354   3.407   2.256  11.873  2.1159 -1.0818 -0.2260
13313TIP3    H261355   3.413   2.299  11.728  1.3926 -0.9945 -0.2307
13314TIP3   OH261356   1.289   4.105   0.183  0.0588 -0.3644 -0.3734
13314TIP3    H161357   1.346   4.150   0.245 -0.2584  0.9499 -1.0085
13314TIP3    H261358   1.280   4.016   0.218 -0.9072  0.6219  2.0233
13315TIP3   OH261359   4.611   3.344   5.567 -0.0628 -0.5801 -0.2352
13315TIP3    H161360   4.654   3.260   5.551 -1.0529 -1.3196  0.8947
13315TIP3    H261361   4.572   3.368   5.483 -0.0397 -1.4080 -0.4894
13316TIP3   OH261362   5.726   0.950   2.950  0.0202 -0.0272  0.5074
13316TIP3    H161363   5.755   1.041   2.947 -1.0602  0.2903 -1.2341
13316TIP3    H261364   5.704   0.930   2.859 -1.6310 -1.4182  1.2082
13317TIP3   OH261365   2.256   5.904  15.529  0.3026  0.2738  0.5291
13317TIP3    H161366   2.234   5.917  15.621  1.4371  1.1234  0.7016
13317TIP3    H261367   2.202   5.830  15.501 -0.1259  0.0734  1.8465
13318TIP3   OH261368   0.651   0.130   3.697  0.2666  0.0210  0.1477
13318TIP3    H161369   0.565   0.096   3.724 -0.1295  0.4695 -0.5566
13318TIP3    H261370   0.638   0.224   3.690  0.7600  0.0599 -0.2092
13319TIP3   OH261371   0.291   2.855  13.507 -0.7982  0.0422 -0.1063
13319TIP3    H161372   0.363   2.908  13.474 -0.6924  0.7361  1.1924
13319TIP3    H261373   0.280   2.786  13.443  0.7851  0.1476 -0.5016
13320TIP3   OH261374   3.417   2.324   4.432 -0.4177 -0.7978  0.3740
13320TIP3    H161375   3.411   2.406   4.480 -1.8647 -0.4372 -0.3977
13320TIP3    H261376   3.326   2.296   4.419 -0.0854 -0.8783 -2.1193
13321TIP3   OH261377   6.096   0.247   5.483 -0.1100 -0.0464 -0.1137
13321TIP3    H161378   6.082   0.170   5.429  0.8060  0.8974 -1.7455
13321TIP3    H261379   6.009   0.268   5.518 -0.2795 -2.0506  0.6892
13322TIP3   OH261380   4.680   5.233  13.450 -0.2404  0.3329  0.6619
13322TIP3    H161381   4.699   5.161  13.390  0.0968  1.4470 -0.6026
13322TIP3    H261382   4.710   5.202  13.535  0.8665 -0.6262 -0.0591
13323TIP3   OH261383   5.017   0.958  15.974  0.1446 -0.0904 -0.3949
13323TIP3    H161384   4.934   0.999  16.000 -0.1843 -0.2570 -1.1721
13323TIP3    H261385   5.077   0.977  16.046 -0.8521 -0.8475  0.6534
13324TIP3   OH261386   6.015   0.179  17.021 -0.2078  0.3256 -0.4750
13324TIP3    H161387   6.039   0.125  17.097 -2.2502  0.1160  0.0518
13324TIP3    H261388   5.981   0.260  17.060 -1.6771  0.0425 -1.1447
13325TIP3   OH261389   4.570   5.307  15.936  0.0965  0.1870 -0.2705
13325TIP3    H161390   4.503   5.376  15.934  0.5669  0.6249 -1.5427
13325TIP3    H261391   4.639   5.343  15.993  0.0607  0.5114 -0.4285
13326TIP3   OH261392   2.879   2.488  12.410 -0.4464 -0.1308  0.0590
13326TIP3    H161393   2.922   2.509  12.492 -0.8548  0.1789  0.1968
13326TIP3    H261394   2.827   2.409  12.429 -2.0746  1.0507  0.6368
13327TIP3   OH261395   1.733   0.315  15.717  0.4414  0.1954 -0.6184
13327TIP3    H161396   1.826   0.320  15.740  0.6992  1.3516 -1.8875
13327TIP3    H261397   1.700   0.405  15.729 -0.6817 -0.3397  0.4812
13328TIP3   OH261398   6.727   3.886  15.406  0.1736 -0.6597  0.4814
13328TIP3    H161399   6.644   3.924  15.435 -1.1652 -0.6357 -3.1390
13328TIP3    H261400   6.776   3.960  15.369  0.9576 -1.0559  0.7061
13329TIP3   OH261401   5.689   2.713  16.820  0.0542 -0.2246  0.8148
13329TIP3    H161402   5.733   2.693  16.903  0.3168 -2.7707  0.0933
13329TIP3    H261403   5.740   2.668  16.754 -0.6008  1.1803 -0.6724
13330TIP3   OH261404   0.791   3.498   4.470 -0.7165  0.2118  0.0342
13330TIP3    H161405   0.853   3.495   4.543  0.0688  2.1097 -0.5568
13330TIP3    H261406   0.836   3.453   4.398  0.4004  2.4897 -0.7078
13331TIP3   OH261407   2.416   3.069   6.302  0.4216 -0.2330  0.0779
13331TIP3    H161408   2.444   3.149   6.347 -0.8192  2.1921 -3.2605
13331TIP3    H261409   2.468   3.068   6.222 -1.6260 -1.2629 -1.2653
13332TIP3   OH261410   0.648   1.933  17.068 -0.0200  0.2092  0.1167
13332TIP3    H161411   0.697   1.897  17.143 -0.3104 -1.0787 -0.2985
13332TIP3    H261412   0.685   1.888  16.992  0.7782  2.0571 -0.6133
13333TIP3   OH261413   4.584   6.131  12.819 -0.2773  0.2585 -0.3865
13333TIP3    H161414   4.629   6.112  12.901  0.8456 -0.2113 -1.0914
13333TIP3    H261415   4.556   6.045  12.787 -0.0653  0.3596 -0.8491
13334TIP3   OH261416   3.347   6.734   1.626  0.3266 -0.2408 -1.0840
13334TIP3    H161417   3.315   6.801   1.566  0.8677  0.0247 -1.0757
13334TIP3    H261418   3.400   6.676   1.570  0.8178 -0.0021 -0.8675
13335TIP3   OH261419   4.998   1.329   5.648  0.4201  0.4710 -0.3561
13335TIP3    H161420   4.938   1.254   5.656  0.3426  0.6608  0.9156
13335TIP3    H261421   5.084   1.293   5.669  0.4132  0.6947  0.0573
13336TIP3   OH261422   5.797   5.902  12.583 -0.1772  0.3657  0.1016
13336TIP3    H161423   5.882   5.863  12.564 -0.7265 -0.5151 -0.5665
13336TIP3    H261424   5.733   5.840  12.549 -1.1532 -0.0616  2.5899
13337TIP3   OH261425   3.453   3.331   3.028 -0.3827 -0.6150  0.4366
13337TIP3    H161426   3.480   3.241   3.012  0.0053 -0.4364  0.0699
13337TIP3    H261427   3.500   3.383   2.963 -2.2339 -0.3821 -0.7621
13338TIP3   OH261428   3.457   5.104   0.220 -0.2859  0.3237  0.0744
13338TIP3    H161429   3.408   5.053   0.155 -0.4892  0.0598  0.4372
13338TIP3    H261430   3.414   5.189   0.220 -2.6419 -0.7753  2.4981
13339TIP3   OH261431   0.162   6.459   0.419 -0.0898 -0.7665 -0.6195
13339TIP3    H161432   0.101   6.512   0.368  0.8728 -0.4985 -1.5088
13339TIP3    H261433   0.219   6.523   0.461  1.4071 -1.1004 -2.1106
13340TIP3   OH261434   2.266   1.323  14.162  0.3043  0.0575 -0.0268
13340TIP3    H161435   2.331   1.358  14.102  0.7434 -1.2801 -0.3555
13340TIP3    H261436   2.190   1.380  14.153  1.1299  1.1204 -0.2701
13341TIP3   OH261437   4.260   5.343   1.125 -0.3905  0.1123  0.3677
13341TIP3    H161438   4.286   5.255   1.150  0.9837  0.1160 -0.9433
13341TIP3    H261439   4.245   5.338   1.031 -0.6079  1.1932  0.3382
13342TIP3   OH261440   5.781   4.105   4.853 -0.0164  0.0660  0.3329
13342TIP3    H161441   5.790   4.078   4.762  0.0631 -2.8804  1.1582
13342TIP3    H261442   5.727   4.183   4.849 -0.6361 -0.4348 -2.2000
13343TIP3   OH261443   6.410   2.570  13.004 -0.2240  0.8564  0.4122
13343TIP3    H161444   6.502   2.589  12.987  0.7786 -3.0225  0.8368
13343TIP3    H261445   6.362   2.620  12.938  2.2963  1.7079 -0.8478
13344TIP3   OH261446   1.659   0.826   2.786 -0.1608 -0.1888  0.3331
13344TIP3    H161447   1.615   0.806   2.868  0.0180  2.3538  1.1014
13344TIP3    H261448   1.639   0.918   2.770  0.7320 -0.3452 -1.8968
13345TIP3   OH261449   2.658   0.417  11.058 -0.3128 -0.4793 -0.4698
13345TIP3    H161450   2.635   0.450  11.145 -0.3925  0.9859 -1.0517
13345TIP3    H261451   2.752   0.402  11.062  0.4862  3.8063 -1.5014
13346TIP3   OH261452   2.655   4.303   1.598 -0.5740 -0.9951  0.5505
13346TIP3    H161453   2.594   4.368   1.562 -0.7538 -0.2253  2.2409
13346TIP3    H261454   2.668   4.241   1.526  1.9369  2.4828 -2.1835
13347TIP3   OH261455   1.959   0.262  14.158 -0.2012 -0.9155 -0.2790
13347TIP3    H161456   1.970   0.167  14.164  0.0518 -0.8930 -0.3653
13347TIP3    H261457   1.957   0.292  14.249 -1.0844 -1.0921 -0.2451
13348TIP3   OH261458   5.191   0.339  12.214  0.1265 -0.5078 -0.2739
13348TIP3    H161459   5.239   0.418  12.241 -1.7274  1.6501 -3.0165
13348TIP3    H261460   5.252   0.292  12.157  0.0865  0.6489 -1.2863
13349TIP3   OH261461   4.035   6.264   5.732 -0.2351  0.2736  0.3940
13349TIP3    H161462   3.944   6.281   5.757 -0.3820  1.8848 -1.1913
13349TIP3    H261463   4.065   6.345   5.691  1.3426 -0.8766 -0.7943
13350TIP3   OH261464   2.235   2.575  14.567  0.5170 -0.0145 -0.2123
13350TIP3    H161465   2.304   2.638  14.587  0.0430  0.8083 -1.1242
13350TIP3    H261466   2.274   2.490  14.586  0.6381  0.6106  2.5353
13351TIP3   OH261467   2.838   6.129  15.617  0.1690  0.3712 -0.0807
13351TIP3    H161468   2.839   6.037  15.589  0.2384 -0.0656  1.2976
13351TIP3    H261469   2.747   6.156  15.609  0.3134  0.4834 -1.4217
13352TIP3   OH261470   1.343   5.365   4.344 -0.3833  0.3881  0.0713
13352TIP3    H161471   1.288   5.312   4.286  0.2271 -0.3057  0.1198
13352TIP3    H261472   1.429   5.324   4.339  0.6880  2.7227 -1.6596
13353TIP3   OH261473   6.538   1.812   5.789  0.7585  0.4701 -0.2403
13353TIP3    H161474   6.557   1.795   5.696  1.1056 -1.1608  0.1206
13353TIP3    H261475   6.448   1.780   5.800  0.9561  0.0482  0.1404
13354TIP3   OH261476   2.672   5.682  16.940 -0.6215  0.4851 -0.4837
13354TIP3    H161477   2.753   5.705  16.894 -0.2517 -2.4322 -1.3368
13354TIP3    H261478   2.604   5.727  16.890  0.0679 -0.3823 -2.2577
13355TIP3   OH261479   5.599   5.904  13.600 -0.1601  0.0212  1.0384
13355TIP3    H161480   5.634   5.835  13.544  0.5899  0.4457  0.9728
13355TIP3    H261481   5.514   5.872  13.628 -0.6997 -0.0652 -0.6200
13356TIP3   OH261482   6.664   3.138  12.936 -0.0158 -0.3621 -0.3830
13356TIP3    H161483   6.736   3.081  12.908  0.6883 -1.4886  3.4692
13356TIP3    H261484   6.703   3.226  12.940  0.4188 -0.5312 -0.8098
13357TIP3   OH261485   5.038   3.427   6.103 -0.1868  0.8022 -0.4247
13357TIP3    H161486   5.021   3.353   6.044 -1.1037  0.4538  0.2559
13357TIP3    H261487   5.133   3.435   6.105 -0.0563 -0.6271 -0.1964
13358TIP3   OH261488   6.528   4.475  13.208  0.1170 -0.3072  0.9195
13358TIP3    H161489   6.516   4.528  13.287 -2.3627  0.3946  0.1136
13358TIP3    H261490   6.521   4.538  13.136  0.6819 -1.2032  0.0653
13359TIP3   OH261491   5.104   1.005  11.026  0.4949 -0.0791 -0.2472
13359TIP3    H161492   5.133   0.992  10.935 -0.2558 -2.4865 -0.1909
13359TIP3    H261493   5.177   1.049  11.069  0.6912  1.5049 -2.1187
13360TIP3   OH261494   6.525   4.573   0.665 -0.1670 -0.2289  0.4116
13360TIP3    H161495   6.536   4.549   0.573  1.5043  0.7990  0.3146
13360TIP3    H261496   6.528   4.490   0.712 -1.0668 -0.7688 -0.4458
13361TIP3   OH261497   4.145   3.435  11.218 -0.3696 -0.9565 -0.2589
13361TIP3    H161498   4.114   3.485  11.142 -1.7668 -0.1331  0.8388
13361TIP3    H261499   4.073   3.375  11.238 -0.8588  0.1962  1.6119
13362TIP3   OH261500   2.336   3.758   2.240  0.4616 -0.0393  0.2918
13362TIP3    H161501   2.339   3.853   2.229  3.4492 -0.2008 -0.6564
13362TIP3    H261502   2.389   3.741   2.318  0.7700 -1.0104 -0.1286
13363TIP3   OH261503   0.964   2.477  14.002 -0.4807  0.4437 -0.4825
13363TIP3    H161504   1.011   2.412  14.055 -0.8323  0.4415 -0.1708
13363TIP3    H261505   1.029   2.509  13.940  0.1203  0.9073  0.3705
13364TIP3   OH261506   6.058   6.304   6.066  0.4834  0.2648 -0.0257
13364TIP3    H161507   6.012   6.386   6.083  0.2241  0.4483 -1.5171
13364TIP3    H261508   6.093   6.278   6.151  0.0303  1.5928  0.5841
13365TIP3   OH261509   0.495   2.331   2.109 -0.2909 -0.2577  0.6346
13365TIP3    H161510   0.543   2.411   2.130  0.6104 -0.7343  0.4222
13365TIP3    H261511   0.414   2.337   2.159 -1.2019  1.8044 -1.0316
13366TIP3   OH261512   5.399   2.593   3.741 -0.3288 -0.4470 -0.5249
13366TIP3    H161513   5.356   2.546   3.812  0.9447 -2.5123 -1.0766
13366TIP3    H261514   5.358   2.560   3.661 -0.2984  0.3162 -0.8633
13367TIP3   OH261515   6.273   4.734   3.519 -0.2299  1.1208  0.0296
13367TIP3    H161516   6.295   4.648   3.485  2.0224  0.7578  2.2272
13367TIP3    H261517   6.194   4.721   3.571 -0.2972  0.5375 -0.2230
13368TIP3   OH261518   1.054   0.075   4.870 -0.5991 -0.0662  0.9687
13368TIP3    H161519   1.134   0.078   4.922  0.0316  2.2847 -0.0779
13368TIP3    H261520   1.052  -0.014   4.834  0.3591 -0.8442  2.7724
13369TIP3   OH261521   2.695   1.780  16.214  0.0341  0.3916  0.2830
13369TIP3    H161522   2.776   1.747  16.252  0.3235  0.2099 -0.4742
13369TIP3    H261523   2.700   1.875  16.226  0.1804  0.3455  0.5850
13370TIP3   OH261524   0.519   2.029  14.953 -0.1388 -0.2198  0.1309
13370TIP3    H161525   0.444   1.981  14.989 -0.5404  2.3516  2.9235
13370TIP3    H261526   0.585   1.962  14.936 -1.4482 -2.0074  1.8681
13371TIP3   OH261527   3.960   0.087   2.481  0.1983  0.9224 -0.0730
13371TIP3    H161528   3.907   0.008   2.487  0.9359  0.1431 -2.8039
13371TIP3    H261529   3.988   0.089   2.389  0.8678  3.9127  0.1564
13372TIP3   OH261530   1.569   4.293  17.188  0.0556 -0.3313 -0.0836
13372TIP3    H161531   1.584   4.384  17.213  0.2091 -0.7575  1.4374
13372TIP3    H261532   1.478   4.290  17.160 -0.7303 -0.1974  2.2895
13373TIP3   OH261533   2.268   1.152   3.532  0.1414  0.0837  0.4129
13373TIP3    H161534   2.318   1.095   3.590  0.3468 -1.2665 -1.0580
13373TIP3    H261535   2.328   1.174   3.461 -0.9816 -0.5897 -0.7576
13374TIP3   OH261536   4.478   5.539   0.051  1.0815  0.2898 -0.3564
13374TIP3    H161537   4.462   5.612  -0.009 -1.2695  1.3764  1.5227
13374TIP3    H261538   4.455   5.573   0.137  1.3443 -2.2285  0.7474
13375TIP3   OH261539   4.906   2.168  13.802 -0.4473 -0.5385  0.7228
13375TIP3    H161540   4.911   2.093  13.742  0.0044 -0.6542  0.9020
13375TIP3    H261541   4.947   2.137  13.883  0.5395  0.1772  0.5135
13376TIP3   OH261542   0.015   0.627   2.489  0.4049  0.1721 -0.4586
13376TIP3    H161543   0.083   0.651   2.426  1.5113 -1.1552  0.2052
13376TIP3    H261544   0.063   0.603   2.568 -0.9199  0.8097  0.5637
13377TIP3   OH261545   0.717   3.124  12.538  0.2159  0.0057 -0.3371
13377TIP3    H161546   0.680   3.075  12.464  1.2854  0.1258 -0.9615
13377TIP3    H261547   0.718   3.215  12.508  0.0212  0.1481  0.0869
13378TIP3   OH261548   4.618   5.472  11.514 -0.2066  0.5085 -0.2645
13378TIP3    H161549   4.551   5.435  11.571 -0.9931  1.8426 -0.3224
13378TIP3    H261550   4.668   5.531  11.570  2.2736 -2.0309  0.3133
13379TIP3   OH261551   1.999   3.887  14.238  0.4172  0.0306  0.4896
13379TIP3    H161552   1.999   3.977  14.205 -0.1963  0.3302  1.2839
13379TIP3    H261553   2.032   3.895  14.327 -1.6852 -0.2325  1.3192
13380TIP3   OH261554   3.008   0.203  10.963  0.2155 -0.0542 -0.2479
13380TIP3    H161555   3.074   0.153  11.010  0.3930 -0.6256 -1.0839
13380TIP3    H261556   2.992   0.153  10.883  1.1317  1.7059 -1.5890
13381TIP3   OH261557   2.035   6.129  13.811  0.0245  0.0949 -0.1176
13381TIP3    H161558   2.105   6.084  13.763  0.4743  0.4532  0.2022
13381TIP3    H261559   1.989   6.059  13.857 -1.5349 -0.5049 -2.4606
13382TIP3   OH261560   6.692   1.777  12.257 -0.0351  0.1380 -0.3013
13382TIP3    H161561   6.712   1.868  12.278 -0.8019  0.9390 -2.8379
13382TIP3    H261562   6.722   1.766  12.167  1.3621 -2.5624  0.4559
13383TIP3   OH261563   6.407   0.086  11.329 -0.5342 -0.0711 -0.5564
13383TIP3    H161564   6.425   0.176  11.303  1.1280 -0.2492 -0.0580
13383TIP3    H261565   6.405   0.089  11.425  1.6421 -0.9534 -0.4769
13384TIP3   OH261566   1.920   5.788   3.613 -0.1251  0.0296 -0.1309
13384TIP3    H161567   1.988   5.846   3.647  1.2644 -0.4399 -2.0545
13384TIP3    H261568   1.841   5.813   3.662  1.2972  0.9279  1.7464
13385TIP3   OH261569   0.555   4.930   4.715 -0.9327 -0.0491  0.6736
13385TIP3    H161570   0.524   4.875   4.642  1.8483 -1.6020  0.6297
13385TIP3    H261571   0.477   4.943   4.769 -3.0203  0.8910 -2.3660
13386TIP3   OH261572   3.912   0.157   0.985  0.0030 -0.0886  0.1249
13386TIP3    H161573   3.817   0.163   0.980  0.1222  1.7362 -0.3214
13386TIP3    H261574   3.932   0.069   0.953 -1.5142 -0.4021  0.0126
13387TIP3   OH261575   1.238   4.352  11.487 -0.1844 -0.1817  0.4207
13387TIP3    H161576   1.263   4.379  11.398  2.3945  1.1566  1.4978
13387TIP3    H261577   1.182   4.275  11.474 -3.1403  2.3149 -2.5138
13388TIP3   OH261578   0.956   6.787  16.995  0.0446  0.3522  0.5381
13388TIP3    H161579   0.993   6.873  16.973 -1.0219  0.6251 -0.2307
13388TIP3    H261580   0.913   6.799  17.079 -0.2241  0.6048  0.3638
13389TIP3   OH261581   5.673   3.839   5.205 -0.4790 -0.1417  0.1502
13389TIP3    H161582   5.669   3.931   5.176  2.1529  0.1628  0.6397
13389TIP3    H261583   5.751   3.835   5.260  0.4014 -3.0488 -1.2260
13390TIP3   OH261584   6.625   4.767   4.032  0.0676 -0.2182  0.0879
13390TIP3    H161585   6.538   4.796   4.059 -1.3188 -0.1451 -4.0930
13390TIP3    H261586   6.609   4.690   3.978  2.7453 -0.9949  0.3012
13391TIP3   OH261587   1.064   5.682   3.666 -0.0457  0.0346 -0.6572
13391TIP3    H161588   1.146   5.731   3.665 -0.0649  0.0662 -0.7283
13391TIP3    H261589   1.000   5.742   3.705  0.1963 -0.3681  0.3522
13392TIP3   OH261590   0.704   0.964   1.506 -0.1882  0.7266 -0.6078
13392TIP3    H161591   0.633   0.958   1.569  0.3166  2.2960  0.1536
13392TIP3    H261592   0.738   1.053   1.518 -0.2583  1.1330 -3.2866
13393TIP3   OH261593   5.312   2.062  13.636 -0.1811 -0.2164 -0.2196
13393TIP3    H161594   5.323   1.967  13.644  0.5824 -0.1770 -0.7111
13393TIP3    H261595   5.400   2.094  13.617 -0.6005  0.4919 -0.9913
13394TIP3   OH261596   4.227   0.740   2.460  0.5695 -0.4220  0.6979
13394TIP3    H161597   4.173   0.819   2.461  0.5616 -0.4115  0.0642
13394TIP3    H261598   4.190   0.684   2.528 -1.0450 -0.9360 -0.5594
13395TIP3   OH261599   0.708   4.112   0.208  0.3471 -0.6486  0.0784
13395TIP3    H161600   0.645   4.105   0.137 -0.0752 -2.3938  0.6077
13395TIP3    H261601   0.674   4.054   0.276  1.4972 -0.0986  1.1388
13396TIP3   OH261602   4.969   0.480   2.596  0.0324 -0.3292 -0.7941
13396TIP3    H161603   4.893   0.534   2.573  0.2984 -0.0538 -1.0390
13396TIP3    H261604   5.005   0.521   2.675 -1.0321 -1.4263  0.2806
13397TIP3   OH261605   4.833   3.260  15.073  0.1813  0.0748  0.1863
13397TIP3    H161606   4.828   3.171  15.040 -0.0198  0.0108  0.3936
13397TIP3    H261607   4.743   3.293  15.068  0.2007  0.1601  0.4048
13398TIP3   OH261608   6.113   5.419  14.867  0.3330 -0.0683  0.3532
13398TIP3    H161609   6.042   5.369  14.827  0.9226 -1.3929  0.9307
13398TIP3    H261610   6.094   5.416  14.961  0.1697  1.1319  0.3731
13399TIP3   OH261611   1.683   5.047  15.867  0.7186 -0.2127 -0.8250
13399TIP3    H161612   1.666   5.003  15.951 -0.8239 -1.1830 -1.6082
13399TIP3    H261613   1.607   5.024  15.813  0.4714  2.4474 -1.6793
13400TIP3   OH261614   0.327   3.288   2.695  0.2071 -0.5427  0.5310
13400TIP3    H161615   0.422   3.291   2.695  0.2315 -0.2707 -1.9974
13400TIP3    H261616   0.305   3.214   2.638 -1.0978  0.2446 -0.0187
13401TIP3   OH261617   1.916   4.252  16.847 -0.6565 -0.3871 -0.1028
13401TIP3    H161618   1.933   4.212  16.932  0.2230 -0.8648 -0.5021
13401TIP3    H261619   1.840   4.203  16.813 -1.3426  0.1584  0.6341
13402TIP3   OH261620   4.307   1.053   0.241  0.0150  0.8339 -1.1605
13402TIP3    H161621   4.387   1.056   0.294  0.8393 -0.4820 -2.2864
13402TIP3    H261622   4.310   1.133   0.190 -0.4740  1.8177  0.3265
13403TIP3   OH261623   4.768   1.552   0.057  0.3507 -0.2566  0.3666
13403TIP3    H161624   4.804   1.466   0.077  0.5987 -0.4011 -0.6396
13403TIP3    H261625   4.673   1.540   0.064  0.4387 -0.2798  1.4806
13404TIP3   OH261626   2.833   6.334   3.142  0.5699 -0.1834 -0.3133
13404TIP3    H161627   2.889   6.400   3.182  1.3500 -1.0281  0.0023
13404TIP3    H261628   2.846   6.344   3.048 -2.8110  3.1757 -0.5441
13405TIP3   OH261629   4.185   5.195   5.239  0.5427  0.0186  0.1989
13405TIP3    H161630   4.250   5.212   5.170  1.0203  1.1766  0.9145
13405TIP3    H261631   4.192   5.270   5.298 -0.4038 -0.5808  1.1045
13406TIP3   OH261632   2.192   3.717  16.737 -0.0322  0.2807 -0.3340
13406TIP3    H161633   2.110   3.749  16.774 -0.9717 -0.7834 -1.4540
13406TIP3    H261634   2.211   3.777  16.664  1.7882  2.3418  1.7589
13407TIP3   OH261635   5.885   2.701   0.189  0.2220 -0.0517 -0.0069
13407TIP3    H161636   5.876   2.611   0.158 -0.4443 -0.5400  1.5519
13407TIP3    H261637   5.795   2.731   0.202  0.3633  1.5716 -2.5171
13408TIP3   OH261638   0.721   5.776   3.528 -0.6190  0.0398  0.1045
13408TIP3    H161639   0.729   5.680   3.522  0.1364  0.0191  1.3216
13408TIP3    H261640   0.811   5.807   3.535 -0.8615  0.8592 -0.3969
13409TIP3   OH261641   1.724   4.971  15.454  0.2290 -0.0220  0.3917
13409TIP3    H161642   1.755   4.900  15.508  0.8180  0.4304  0.6492
13409TIP3    H261643   1.802   5.021  15.431 -0.2239  0.7880  0.5727
13410TIP3   OH261644   2.504   0.458   0.800  0.2840  0.0189  0.3675
13410TIP3    H161645   2.443   0.503   0.858  0.5723  0.5615  0.2454
13410TIP3    H261646   2.545   0.527   0.748  0.3969 -0.4186 -0.1322
13411TIP3   OH261647   4.318   1.198  11.546  0.0671  0.1048  0.1015
13411TIP3    H161648   4.265   1.144  11.487  2.3517 -1.2053 -0.8309
13411TIP3    H261649   4.350   1.270  11.491 -0.5837  0.7997  0.6188
13412TIP3   OH261650   0.379   6.502   4.796 -0.1561  0.0117 -0.3979
13412TIP3    H161651   0.415   6.581   4.755  0.2748 -0.3139 -0.6454
13412TIP3    H261652   0.311   6.535   4.855 -0.4070  0.5188 -0.9673
13413TIP3   OH261653   0.174   1.630   0.497 -0.1291 -0.1170 -0.1213
13413TIP3    H161654   0.228   1.679   0.436  1.8941 -0.1138  1.6335
13413TIP3    H261655   0.146   1.553   0.448 -1.0152  1.3489 -1.9920
13414TIP3   OH261656   4.705   5.544   1.852 -0.9419  0.0110 -0.1758
13414TIP3    H161657   4.780   5.486   1.842 -0.1138  1.2875 -1.4863
13414TIP3    H261658   4.692   5.549   1.947  0.3403 -0.5757  0.0430
13415TIP3   OH261659   4.037   2.187   3.078  1.0419  0.5626 -0.2846
13415TIP3    H161660   4.068   2.246   3.147  1.3836  0.2226 -0.1446
13415TIP3    H261661   4.117   2.147   3.043  0.7715 -0.3084  0.0650
13416TIP3   OH261662   0.541   5.688   4.344  0.0215 -0.0777  0.5696
13416TIP3    H161663   0.565   5.759   4.285  0.5612 -1.1528 -0.5014
13416TIP3    H261664   0.446   5.680   4.333  0.1805 -0.5735 -0.4876
13417TIP3   OH261665   0.496   5.001   0.203  0.3869 -0.3288  0.0500
13417TIP3    H161666   0.578   5.027   0.246  0.2855  1.6257 -0.8830
13417TIP3    H261667   0.465   5.081   0.160 -2.2603 -0.9138  0.7593
13418TIP3   OH261668   5.002   0.722  12.137  0.7756 -0.7971  0.2047
13418TIP3    H161669   5.073   0.689  12.191 -0.8133  0.6291  3.2954
13418TIP3    H261670   5.020   0.815  12.127 -0.1923 -0.6021  0.2258
13419TIP3   OH261671   1.946   5.246  10.803 -1.0019 -0.1035  0.0959
13419TIP3    H161672   1.964   5.157  10.772 -0.2862  0.1533 -0.2432
13419TIP3    H261673   1.992   5.252  10.887 -0.4183  0.1879 -0.2385
13420TIP3   OH261674   2.574   4.322  13.500 -0.3480 -0.1774 -0.5426
13420TIP3    H161675   2.486   4.360  13.491 -0.6048 -0.5564  0.3605
13420TIP3    H261676   2.608   4.359  13.581 -0.9401 -2.4982  0.8171
13421TIP3   OH261677   5.334   5.795   4.644  0.2241  0.5137 -0.3356
13421TIP3    H161678   5.239   5.807   4.645  0.0585 -0.6965 -1.1899
13421TIP3    H261679   5.368   5.872   4.690 -1.2842 -0.1893  2.0101
13422TIP3   OH261680   0.837   0.500   2.583  0.0317  0.1838 -1.0145
13422TIP3    H161681   0.747   0.531   2.573 -0.2423 -0.2211  0.0371
13422TIP3    H261682   0.879   0.518   2.499 -0.4931  2.1390 -0.8786
13423TIP3   OH261683   0.131   1.559   0.088  0.2317 -1.0315  0.2206
13423TIP3    H161684   0.222   1.583   0.105  0.3987 -1.3714 -0.1800
13423TIP3    H261685   0.086   1.643   0.076  0.2473 -0.8090  1.5956
13424TIP3   OH261686   5.997   3.746   4.977 -0.0495  0.3257  0.0688
13424TIP3    H161687   6.047   3.706   5.047  0.1007  2.1358  1.0180
13424TIP3    H261688   5.905   3.727   4.999  0.0309  0.3420  0.4199
13425TIP3   OH261689   0.973   1.132   4.109  0.7598  0.6085  0.2507
13425TIP3    H161690   1.051   1.185   4.125  0.4518  1.3097 -0.5599
13425TIP3    H261691   0.952   1.145   4.017 -0.5580  0.7627  0.5565
13426TIP3   OH261692   3.407   3.017  13.887  0.4371  0.3754 -0.0839
13426TIP3    H161693   3.414   3.112  13.877 -1.3234  0.5519  0.3192
13426TIP3    H261694   3.484   2.983  13.841  0.6226  1.9469 -0.9841
13427TIP3   OH261695   0.398   2.527   5.442  0.8375  0.2347 -0.4630
13427TIP3    H161696   0.427   2.491   5.526  0.4969  0.6236 -0.1806
13427TIP3    H261697   0.371   2.450   5.392  0.8343  0.0199 -0.1362
13428TIP3   OH261698   1.248   6.501  14.841 -0.0214 -0.3797 -0.1543
13428TIP3    H161699   1.249   6.510  14.746 -0.2345 -1.4664 -0.2683
13428TIP3    H261700   1.269   6.409  14.857  0.5533 -0.0856  0.8732
13429TIP3   OH261701   4.965   2.656   4.838 -0.2697 -0.3522  0.2997
13429TIP3    H161702   5.020   2.625   4.910 -0.0296 -1.1863 -0.2396
13429TIP3    H261703   4.992   2.746   4.823  0.9456 -0.7560  0.0413
13430TIP3   OH261704   5.120   5.081   5.542  0.3987  0.1250 -0.1710
13430TIP3    H161705   5.133   5.021   5.616  0.5856 -0.6430 -0.8259
13430TIP3    H261706   5.128   5.026   5.464 -0.2029  0.8607 -0.7588
13431TIP3   OH261707   1.628   3.028  16.476  0.1705 -0.0058 -0.4899
13431TIP3    H161708   1.582   3.053  16.556 -1.4169 -0.2542 -1.3071
13431TIP3    H261709   1.678   3.106  16.451 -1.2216  0.8709 -0.5727
13432TIP3   OH261710   1.616   3.775   2.241 -0.0634  0.8210 -0.0455
13432TIP3    H161711   1.588   3.763   2.332 -2.2845  0.5865 -0.7510
13432TIP3    H261712   1.604   3.869   2.225  1.5553  1.1039  0.2778
13433TIP3   OH261713   0.424   3.988   3.919 -0.5391 -0.3586 -0.2828
13433TIP3    H161714   0.404   3.924   3.988  0.5183 -3.3735 -2.6328
13433TIP3    H261715   0.520   3.987   3.914 -0.5289  1.2685 -0.5151
13434TIP3   OH261716   1.683   0.520   0.041  0.1258  0.6286 -0.4245
13434TIP3    H161717   1.755   0.583   0.035 -0.9813  2.0996  1.3620
13434TIP3    H261718   1.726   0.436   0.056  1.5343  1.2346 -0.9866
13435TIP3   OH261719   3.240   2.686  15.140 -0.1123  0.2419  0.0024
13435TIP3    H161720   3.145   2.675  15.139 -0.1608  0.7144 -1.0107
13435TIP3    H261721   3.270   2.642  15.060  0.3552  1.4646 -0.5123
13436TIP3   OH261722   6.107   4.998   3.780 -0.0504  0.4933  0.4545
13436TIP3    H161723   6.118   4.989   3.685  1.8579 -0.3695  0.7304
13436TIP3    H261724   6.172   5.063   3.805 -0.6639  0.8401  1.1673
13437TIP3   OH261725   6.022   5.382  11.637 -0.0390  0.0328 -0.2493
13437TIP3    H161726   5.938   5.362  11.680  0.0932  0.3675  0.1635
13437TIP3    H261727   6.001   5.383  11.543 -0.3881 -0.4037 -0.1783
13438TIP3   OH261728   1.342   0.787   4.972  1.0702 -0.2779  0.1369
13438TIP3    H161729   1.281   0.826   5.035  0.9686 -1.2514  0.6517
13438TIP3    H261730   1.422   0.838   4.982  0.5541  0.5809 -0.0650
13439TIP3   OH261731   4.071   6.163  15.583  0.1742 -0.5254 -0.1410
13439TIP3    H161732   4.120   6.091  15.623  1.3138 -0.7835 -1.9179
13439TIP3    H261733   4.045   6.130  15.497 -0.6323  0.6415 -0.3569
13440TIP3   OH261734   1.178   5.751  11.156  0.0299 -0.2907 -0.5921
13440TIP3    H161735   1.244   5.805  11.112  0.1624 -0.1562 -0.2227
13440TIP3    H261736   1.110   5.812  11.183 -0.0966 -0.3879 -0.6913
13441TIP3   OH261737   0.204   5.567  14.387 -0.1034 -0.1935  0.2270
13441TIP3    H161738   0.167   5.652  14.362  1.1100 -0.1768 -1.6179
13441TIP3    H261739   0.268   5.587  14.455  0.3471  0.4159 -0.3698
13442TIP3   OH261740   2.195   6.641  15.537 -0.4459 -0.4183  0.0512
13442TIP3    H161741   2.172   6.675  15.451 -0.9414 -0.6325  0.0959
13442TIP3    H261742   2.202   6.546  15.524 -3.3659 -0.8194  0.8320
13443TIP3   OH261743   3.376   1.789   6.261 -0.4855 -0.9266 -0.1107
13443TIP3    H161744   3.466   1.812   6.236 -0.7026 -0.3315 -0.3551
13443TIP3    H261745   3.347   1.863   6.315 -0.6911 -1.3032  0.2915
13444TIP3   OH261746   0.486   3.708   4.793 -0.1250  0.2411  0.2064
13444TIP3    H161747   0.409   3.754   4.760 -0.7537 -1.3298 -0.5946
13444TIP3    H261748   0.539   3.691   4.715 -1.9237 -4.0713 -0.2144
13445TIP3   OH261749   0.466   3.542  11.623 -0.6072 -0.3246 -0.1534
13445TIP3    H161750   0.481   3.573  11.712 -0.9694  0.8186 -0.4917
13445TIP3    H261751   0.391   3.483  11.631 -0.6043 -0.2698  0.3009
13446TIP3   OH261752   2.460   2.877  16.699 -0.2265 -0.4040 -0.2766
13446TIP3    H161753   2.388   2.880  16.762  1.7771 -0.4930  2.0878
13446TIP3    H261754   2.421   2.906  16.616 -2.8654 -0.0792  1.0344
13447TIP3   OH261755   5.157   1.419   0.692  0.1207 -0.3915  0.1010
13447TIP3    H161756   5.207   1.490   0.732  0.7301 -0.4086 -0.6099
13447TIP3    H261757   5.074   1.417   0.740  0.8486 -0.4352  1.3618
13448TIP3   OH261758   2.193   6.745  14.054  0.1052  0.0034 -0.4028
13448TIP3    H161759   2.239   6.674  14.008  0.7142  0.5940 -0.7179
13448TIP3    H261760   2.262   6.808  14.074 -0.5239  0.7643 -0.6073
13449TIP3   OH261761   6.592   1.757  16.360 -0.4590 -0.2283  0.0488
13449TIP3    H161762   6.599   1.844  16.319 -0.3672 -0.9995 -1.6417
13449TIP3    H261763   6.549   1.773  16.444 -0.8728  1.3949 -0.4473
13450TIP3   OH261764   6.768   6.333  14.887  0.3776 -0.1951  0.1843
13450TIP3    H161765   6.793   6.273  14.958 -1.1860 -0.9058  0.1381
13450TIP3    H261766   6.701   6.389  14.926  0.1280 -0.0277 -0.4957
13451TIP3   OH261767   0.447   6.311   0.101 -0.2969  0.3520 -0.7250
13451TIP3    H161768   0.508   6.238   0.098  0.2481  0.6985  1.0364
13451TIP3    H261769   0.490   6.376   0.158 -2.1136  0.7598  0.2337
13452TIP3   OH261770   1.858   3.269   2.572 -0.0993 -0.5970 -0.4063
13452TIP3    H161771   1.893   3.358   2.559  0.8925 -0.5510  2.3274
13452TIP3    H261772   1.764   3.279   2.556 -0.2332  1.2992  1.3075
13453TIP3   OH261773   2.816   6.606  11.831 -0.3563 -0.1494  0.3445
13453TIP3    H161774   2.818   6.513  11.855  0.4707 -0.3040 -0.2917
13453TIP3    H261775   2.730   6.618  11.790  0.2655 -1.0781 -1.2724
13454TIP3   OH261776   6.201   1.935  13.146  0.4257  0.0024  0.0834
13454TIP3    H161777   6.293   1.909  13.145  0.6799  0.7050  1.8363
13454TIP3    H261778   6.186   1.967  13.236 -0.4567  3.5603 -1.2119
13455TIP3   OH261779   0.499   1.795   4.526  0.3445 -0.0618  0.0993
13455TIP3    H161780   0.478   1.869   4.469  2.7992  0.0797 -0.6490
13455TIP3    H261781   0.414   1.755   4.545 -0.7132  1.1051 -1.9984
13456TIP3   OH261782   4.249   1.886   5.663  0.0197 -0.2525  0.7910
13456TIP3    H161783   4.342   1.882   5.642  0.0421 -0.4146  0.9250
13456TIP3    H261784   4.232   1.980   5.676  0.1770 -0.2290  0.8290
13457TIP3   OH261785   0.741   1.515   0.117  0.0165 -0.3096  0.1290
13457TIP3    H161786   0.736   1.480   0.028 -0.0576  2.3667 -0.9870
13457TIP3    H261787   0.666   1.575   0.123  0.0288 -0.4511  2.0111
13458TIP3   OH261788   1.665   2.165  16.173  0.1867  0.0081  0.3609
13458TIP3    H161789   1.674   2.259  16.158 -0.2585  0.1056  0.6993
13458TIP3    H261790   1.755   2.135  16.189  0.3749  0.3103 -0.1197
13459TIP3   OH261791   5.693   5.833  10.890 -0.6904 -0.1672  0.3474
13459TIP3    H161792   5.629   5.832  10.819  0.6616  1.0549 -0.9278
13459TIP3    H261793   5.770   5.788  10.855  0.0220  0.5187  0.9866
13460TIP3   OH261794   6.602   5.658   1.520  0.5461 -0.2647  0.2994
13460TIP3    H161795   6.507   5.652   1.533  0.3459  1.8937  0.0694
13460TIP3    H261796   6.611   5.704   1.437  1.8127 -0.4839  0.3092
13461TIP3   OH261797   6.522   5.917  14.472  0.3605  0.0577 -0.9356
13461TIP3    H161798   6.450   5.927  14.534  0.5203  2.7920 -1.1374
13461TIP3    H261799   6.500   5.838  14.422 -0.2867 -1.5986  1.8605
13462TIP3   OH261800   6.741   6.749  12.104 -0.6310  0.1284 -0.8813
13462TIP3    H161801   6.667   6.689  12.108  0.6723 -1.5603 -1.6059
13462TIP3    H261802   6.751   6.782  12.193 -1.5686 -0.4745 -0.5547
13463TIP3   OH261803   5.330   3.219  14.067 -0.1674  0.5250  0.6794
13463TIP3    H161804   5.398   3.286  14.056  1.9462 -1.8272 -1.6373
13463TIP3    H261805   5.363   3.162  14.137  0.6654 -0.9969 -0.8940
13464TIP3   OH261806   6.764   3.073   5.756 -0.1367 -0.0849  0.3419
13464TIP3    H161807   6.804   3.072   5.842 -0.4092 -0.1660  0.4662
13464TIP3    H261808   6.670   3.068   5.772 -0.3012  1.7622  0.1243
13465TIP3   OH261809   4.816   6.541   5.299 -0.0344  0.2402 -0.4129
13465TIP3    H161810   4.807   6.446   5.286 -1.4209  0.3932 -0.6564
13465TIP3    H261811   4.861   6.572   5.221 -0.4375 -0.0920 -0.7839
13466TIP3   OH261812   6.080   2.962  12.853  0.2556 -0.3015  0.1716
13466TIP3    H161813   6.090   2.867  12.853  1.9563 -0.1779 -2.3234
13466TIP3    H261814   6.154   2.994  12.905  0.1357 -0.3283  0.3561
13467TIP3   OH261815   2.746   2.416  13.293 -0.4133 -0.4415 -0.0251
13467TIP3    H161816   2.722   2.384  13.206 -0.8817  0.8696 -0.3888
13467TIP3    H261817   2.842   2.413  13.294 -0.4341 -1.1463 -0.3195
13468TIP3   OH261818   4.395   1.634  16.214 -0.4525  0.6512 -0.2938
13468TIP3    H161819   4.371   1.603  16.301  0.5770  1.1550  0.1718
13468TIP3    H261820   4.372   1.727  16.215  1.3214  1.1001  0.0967
13469TIP3   OH261821   5.239   4.270   1.673  0.1634  0.6720  0.0948
13469TIP3    H161822   5.244   4.361   1.701 -1.0354  0.4467  1.1042
13469TIP3    H261823   5.311   4.227   1.720 -0.4210  0.7504  1.0899
13470TIP3   OH261824   4.720   1.270  14.435 -0.5774 -0.0356 -0.1522
13470TIP3    H161825   4.762   1.303  14.514 -0.8090 -0.6070  0.2125
13470TIP3    H261826   4.630   1.250  14.463 -0.4713 -0.8621 -0.3975
13471TIP3   OH261827   3.677   0.122  11.116  0.2624  0.1866  0.0494
13471TIP3    H161828   3.738   0.053  11.140  0.1301  0.0827  0.0903
13471TIP3    H261829   3.590   0.083  11.129  0.1898  0.2693 -0.1911
13472TIP3   OH261830   6.465   6.231   0.186 -0.8226 -0.4755 -0.0562
13472TIP3    H161831   6.405   6.191   0.249 -0.7505 -1.6485 -0.7286
13472TIP3    H261832   6.533   6.165   0.172 -0.2654  0.1998 -0.5594
13473TIP3   OH261833   6.245   1.086   2.253 -0.0772  0.8410  0.0673
13473TIP3    H161834   6.265   0.994   2.236 -1.1804  0.6292 -0.1672
13473TIP3    H261835   6.158   1.085   2.293  0.8968  1.6192  2.3067
13474TIP3   OH261836   2.732   3.999   1.170 -0.4373  0.6298 -1.1420
13474TIP3    H161837   2.738   3.907   1.143 -0.1560 -0.0706  1.1601
13474TIP3    H261838   2.800   4.043   1.119  1.0260 -0.9046 -0.5670
13475TIP3   OH261839   6.590   5.786  11.012  0.0583 -0.6036  0.3279
13475TIP3    H161840   6.507   5.746  10.986  0.0066 -0.7203  0.6659
13475TIP3    H261841   6.656   5.736  10.965 -0.1326  0.2308 -0.8338
13476TIP3   OH261842   0.743   0.146  13.647  0.1648 -0.3961 -0.0696
13476TIP3    H161843   0.725   0.235  13.677 -0.8760  0.6077 -3.4294
13476TIP3    H261844   0.659   0.101  13.652  0.6101 -1.1043  1.2657
13477TIP3   OH261845   4.944   3.324   3.505  0.0399 -0.6188  0.1204
13477TIP3    H161846   5.027   3.281   3.527  0.7537  1.0476  0.7815
13477TIP3    H261847   4.965   3.380   3.430 -0.1401  0.8990  1.1958
13478TIP3   OH261848   3.586   2.019   3.123  0.5975 -0.0704  0.0060
13478TIP3    H161849   3.615   2.055   3.039 -1.4037 -2.2154 -1.6717
13478TIP3    H261850   3.633   1.936   3.131 -3.0213 -2.3928 -1.5712
13479TIP3   OH261851   4.043   2.925  17.144 -0.5550  0.6210 -0.1777
13479TIP3    H161852   4.034   3.013  17.107  2.5018  0.5645 -1.2870
13479TIP3    H261853   4.131   2.898  17.118 -0.5113 -1.8003  2.2476
13480TIP3   OH261854   6.562   3.554   3.340 -0.0142 -0.1493  0.2310
13480TIP3    H161855   6.493   3.620   3.349  1.4685  1.2868  1.4383
13480TIP3    H261856   6.549   3.495   3.414  0.0207  0.0893  0.4264
13481TIP3   OH261857   4.586   4.839  16.155 -0.3969 -0.2908  0.4993
13481TIP3    H161858   4.581   4.933  16.136 -0.1427 -0.6391 -1.3529
13481TIP3    H261859   4.642   4.834  16.233 -1.2568  1.1555  1.2344
13482TIP3   OH261860   0.681   0.298  13.970  0.0509  0.2315 -0.4998
13482TIP3    H161861   0.709   0.356  13.899 -0.6827  1.9562  0.5668
13482TIP3    H261862   0.591   0.276  13.948 -0.5044  1.5715  0.3776
13483TIP3   OH261863   3.680   3.585  13.869  0.5272  0.2647  0.0561
13483TIP3    H161864   3.663   3.578  13.775 -0.4676 -1.3404  0.3314
13483TIP3    H261865   3.758   3.531  13.883  1.6482  1.8337 -0.0944
13484TIP3   OH261866   0.665   5.633  13.894 -0.6870 -0.0058 -0.3574
13484TIP3    H161867   0.673   5.650  13.988  0.5322  0.1420 -0.4690
13484TIP3    H261868   0.728   5.693  13.854 -1.2958  0.0254 -1.2804
13485TIP3   OH261869   4.940   6.092   4.620 -0.3265  0.2248 -0.3491
13485TIP3    H161870   4.877   6.114   4.688  1.5696  1.6272  0.9671
13485TIP3    H261871   4.889   6.096   4.539 -2.1387  0.4486  0.7676
13486TIP3   OH261872   2.872   1.769  14.472 -0.0107  0.2468 -0.0731
13486TIP3    H161873   2.802   1.715  14.435  1.2390 -1.5013  0.0472
13486TIP3    H261874   2.843   1.788  14.561 -0.1082 -0.9008  0.1465
13487TIP3   OH261875   4.438   2.295   6.553  0.2755  0.2827 -0.1996
13487TIP3    H161876   4.396   2.381   6.544  1.2764  0.9869  1.4916
13487TIP3    H261877   4.367   2.237   6.580 -0.0242  1.0448  0.7133
13488TIP3   OH261878   3.042   5.296  11.182  0.3743  0.0890 -0.2273
13488TIP3    H161879   3.024   5.346  11.103 -0.1712 -0.9491 -0.7700
13488TIP3    H261880   2.956   5.266  11.211  0.4572  1.2647  1.3140
13489TIP3   OH261881   1.384   6.211   1.826  0.1708  0.3138 -0.2880
13489TIP3    H161882   1.395   6.129   1.777  1.0990  0.7327 -0.7770
13489TIP3    H261883   1.386   6.183   1.918 -1.5791 -0.4702 -0.4516
13490TIP3   OH261884   2.278   1.596  13.785 -0.3623 -1.0636  0.1017
13490TIP3    H161885   2.333   1.653  13.731 -0.2003 -0.4648  0.8907
13490TIP3    H261886   2.272   1.641  13.870 -2.6255 -0.7849 -0.1783
13491TIP3   OH261887   6.570   0.263   1.012 -0.1141 -0.4219 -0.1904
13491TIP3    H161888   6.622   0.245   1.091  0.4836  1.0932 -0.2109
13491TIP3    H261889   6.584   0.187   0.956 -0.6249 -1.5669  1.2059
13492TIP3   OH261890   5.756   2.873  17.116 -0.4751 -0.0131  0.6423
13492TIP3    H161891   5.698   2.912  17.182 -0.3407  0.7079  0.3437
13492TIP3    H261892   5.842   2.910  17.135 -0.6897  1.2757 -0.7667
13493TIP3   OH261893   6.744   6.380   5.043 -0.6294  0.0120  0.4293
13493TIP3    H161894   6.774   6.465   5.011  1.2039 -1.2501 -1.3766
13493TIP3    H261895   6.743   6.388   5.138  0.3146  1.7989  0.2971
13494TIP3   OH261896   2.821   5.587  11.415 -0.0886  0.5410 -0.0809
13494TIP3    H161897   2.866   5.671  11.421  0.0825  0.5173 -1.0080
13494TIP3    H261898   2.728   5.610  11.418 -0.0837  0.9259 -1.9846
13495TIP3   OH261899   1.787   4.080   6.368 -0.1854  0.0816  0.1598
13495TIP3    H161900   1.802   3.989   6.342  2.0735  0.0053  1.6206
13495TIP3    H261901   1.859   4.128   6.327  1.1589  0.5415  2.9457
13496TIP3   OH261902   5.373   3.318   0.217  0.8961 -0.1761 -0.0916
13496TIP3    H161903   5.427   3.281   0.287  2.2599  0.9567 -0.5139
13496TIP3    H261904   5.324   3.389   0.260  2.4372  1.1446 -0.4413
13497TIP3   OH261905   4.103   4.281   3.109 -0.1323  0.7838 -0.0129
13497TIP3    H161906   4.052   4.201   3.124 -1.0825  1.1205 -1.4250
13497TIP3    H261907   4.177   4.273   3.169  0.4000 -1.7200 -0.9316
13498TIP3   OH261908   1.891   2.980  12.790 -0.7924 -0.5857  0.0255
13498TIP3    H161909   1.982   2.964  12.764 -0.6406 -0.4296  0.4568
13498TIP3    H261910   1.895   3.060  12.842 -1.3529  0.0990 -0.9759
13499TIP3   OH261911   1.394   0.607   2.058 -0.4517  0.0201 -0.7618
13499TIP3    H161912   1.364   0.680   2.003  0.1609 -1.0203 -2.5056
13499TIP3    H261913   1.460   0.647   2.114 -1.2517  1.1542 -0.5921
13500TIP3   OH261914   6.228   1.441  11.985 -0.1576 -0.0020 -0.1478
13500TIP3    H161915   6.224   1.369  11.922  0.4168  0.0935 -0.2940
13500TIP3    H261916   6.247   1.518  11.931  1.0121 -0.0262  0.2224
13501TIP3   OH261917   6.281   5.763  13.410  0.1621  0.1656  0.1059
13501TIP3    H161918   6.203   5.815  13.387 -0.0512  1.0036  2.5505
13501TIP3    H261919   6.270   5.681  13.362 -1.3550  0.9637 -0.9550
13502TIP3   OH261920   3.421   1.786  11.875  0.0106  0.7193 -0.0137
13502TIP3    H161921   3.409   1.716  11.811  0.2755 -0.5345  1.2758
13502TIP3    H261922   3.350   1.848  11.857 -0.1308  0.2074 -1.2623
13503TIP3   OH261923   0.510   6.137   3.724 -0.3000 -0.1972 -0.7487
13503TIP3    H161924   0.540   6.105   3.809 -1.4899 -0.5419 -0.4548
13503TIP3    H261925   0.534   6.069   3.662 -0.7018 -0.5903 -0.4738
13504TIP3   OH261926   1.194   6.224  11.655  0.3109  0.0600 -0.3444
13504TIP3    H161927   1.235   6.311  11.658 -3.6288  2.0757 -1.1952
13504TIP3    H261928   1.182   6.200  11.747 -0.6111  1.4783 -0.0749
13505TIP3   OH261929   6.065   2.152  12.588  0.2921 -0.5460 -0.1193
13505TIP3    H161930   6.076   2.242  12.557  0.7310  0.1985  2.1142
13505TIP3    H261931   6.124   2.100  12.534  1.4267  0.7919 -0.1890
13506TIP3   OH261932   5.374   2.775  15.627 -0.5183 -0.0942 -0.5130
13506TIP3    H161933   5.283   2.798  15.645 -0.2892  0.0324  0.4736
13506TIP3    H261934   5.405   2.845  15.568 -1.3439 -0.6769 -1.6632
13507TIP3   OH261935   0.120   2.357   0.667 -0.1022 -0.0805  0.0494
13507TIP3    H161936   0.084   2.308   0.740  0.6028 -1.5515 -0.5655
13507TIP3    H261937   0.141   2.443   0.703  0.1707 -0.7743  1.5471
13508TIP3   OH261938   4.947   3.231  13.168 -0.2453 -0.1056 -0.3394
13508TIP3    H161939   5.026   3.283  13.156 -1.2735  1.8760  1.1531
13508TIP3    H261940   4.952   3.200  13.258 -1.1122 -0.0443 -0.2651
13509TIP3   OH261941   3.455   1.222   3.040  0.9574 -0.2076 -0.1249
13509TIP3    H161942   3.400   1.181   3.106 -0.0213  0.5631 -0.4546
13509TIP3    H261943   3.398   1.234   2.964  1.5321  0.7106 -0.4255
13510TIP3   OH261944   5.615   2.085   2.977  0.1100 -0.1089  0.7494
13510TIP3    H161945   5.667   2.139   3.037  0.5363 -0.6693  0.8877
13510TIP3    H261946   5.568   2.148   2.922  0.5404  0.4026  0.9666
13511TIP3   OH261947   5.993   0.390   5.961  0.3801 -0.8408 -0.5942
13511TIP3    H161948   5.927   0.351   6.018  0.8465  0.2601  0.7403
13511TIP3    H261949   6.034   0.458   6.015  1.5903 -0.5143 -1.8866
13512TIP3   OH261950   4.225   3.707   1.835  0.1516  0.1683 -0.0124
13512TIP3    H161951   4.320   3.696   1.835  0.6910  3.9952  0.6041
13512TIP3    H261952   4.213   3.800   1.816 -3.4258  0.1294  1.8213
13513TIP3   OH261953   5.164   6.101  16.556  0.5493 -0.3661 -0.2821
13513TIP3    H161954   5.120   6.141  16.482 -1.4461  0.4967  1.3111
13513TIP3    H261955   5.242   6.155  16.570  0.2669  0.2258 -0.9694
13514TIP3   OH261956   4.344   2.164  14.502  0.2054 -0.0295  0.0050
13514TIP3    H161957   4.384   2.167  14.415  0.8151 -0.6011  0.2646
13514TIP3    H261958   4.266   2.109  14.490 -0.3605  0.8713 -0.4425
13515TIP3   OH261959   2.876   1.960  12.647  0.0790 -0.0046  0.3179
13515TIP3    H161960   2.931   2.038  12.634  0.1095  0.1056  1.1148
13515TIP3    H261961   2.938   1.890  12.666  0.1589 -0.5513 -1.8677
13516TIP3   OH261962   2.955   6.724  16.674  0.0913  0.3146  0.3506
13516TIP3    H161963   2.903   6.769  16.608  1.2987 -0.0455 -0.8700
13516TIP3    H261964   2.955   6.783  16.749 -0.7389  1.0356 -0.2136
13517TIP3   OH261965   0.637   2.176   4.647  0.2480  0.3320 -0.4277
13517TIP3    H161966   0.689   2.149   4.723  0.7809  0.9331 -0.5716
13517TIP3    H261967   0.547   2.172   4.677  0.5049  1.5089  0.5454
13518TIP3   OH261968   1.722   6.622   5.730 -0.1241 -0.1750  0.3132
13518TIP3    H161969   1.735   6.627   5.635 -0.4289  1.5446  0.3343
13518TIP3    H261970   1.658   6.552   5.742 -1.9141  1.1635 -0.9857
13519TIP3   OH261971   1.966   3.481   3.689 -0.1185 -0.1847  0.0610
13519TIP3    H161972   1.972   3.438   3.604 -1.1027 -0.4390  0.1139
13519TIP3    H261973   1.969   3.575   3.669  0.3984 -0.2598 -0.1932
13520TIP3   OH261974   3.850   6.731   4.937 -0.0089  0.3828 -0.0118
13520TIP3    H161975   3.916   6.788   4.898 -0.1356  0.5987  0.0882
13520TIP3    H261976   3.893   6.646   4.946  0.1268  0.4194 -0.3154
13521TIP3   OH261977   5.834   1.050   0.291  0.3065  0.4197 -0.5398
13521TIP3    H161978   5.761   1.009   0.339  1.1454  0.6020  0.9254
13521TIP3    H261979   5.902   1.062   0.357  1.4619  0.7783 -1.7740
13522TIP3   OH261980   1.357   0.851  10.895 -0.1979  1.0173 -0.3833
13522TIP3    H161981   1.438   0.834  10.847  0.7758  0.6881  1.3492
13522TIP3    H261982   1.288   0.845  10.829  1.1265  0.6705 -1.7546
13523TIP3   OH261983   5.924   3.332  12.402 -0.5522 -0.3655 -0.2408
13523TIP3    H161984   5.879   3.264  12.453 -1.8418  1.6801  1.4540
13523TIP3    H261985   5.865   3.350  12.329 -0.0950 -1.2479 -0.8231
13524TIP3   OH261986   4.456   5.000   4.329 -0.1879  0.4351 -0.1509
13524TIP3    H161987   4.409   4.969   4.251 -0.8884 -0.3414  0.5693
13524TIP3    H261988   4.458   5.095   4.319  0.7081  0.2671 -1.6729
13525TIP3   OH261989   3.862   1.653   3.393 -0.0717 -0.1060 -0.4551
13525TIP3    H161990   3.900   1.633   3.307 -0.6256 -0.2515 -0.6638
13525TIP3    H261991   3.930   1.703   3.437 -0.3616  1.2510 -1.5307
13526TIP3   OH261992   2.225   2.115  11.277  0.2618 -0.3184 -0.5263
13526TIP3    H161993   2.233   2.153  11.189 -1.8689 -1.4994 -1.2654
13526TIP3    H261994   2.131   2.109  11.292  0.5958 -1.7219  1.1600
13527TIP3   OH261995   2.144   6.109  13.247 -0.3577 -0.2761  0.1508
13527TIP3    H161996   2.119   6.061  13.326 -1.7026  0.3706  0.1452
13527TIP3    H261997   2.131   6.046  13.176 -0.1430 -0.5385  0.3435
13528TIP3   OH261998   5.985   5.576  15.765  0.6449  0.8382  0.1138
13528TIP3    H161999   6.025   5.627  15.835  0.1355  4.0333 -1.8270
13528TIP3    H262000   5.995   5.630  15.687 -2.2317 -0.9038 -1.5572
13529TIP3   OH262001   2.256   1.251  10.818  0.5521 -0.2328  0.0515
13529TIP3    H162002   2.163   1.237  10.833  0.5538 -2.0144 -1.4494
13529TIP3    H262003   2.261   1.313  10.746  0.5058 -1.1362 -0.7398
13530TIP3   OH262004   3.964   4.943  13.809 -0.0725  0.6342 -0.3267
13530TIP3    H162005   3.933   4.995  13.883  0.4566  0.2392  0.1779
13530TIP3    H262006   4.009   5.006  13.752 -0.4963  0.9402 -0.3261
13531TIP3   OH262007   4.781   1.562   2.851 -0.5549  0.5402 -0.3043
13531TIP3    H162008   4.843   1.576   2.923 -0.6801 -0.2630 -0.0337
13531TIP3    H262009   4.834   1.525   2.781 -0.8418 -0.7924  0.1649
13532TIP3   OH262010   3.084   1.603  14.232 -0.0583 -0.5411  0.1108
13532TIP3    H162011   3.058   1.517  14.198  0.6561 -0.6101 -0.2852
13532TIP3    H262012   3.089   1.591  14.327  2.1873 -1.5593 -0.0927
13533TIP3   OH262013   4.432   5.957   3.243 -0.0480  0.3971  0.5424
13533TIP3    H162014   4.338   5.947   3.228  0.3832 -2.2630 -0.6511
13533TIP3    H262015   4.461   6.014   3.172 -0.2145 -1.5081 -1.0822
13534TIP3   OH262016   5.148   1.218   0.002 -0.2525  0.2171 -0.0988
13534TIP3    H162017   5.186   1.138  -0.034  0.1926  1.4131 -2.3820
13534TIP3    H262018   5.222   1.277   0.011 -0.7861  0.8297  0.2784
13535TIP3   OH262019   5.736   2.360  14.481  0.0568  0.3314  0.1480
13535TIP3    H162020   5.781   2.436  14.444 -0.2939 -0.1775 -1.3839
13535TIP3    H262021   5.778   2.285  14.439  0.1386 -0.3096  1.3603
13536TIP3   OH262022   1.460   6.227   1.292 -0.3006 -0.5801 -0.6981
13536TIP3    H162023   1.445   6.318   1.318  0.6833 -0.5829 -0.1125
13536TIP3    H262024   1.446   6.176   1.371  0.6161 -0.7913 -0.6641
13537TIP3   OH262025   4.260   6.400  13.473  0.3729  0.1141 -0.1947
13537TIP3    H162026   4.219   6.416  13.558 -0.2146 -0.2699 -0.4018
13537TIP3    H262027   4.263   6.486  13.431  0.1818  0.2148 -0.0021
13538TIP3   OH262028   3.364   4.925  12.627 -0.6106 -0.3964 -0.3412
13538TIP3    H162029   3.274   4.960  12.624 -0.1540  1.1664  2.7885
13538TIP3    H262030   3.357   4.847  12.681  0.0686  0.3378  0.8342
13539TIP3   OH262031   2.484   3.738   0.250  0.8126  0.0030 -0.1401
13539TIP3    H162032   2.446   3.802   0.311  0.9589 -1.4359  1.5022
13539TIP3    H262033   2.452   3.765   0.164 -1.8832  0.2929  0.9073
13540TIP3   OH262034   3.167   1.516  13.275  0.4173 -0.3304  0.2388
13540TIP3    H162035   3.191   1.477  13.191  0.4417 -1.9886  0.9812
13540TIP3    H262036   3.216   1.465  13.339 -0.3264  0.2995  1.3204
13541TIP3   OH262037   2.392   0.760  16.378  0.5576  0.3285 -0.4349
13541TIP3    H162038   2.438   0.826  16.326  0.6212  0.7131  0.1027
13541TIP3    H262039   2.447   0.681  16.370  1.5576  0.9073  0.5665
13542TIP3   OH262040   6.034   5.453  10.666 -0.2956 -0.3066  0.1733
13542TIP3    H162041   5.946   5.417  10.663 -1.1647  1.6748  1.1237
13542TIP3    H262042   6.075   5.410  10.742 -1.6955  1.4883  1.9794
13543TIP3   OH262043   2.493   3.646   1.339 -0.4211  0.0823  0.3437
13543TIP3    H162044   2.495   3.635   1.244 -1.0250  0.7001  0.2630
13543TIP3    H262045   2.476   3.739   1.353 -1.6154 -0.2403  1.0548
13544TIP3   OH262046   4.848   3.347  12.397  0.1017 -0.7149 -0.2442
13544TIP3    H162047   4.925   3.396  12.426  1.2250 -2.1094 -0.8400
13544TIP3    H262048   4.868   3.321  12.308 -0.2158 -2.7503  0.2560
13545TIP3   OH262049   5.563   3.342  14.141 -0.1221  0.4938 -0.3408
13545TIP3    H162050   5.559   3.369  14.233 -0.2764  1.0730 -0.5158
13545TIP3    H262051   5.657   3.336  14.121 -0.0820 -0.7159  0.1650
13546TIP3   OH262052   2.869   3.920  14.792 -0.2353 -0.7876 -0.6177
13546TIP3    H162053   2.803   3.857  14.761 -1.3264 -0.3911  0.8407
13546TIP3    H262054   2.817   3.991  14.831  1.0708 -0.9571  1.4984
13547TIP3   OH262055   3.865   5.337  15.878 -0.4858  0.1429  0.1732
13547TIP3    H162056   3.913   5.258  15.854  0.0997  0.0508  1.5911
13547TIP3    H262057   3.779   5.326  15.837 -0.0247 -0.6828 -0.5925
13548TIP3   OH262058   5.045   2.459   2.856  0.3105 -0.2690 -0.4170
13548TIP3    H162059   5.085   2.410   2.784 -0.5202  0.1238 -1.1566
13548TIP3    H262060   5.067   2.550   2.838 -0.4149 -0.1120 -0.5042
13549TIP3   OH262061   1.292   2.524   1.698  0.2939  0.4247 -0.2577
13549TIP3    H162062   1.322   2.606   1.657  0.2742  0.2127 -0.6946
13549TIP3    H262063   1.315   2.535   1.791  0.0241  1.0510 -0.2576
13550TIP3   OH262064   5.255   4.199   0.743 -0.4210  0.3739 -0.3653
13550TIP3    H162065   5.183   4.144   0.775  0.4444 -1.5033 -1.5620
13550TIP3    H262066   5.227   4.225   0.655 -0.9419  2.1050  0.2930
13551TIP3   OH262067   3.736   3.083  13.957  0.0446  0.6938  0.7637
13551TIP3    H162068   3.825   3.065  13.988  0.2264 -1.1988 -0.7425
13551TIP3    H262069   3.682   3.085  14.036  1.0235 -0.6053  1.4790
13552TIP3   OH262070   0.037   6.418  13.548  0.1156 -0.5977 -0.5775
13552TIP3    H162071   0.002   6.473  13.478 -1.9793 -0.6403  0.4107
13552TIP3    H262072   0.125   6.453  13.564  0.4065 -0.2354 -2.8210
13553TIP3   OH262073   0.363   0.474  14.063 -0.6003 -0.5047  0.8402
13553TIP3    H162074   0.412   0.416  14.121  1.5457  0.8696  0.4682
13553TIP3    H262075   0.309   0.416  14.010  1.1593 -2.1263  0.7809
13554TIP3   OH262076   1.634   1.301  13.482 -0.1894 -0.0226 -0.1662
13554TIP3    H162077   1.640   1.392  13.510 -0.3065 -0.9790  3.1968
13554TIP3    H262078   1.724   1.268  13.486 -0.2675 -0.2953 -0.5608
13555TIP3   OH262079   2.411   2.674  12.286 -0.0042  0.2078 -0.1509
13555TIP3    H162080   2.431   2.728  12.362 -0.2520 -0.7832  0.6275
13555TIP3    H262081   2.495   2.636  12.260  0.1808  1.0060 -0.7355
13556TIP3   OH262082   6.249   2.489  16.802  0.1822 -0.0732  0.2086
13556TIP3    H162083   6.154   2.496  16.811  0.1805  0.6663 -0.3069
13556TIP3    H262084   6.264   2.401  16.769 -0.5191  0.6820 -2.2382
13557TIP3   OH262085   3.271   1.852   0.997 -0.3402 -0.2263  0.3307
13557TIP3    H162086   3.178   1.832   1.009 -0.7659 -0.0135 -2.3645
13557TIP3    H262087   3.277   1.887   0.908  1.7908  3.2320  1.7575
13558TIP3   OH262088   1.588   3.552   3.092 -0.6422 -0.1460 -0.1313
13558TIP3    H162089   1.564   3.486   3.157 -0.2435  0.7291  0.9112
13558TIP3    H262090   1.561   3.635   3.131  1.5225  0.5827 -0.1372
13559TIP3   OH262091   3.960   5.529  13.249 -0.2976  0.7152 -0.4662
13559TIP3    H162092   3.983   5.578  13.328  1.2548  0.3293 -0.6482
13559TIP3    H262093   4.041   5.528  13.198 -0.1458 -2.4084 -0.2645
13560TIP3   OH262094   2.301   3.760  12.703 -0.1244  0.3804  0.1438
13560TIP3    H162095   2.254   3.770  12.621 -0.3150 -0.6895  0.1203
13560TIP3    H262096   2.294   3.667  12.724  0.4804  0.5271  1.0354
13561TIP3   OH262097   5.229   2.316   1.298 -0.2656 -0.2281 -0.3381
13561TIP3    H162098   5.176   2.325   1.219 -1.8124 -2.3270  0.4281
13561TIP3    H262099   5.259   2.405   1.318 -1.6579  0.6297 -2.0441
13562TIP3   OH262100   4.272   5.411   4.613  0.2523 -0.3790  0.0276
13562TIP3    H162101   4.260   5.415   4.707 -0.3707 -0.3973 -0.0458
13562TIP3    H262102   4.366   5.421   4.599  0.3284 -0.2711  0.6421
13563TIP3   OH262103   0.234   5.473  12.018 -0.0675  0.4069  0.4702
13563TIP3    H162104   0.175   5.467  12.092  0.6513 -1.5424  0.9250
13563TIP3    H262105   0.181   5.448  11.942 -0.1184 -0.2114  0.7117
13564TIP3   OH262106   3.192   3.650   4.999 -0.3294  0.1255  0.1754
13564TIP3    H162107   3.115   3.592   5.003 -0.3178 -0.0920 -2.1085
13564TIP3    H262108   3.219   3.647   4.908  0.6317  2.5201  0.3460
13565TIP3   OH262109   1.602   6.070  12.684  0.3936  0.0042 -0.4289
13565TIP3    H162110   1.596   6.030  12.771 -0.5730 -0.1108 -0.5422
13565TIP3    H262111   1.522   6.122  12.676  0.7358  0.4359 -1.0442
13566TIP3   OH262112   5.665   6.025  16.574  0.4284 -0.1904 -0.0114
13566TIP3    H162113   5.714   6.041  16.655  0.5296  0.0177 -0.1138
13566TIP3    H262114   5.697   5.940  16.542  0.1714 -0.4171  0.3239
13567TIP3   OH262115   1.882   6.075  14.176  0.0874 -0.2727  0.7048
13567TIP3    H162116   1.924   6.161  14.184 -0.4600  0.0600  0.0813
13567TIP3    H262117   1.789   6.095  14.163  0.1263 -0.9129 -0.7166
13568TIP3   OH262118   4.938   1.280  13.269 -0.1876  0.3420  0.5354
13568TIP3    H162119   4.966   1.283  13.360  0.0826 -3.6034  0.7033
13568TIP3    H262120   4.843   1.268  13.274 -0.3170  1.2102  0.2538
13569TIP3   OH262121   0.475   4.798   5.231  0.2118  0.3377  0.0280
13569TIP3    H162122   0.379   4.797   5.237  0.2132 -0.3459 -0.0428
13569TIP3    H262123   0.499   4.890   5.247 -0.4308  0.4403  0.4296
13570TIP3   OH262124   0.922   3.505  10.127  0.3603 -0.0608 -0.6247
13570TIP3    H162125   0.933   3.595  10.158  1.3487 -0.2997 -0.2727
13570TIP3    H262126   0.990   3.455  10.173  0.4469 -0.8061 -1.5473
13571TIP3   OH262127   5.059   2.118  16.571 -0.1476 -0.2620  0.0610
13571TIP3    H162128   5.066   2.157  16.658 -1.9267 -0.8360  0.4938
13571TIP3    H262129   5.038   2.192  16.513 -0.7680 -0.1479  0.4255
13572TIP3   OH262130   6.325   3.964  13.082 -0.2618 -0.0656 -0.5501
13572TIP3    H162131   6.296   4.012  13.159  1.0760 -1.4782  0.8469
13572TIP3    H262132   6.246   3.920  13.050 -0.9317  0.9672 -0.3371
13573TIP3   OH262133   6.246   4.958  13.630 -1.0040 -0.5259 -0.9411
13573TIP3    H162134   6.325   5.012  13.624 -1.8785  0.9082  0.2709
13573TIP3    H262135   6.230   4.929  13.540  0.2920  0.0301 -1.3655
13574TIP3   OH262136   6.321   0.772  17.208 -0.5336  0.1094 -0.2065
13574TIP3    H162137   6.228   0.757  17.224 -1.9272  2.0410 -5.2529
13574TIP3    H262138   6.343   0.711  17.137  2.2456 -0.6299  1.2037
13575TIP3   OH262139   3.399   1.429   5.229 -0.6948  0.0066 -0.1261
13575TIP3    H162140   3.415   1.523   5.226  1.8506 -0.3901 -0.3220
13575TIP3    H262141   3.373   1.406   5.140 -0.8030  0.4447 -0.2052
13576TIP3   OH262142   1.679   6.728   3.297 -0.2340 -0.2428  0.0220
13576TIP3    H162143   1.721   6.646   3.323  2.1294  0.7350 -0.5576
13576TIP3    H262144   1.716   6.747   3.211 -0.2265  1.7785  0.4431
13577TIP3   OH262145   1.546   2.799   0.191 -0.0432 -0.0114 -0.7145
13577TIP3    H162146   1.569   2.845   0.110 -0.1708 -1.3161 -1.5106
13577TIP3    H262147   1.534   2.869   0.256 -0.3974  1.0751 -1.9306
13578TIP3   OH262148   3.118   0.602   1.377 -0.3005 -0.3614 -0.1972
13578TIP3    H162149   3.047   0.559   1.423 -1.2596  0.8734 -0.5123
13578TIP3    H262150   3.090   0.693   1.367 -0.5492 -0.7913 -4.0331
13579TIP3   OH262151   4.287   4.727  13.325  0.6841  0.3339  0.0740
13579TIP3    H162152   4.236   4.807  13.309 -0.7209 -0.2853  1.3733
13579TIP3    H262153   4.363   4.736  13.268 -0.7467  1.3968 -1.7152
13580TIP3   OH262154   5.879   0.525  14.809 -0.1178 -0.0951 -0.0022
13580TIP3    H162155   5.789   0.532  14.775 -0.7212 -1.3195  1.2720
13580TIP3    H262156   5.900   0.432  14.801  0.3031 -0.1393  1.5127
13581TIP3   OH262157   1.214   6.193  14.661 -0.2484 -0.4818  0.2106
13581TIP3    H162158   1.255   6.186  14.747  0.5059  0.9262 -0.0140
13581TIP3    H262159   1.158   6.115  14.654  1.4865 -1.8167  0.9953
13582TIP3   OH262160   1.392   3.395   5.108 -0.6109 -0.3213  0.0471
13582TIP3    H162161   1.327   3.347   5.057 -2.2154  2.6126 -0.7482
13582TIP3    H262162   1.431   3.456   5.046 -0.5736  1.3136  1.6422
13583TIP3   OH262163   4.371   0.605  11.805 -0.0134 -1.0022  0.1785
13583TIP3    H162164   4.354   0.531  11.864 -2.5918 -0.8162 -0.2468
13583TIP3    H262165   4.321   0.584  11.725  2.1291 -0.4937 -1.3332
13584TIP3   OH262166   0.786   5.597  12.046  0.7094  0.8272 -0.4221
13584TIP3    H162167   0.783   5.501  12.053  0.0337  0.8162 -0.8148
13584TIP3    H262168   0.872   5.616  12.008  1.0951  0.4121  0.2395
13585TIP3   OH262169   1.734   0.825  16.994 -0.3678 -0.0988  0.8861
13585TIP3    H162170   1.766   0.800  17.080  2.8089  1.1660  0.1516
13585TIP3    H262171   1.800   0.792  16.933 -2.5660 -0.9849 -1.0866
13586TIP3   OH262172   1.217   3.231   4.968  0.2271  0.0877  0.8278
13586TIP3    H162173   1.311   3.223   4.951  0.1878  1.8032 -0.2574
13586TIP3    H262174   1.189   3.142   4.990  1.4234 -1.0946 -2.2742
13587TIP3   OH262175   5.986   0.465  16.604  0.2019 -0.0129  0.1945
13587TIP3    H162176   5.987   0.373  16.629  2.6369 -0.5767 -1.8632
13587TIP3    H262177   5.998   0.512  16.687 -2.4788 -1.4300  1.4458
13588TIP3   OH262178   3.588   6.414  16.168  0.5482  0.0129 -0.3732
13588TIP3    H162179   3.614   6.489  16.116  0.1423 -0.2106 -0.8995
13588TIP3    H262180   3.627   6.429  16.254 -1.7997  2.1748  0.3582
13589TIP3   OH262181   4.676   3.410   2.717  0.3530  0.1541  0.1148
13589TIP3    H162182   4.670   3.497   2.757 -1.4338 -1.0337  2.5581
13589TIP3    H262183   4.601   3.406   2.657 -0.1293 -0.0666  0.7341
13590TIP3   OH262184   3.196   2.667  14.856 -0.2436  0.1218 -0.4796
13590TIP3    H162185   3.134   2.710  14.798  0.9469 -1.0385 -2.6866
13590TIP3    H262186   3.262   2.629  14.797 -0.0100 -2.6883  1.4988
13591TIP3   OH262187   2.180   0.840  10.653 -0.1494  0.1995 -0.6759
13591TIP3    H162188   2.124   0.850  10.730 -1.0241  0.3906 -1.3259
13591TIP3    H262189   2.187   0.929  10.618  0.3763  0.1371 -0.7227
13592TIP3   OH262190   4.727   2.261   6.601  0.1261  0.4853  0.0004
13592TIP3    H162191   4.634   2.283   6.610  0.3914  1.0482  1.5292
13592TIP3    H262192   4.727   2.167   6.581 -0.8574  0.9624 -2.3454
13593TIP3   OH262193   4.792   1.181   6.505  0.3867  0.2292 -0.7606
13593TIP3    H162194   4.879   1.184   6.466  0.7580 -0.9347 -0.0506
13593TIP3    H262195   4.769   1.273   6.520  1.0330  0.5861 -1.9412
13594TIP3   OH262196   3.847   4.293   0.642  0.0661  0.1702  0.5538
13594TIP3    H162197   3.780   4.290   0.710  0.8297  1.5159  1.3847
13594TIP3    H262198   3.930   4.298   0.690  0.8166 -1.7511 -0.4528
13595TIP3   OH262199   6.002   6.437   2.230 -0.5447  0.0061  0.3756
13595TIP3    H162200   6.020   6.355   2.184  0.2776 -0.2804  1.1778
13595TIP3    H262201   6.068   6.498   2.196 -0.9541  0.2381  0.0070
13596TIP3   OH262202   2.309   5.581  12.549 -0.7781 -0.2291  0.1604
13596TIP3    H162203   2.302   5.634  12.628 -1.8332  0.7528 -0.5708
13596TIP3    H262204   2.394   5.604  12.511 -1.6242  1.6820 -0.6528
13597TIP3   OH262205   5.775   6.130   1.413 -0.0242 -0.0501  0.5302
13597TIP3    H162206   5.743   6.158   1.328  1.4614  1.9927  0.6025
13597TIP3    H262207   5.861   6.091   1.395 -0.4531 -1.1893  0.8924
13598TIP3   OH262208   1.906   3.954  11.910 -0.1022  0.4672  0.1935
13598TIP3    H162209   1.920   3.868  11.871 -2.7983 -0.9430  2.1586
13598TIP3    H262210   1.895   4.014  11.836  1.0617 -0.9975 -1.1793
13599TIP3   OH262211   1.051   0.272  13.010  0.7719 -0.1319 -0.5703
13599TIP3    H162212   0.989   0.274  13.083  0.1543  1.5593 -1.1067
13599TIP3    H262213   1.110   0.347  13.026  1.4271 -0.5174 -1.1263
13600TIP3   OH262214   0.087   4.919   1.969  0.0780 -0.1329  0.1855
13600TIP3    H162215   0.150   4.941   2.037 -0.7667  1.4980  0.4645
13600TIP3    H262216   0.002   4.937   2.008 -0.4842 -0.7443 -0.7486
13601TIP3   OH262217   2.427   1.836   5.927 -0.3387 -0.1693 -0.0084
13601TIP3    H162218   2.501   1.841   5.987  0.5765 -0.2757 -1.1181
13601TIP3    H262219   2.395   1.926   5.920 -1.8163 -0.4702  2.3018
13602TIP3   OH262220   6.120   4.242   5.522 -0.8706 -0.0492 -0.1333
13602TIP3    H162221   6.145   4.188   5.447 -0.7037 -0.6079  0.3222
13602TIP3    H262222   6.025   4.233   5.528 -0.7973 -0.6211  0.1894
13603TIP3   OH262223   3.499   2.900   3.671  0.0435 -0.2030 -0.1344
13603TIP3    H162224   3.506   2.936   3.759 -3.3747  1.9631 -0.6384
13603TIP3    H262225   3.517   2.974   3.614  1.9878 -1.5313 -1.2900
13604TIP3   OH262226   2.743   1.473  13.012 -0.0645  0.2770 -0.1172
13604TIP3    H162227   2.809   1.487  12.943  0.2198  1.5115  0.3973
13604TIP3    H262228   2.794   1.452  13.090 -0.4214 -2.0816 -0.4745
13605TIP3   OH262229   1.806   1.438   2.185 -0.2345 -0.1360 -0.5805
13605TIP3    H162230   1.735   1.382   2.218 -1.0816  1.2770  0.0596
13605TIP3    H262231   1.857   1.461   2.263 -0.7575  1.1600 -0.5996
13606TIP3   OH262232   1.138   5.427  14.147 -0.1113  0.0719 -0.9830
13606TIP3    H162233   1.067   5.456  14.203  2.3744  2.2355  1.1837
13606TIP3    H262234   1.205   5.396  14.208  0.7880 -2.0277 -2.9673
13607TIP3   OH262235   2.371   2.353  14.672  0.6744 -0.1230 -0.4009
13607TIP3    H162236   2.413   2.290  14.613  1.8350 -0.9686  1.2911
13607TIP3    H262237   2.442   2.384  14.728  0.1647  2.8404 -1.2687
13608TIP3   OH262238   2.584   0.845   0.977 -0.1842 -0.5103  0.9654
13608TIP3    H162239   2.645   0.912   0.945 -0.4809 -0.8643 -0.4100
13608TIP3    H262240   2.533   0.889   1.045  2.2057 -0.4893  2.7697
13609TIP3   OH262241   2.325   6.470   4.983 -0.0726 -0.2390 -0.5599
13609TIP3    H162242   2.413   6.454   4.950  0.6086  2.3260 -0.0469
13609TIP3    H262243   2.273   6.488   4.905 -0.2290 -1.9760 -0.8833
13610TIP3   OH262244   3.834   0.776   5.334 -0.1832  0.2239 -0.2113
13610TIP3    H162245   3.901   0.717   5.371 -0.4200 -0.8060 -1.3923
13610TIP3    H262246   3.880   0.860   5.325  0.1064  0.3026  1.6588
13611TIP3   OH262247   5.393   3.616  16.962 -0.2308 -0.2244 -0.0540
13611TIP3    H162248   5.372   3.674  17.036 -0.5037 -1.9678  1.2766
13611TIP3    H262249   5.484   3.636  16.940  0.1822 -0.3971  1.4416
13612TIP3   OH262250   2.598   2.519  14.998  0.1812 -0.4713  0.0168
13612TIP3    H162251   2.538   2.455  15.038 -0.8000  0.2252 -0.3170
13612TIP3    H262252   2.630   2.475  14.919 -1.1278 -0.2424 -0.6524
13613TIP3   OH262253   6.158   1.599   0.716 -0.6203 -0.1586 -0.7726
13613TIP3    H162254   6.106   1.530   0.756 -0.8153  1.5726  2.1580
13613TIP3    H262255   6.094   1.666   0.690 -0.3180 -0.4399 -2.2775
13614TIP3   OH262256   1.758   1.787  12.697 -0.3347 -0.2524 -0.0751
13614TIP3    H162257   1.680   1.799  12.642 -0.9666 -2.2382  0.3577
13614TIP3    H262258   1.728   1.733  12.770  1.0843  0.3177  0.9431
13615TIP3   OH262259   4.434   0.122  11.999 -0.3151 -0.4920  0.1945
13615TIP3    H162260   4.454   0.039  12.043  0.3468  0.0325  0.8995
13615TIP3    H262261   4.517   0.147  11.958 -0.9180 -0.9671 -1.3634
13616TIP3   OH262262   3.225   5.770   2.803 -0.0053 -0.1675 -0.0825
13616TIP3    H162263   3.280   5.744   2.877 -0.8590  1.0801  1.0110
13616TIP3    H262264   3.283   5.766   2.727  0.6379 -2.3680  0.4940
13617TIP3   OH262265   0.693   2.215  12.947  0.1757  0.2204  0.1166
13617TIP3    H162266   0.728   2.210  12.858  1.2545  0.6654  0.5036
13617TIP3    H262267   0.739   2.289  12.987  0.7145 -0.8235  1.4707
13618TIP3   OH262268   0.677   3.038  14.110 -0.5791 -0.4773 -0.1113
13618TIP3    H162269   0.766   3.058  14.080 -0.3741 -0.2992  0.5939
13618TIP3    H262270   0.648   3.118  14.154 -0.8281 -0.7657  0.2542
13619TIP3   OH262271   1.828   3.759   3.173 -0.0571 -0.1711  0.2821
13619TIP3    H162272   1.821   3.665   3.191  0.7332  0.0788  1.9616
13619TIP3    H262273   1.820   3.766   3.077  0.3270 -1.9749  0.1095
13620TIP3   OH262274   5.690   4.395   2.466  0.3549  0.5031 -0.2300
13620TIP3    H162275   5.658   4.478   2.431  3.0749  1.6071 -0.2286
13620TIP3    H262276   5.683   4.404   2.561  0.7339  0.7627 -0.2277
13621TIP3   OH262277   4.515   1.121   1.853  0.3260 -0.4332  0.1666
13621TIP3    H162278   4.506   1.033   1.890 -1.7537 -0.2194  0.2318
13621TIP3    H262279   4.583   1.112   1.787 -0.8858 -2.4773 -0.8684
13622TIP3   OH262280   0.560   4.676  13.204  0.0300  0.3461  0.0403
13622TIP3    H162281   0.485   4.713  13.159  0.1588  0.1873 -0.3052
13622TIP3    H262282   0.561   4.584  13.179  1.9791  0.9326 -2.2349
13623TIP3   OH262283   6.235   4.555  14.590  0.1419 -0.7037  0.3178
13623TIP3    H162284   6.288   4.630  14.619 -0.4258  0.3500 -1.2930
13623TIP3    H262285   6.189   4.527  14.669 -1.4456  2.1701  0.4782
13624TIP3   OH262286   0.420   0.039   4.381  0.2777 -0.2753 -0.1674
13624TIP3    H162287   0.345   0.094   4.406 -0.3979 -1.1716 -0.1787
13624TIP3    H262288   0.492   0.100   4.370 -0.2927  0.5367  0.5034
13625TIP3   OH262289   0.299   5.152   2.428 -0.1180 -0.2670 -0.1345
13625TIP3    H162290   0.288   5.075   2.483 -0.5437 -0.0479  0.0953
13625TIP3    H262291   0.290   5.226   2.488 -1.7881 -0.0003 -0.6825
13626TIP3   OH262292   4.522   5.090  16.115  0.2139 -0.5336  0.3755
13626TIP3    H162293   4.523   5.149  16.040  0.9860 -1.5629 -0.4443
13626TIP3    H262294   4.459   5.129  16.175 -1.2843 -0.2855 -1.2985
13627TIP3   OH262295   4.914   1.360  15.650 -0.0717 -0.0961 -0.2782
13627TIP3    H162296   4.874   1.327  15.730 -0.3735  0.4055 -0.2237
13627TIP3    H262297   4.945   1.447  15.673  1.4782 -0.6432 -0.1771
13628TIP3   OH262298   3.356   5.584  16.202  0.2610 -0.1142 -0.3815
13628TIP3    H162299   3.275   5.538  16.221  0.3437 -0.1520 -0.1250
13628TIP3    H262300   3.383   5.549  16.117 -0.6338  0.7967 -1.0474
13629TIP3   OH262301   3.725   1.085   5.894  1.0290 -0.1752  0.1044
13629TIP3    H162302   3.796   1.060   5.954  1.7756 -0.3363 -0.8463
13629TIP3    H262303   3.675   1.004   5.882 -0.4060  0.3397  2.1947
13630TIP3   OH262304   4.719   5.570   0.464  0.3114 -0.3567  0.1064
13630TIP3    H162305   4.813   5.572   0.446  0.8092 -1.8571  2.3354
13630TIP3    H262306   4.711   5.514   0.542 -2.0989  2.3936  1.9163
13631TIP3   OH262307   2.761   4.573   0.957 -0.0044 -0.3116 -0.1590
13631TIP3    H162308   2.818   4.594   0.883  1.0836 -1.2255  0.3875
13631TIP3    H262309   2.733   4.657   0.992  0.3879  0.1344 -0.9286
13632TIP3   OH262310   1.007   2.284   1.227  0.0469  0.1620 -0.1620
13632TIP3    H162311   1.018   2.378   1.217  0.7550  0.2392  1.2065
13632TIP3    H262312   0.998   2.270   1.321  0.4292 -1.1802 -0.3066
13633TIP3   OH262313   5.141   2.173   1.940  0.2482  0.0901 -0.2913
13633TIP3    H162314   5.218   2.172   1.998 -0.8875 -1.2708  1.2194
13633TIP3    H262315   5.127   2.266   1.922  2.1668  0.3676 -0.4730
13634TIP3   OH262316   5.920   1.632   5.178  0.1666 -0.0713 -0.1780
13634TIP3    H162317   5.869   1.686   5.117  0.6597 -0.3896 -0.8796
13634TIP3    H262318   5.979   1.582   5.122 -2.2038 -3.4310  0.2309
13635TIP3   OH262319   4.893   5.731  12.313  0.2178  0.4727 -0.1186
13635TIP3    H162320   4.956   5.793  12.275  0.6935  0.0528 -0.0222
13635TIP3    H262321   4.944   5.651  12.328  0.2590  0.9404  2.3095
13636TIP3   OH262322   1.115   0.103   3.074 -0.9746  0.3505  0.2827
13636TIP3    H162323   1.067   0.080   3.154 -1.8155 -0.9124 -0.5686
13636TIP3    H262324   1.193   0.148   3.106 -1.4895  0.2084  1.8067
13637TIP3   OH262325   5.552   2.731   1.406 -0.3208  0.0057  0.2945
13637TIP3    H162326   5.488   2.756   1.472 -0.4922 -0.0890  0.1630
13637TIP3    H262327   5.610   2.669   1.451  0.9648  1.7331  1.0376
13638TIP3   OH262328   2.173   2.152  10.513  0.6194 -0.6084 -0.1178
13638TIP3    H162329   2.217   2.190  10.589  0.3030  1.7036 -1.0554
13638TIP3    H262330   2.219   2.189  10.438 -2.7602  1.8045 -1.1251
13639TIP3   OH262331   4.267   1.992   5.197 -0.3647  0.1030  0.4250
13639TIP3    H162332   4.222   2.000   5.113 -0.6551  1.9468  0.7260
13639TIP3    H262333   4.249   1.903   5.226 -0.0476 -0.6293 -1.5799
13640TIP3   OH262334   4.213   2.614   0.059 -0.1505  0.2744 -0.0354
13640TIP3    H162335   4.161   2.537   0.084  0.1690  0.5249  1.4530
13640TIP3    H262336   4.273   2.627   0.132  0.7515  1.1085 -0.9149
13641TIP3   OH262337   3.882   5.201  11.316 -0.0779  0.4248  0.2804
13641TIP3    H162338   3.962   5.198  11.263 -0.2693  2.1369 -0.1229
13641TIP3    H262339   3.906   5.157  11.398  1.6630  2.0743  0.6849
13642TIP3   OH262340   6.240   3.408   0.964 -0.0235 -0.2957 -0.5894
13642TIP3    H162341   6.313   3.462   0.933  0.3206 -0.3799  0.0708
13642TIP3    H262342   6.196   3.461   1.031  0.5994 -1.0081  0.4009
13643TIP3   OH262343   0.401   5.347   0.705  0.3099 -0.3454  0.9980
13643TIP3    H162344   0.496   5.360   0.695  0.4155 -1.2777  0.6448
13643TIP3    H262345   0.361   5.423   0.664  0.9223  0.3186  1.6304
13644TIP3   OH262346   4.033   2.360  14.365  0.3336 -0.2657  0.9260
13644TIP3    H162347   3.981   2.393  14.292  0.3099  0.2486  1.1742
13644TIP3    H262348   4.119   2.399  14.352  0.6901 -1.1638  0.4780
13645TIP3   OH262349   0.305   6.063   5.966  0.0770 -0.3525  0.2258
13645TIP3    H162350   0.309   6.055   6.061  0.2386 -0.2976  0.2236
13645TIP3    H262351   0.228   6.117   5.949 -0.5660 -1.2280  0.2797
13646TIP3   OH262352   0.861   1.550  12.791  0.2405  0.8400  0.7447
13646TIP3    H162353   0.826   1.522  12.876  1.7783  0.2947  1.2215
13646TIP3    H262354   0.954   1.530  12.796  0.3513  0.8215 -1.0798
13647TIP3   OH262355   5.842   4.966  11.158  0.1703  0.4160  0.1253
13647TIP3    H162356   5.865   5.035  11.096  2.1697  0.0175  0.3654
13647TIP3    H262357   5.822   5.012  11.240 -2.1714  0.9213 -0.7017
13648TIP3   OH262358   2.522   4.530   5.077 -0.2661 -0.1339 -0.0573
13648TIP3    H162359   2.491   4.592   5.010 -1.0012 -0.0229  0.3772
13648TIP3    H262360   2.455   4.461   5.077  0.7556 -1.1512 -0.8342
13649TIP3   OH262361   1.758   6.465   2.799 -0.0864 -0.2234 -0.0806
13649TIP3    H162362   1.687   6.406   2.827  0.4744  0.1267  2.1329
13649TIP3    H262363   1.734   6.550   2.835  1.6726 -0.1933  1.0710
13650TIP3   OH262364   4.963   4.878   5.896  0.6590  1.0734  0.7349
13650TIP3    H162365   4.963   4.958   5.949  1.0882  1.8218 -0.3542
13650TIP3    H262366   4.908   4.900   5.820  0.3524  0.1520  0.6881
13651TIP3   OH262367   0.277   3.708   0.814 -0.4279 -0.7262 -0.3638
13651TIP3    H162368   0.368   3.716   0.786 -0.5369 -0.4067 -0.6388
13651TIP3    H262369   0.260   3.614   0.817  0.1485 -0.8061  0.4679
13652TIP3   OH262370   3.159   4.464  15.622  0.4265  0.7866  0.1720
13652TIP3    H162371   3.140   4.529  15.554  0.5331 -0.3345 -0.9627
13652TIP3    H262372   3.224   4.406  15.581  0.7434  0.2908  1.3604
13653TIP3   OH262373   3.343   1.339   4.950 -0.3378 -0.3905  0.3798
13653TIP3    H162374   3.320   1.252   4.981  0.4133 -0.8230 -0.2603
13653TIP3    H262375   3.307   1.344   4.861  0.6986 -0.5181 -0.0585
13654TIP3   OH262376   4.297   2.860   1.201  0.2752 -0.5580 -0.3528
13654TIP3    H162377   4.316   2.953   1.184 -0.9148  0.0304  1.4020
13654TIP3    H262378   4.203   2.857   1.213  0.4993 -1.7194  1.2217
13655TIP3   OH262379   3.434   5.605   1.127 -0.3585 -0.2504 -0.0741
13655TIP3    H162380   3.450   5.681   1.071 -1.1915 -0.6125 -0.8275
13655TIP3    H262381   3.520   5.583   1.163  0.2450 -0.1498 -1.4180
13656TIP3   OH262382   4.002   2.859  16.485 -0.2266  0.2128  0.3419
13656TIP3    H162383   3.959   2.938  16.455 -2.3601 -0.7302  0.8434
13656TIP3    H262384   3.999   2.865  16.581 -1.2229 -0.8890  0.3886
13657TIP3   OH262385   0.225   3.055   1.307  0.2220 -0.9751 -0.1728
13657TIP3    H162386   0.171   3.132   1.287  3.4600  1.2118 -0.9466
13657TIP3    H262387   0.209   3.039   1.400 -0.2819  0.8413  0.0807
13658TIP3   OH262388   2.043   6.328  16.366  0.5285 -0.1818  0.3807
13658TIP3    H162389   2.070   6.295  16.281 -1.8899 -0.9453 -0.1238
13658TIP3    H262390   2.068   6.259  16.428  0.3013 -0.6098 -0.0012
13659TIP3   OH262391   1.479   3.412  12.141 -0.0519 -0.1272  0.3468
13659TIP3    H162392   1.504   3.326  12.176 -1.9129 -0.1199  1.7672
13659TIP3    H262393   1.461   3.396  12.049  2.7632 -0.6014 -0.1555
13660TIP3   OH262394   1.986   0.291   5.551 -0.0951  0.2804  0.3262
13660TIP3    H162395   1.989   0.320   5.460  0.1483  0.1531  0.2948
13660TIP3    H262396   1.982   0.373   5.601 -1.0564  0.3311  0.1686
13661TIP3   OH262397   5.929   4.011  16.331 -0.3262  0.4584 -0.4435
13661TIP3    H162398   5.860   4.007  16.265  0.5945 -0.0183 -1.3775
13661TIP3    H262399   5.885   4.047  16.408 -1.3521  1.2545 -1.3781
13662TIP3   OH262400   3.243   1.042   4.438  0.3041 -0.0527 -0.7787
13662TIP3    H162401   3.222   0.958   4.397 -1.1743  0.3531 -0.8677
13662TIP3    H262402   3.306   1.083   4.379 -0.1170 -0.4464 -1.5028
13663TIP3   OH262403   5.879   1.218   0.780 -0.7535  0.3100 -0.2492
13663TIP3    H162404   5.819   1.186   0.712 -1.8711 -0.5828  1.1121
13663TIP3    H262405   5.918   1.139   0.817 -0.7349  0.7219  0.6494
13664TIP3   OH262406   2.528   2.537  16.398  0.1431 -0.1174  0.4376
13664TIP3    H162407   2.473   2.610  16.429  0.2821  0.2822 -0.2365
13664TIP3    H262408   2.589   2.578  16.337  2.0016 -0.3518  2.0885
13665TIP3   OH262409   6.247   5.683   1.991 -0.3410  0.3325 -0.2991
13665TIP3    H162410   6.342   5.698   1.992 -0.3976  1.3496 -3.9553
13665TIP3    H262411   6.238   5.590   2.013  1.5731  0.0407 -0.6068
13666TIP3   OH262412   1.231   5.303  10.712 -0.5026 -0.1842  0.6147
13666TIP3    H162413   1.163   5.291  10.646 -0.9796 -0.4644  1.1566
13666TIP3    H262414   1.184   5.321  10.793  0.0373 -1.2827  1.1920
13667TIP3   OH262415   1.055   1.795   3.011  0.6999 -0.1800 -0.4233
13667TIP3    H162416   1.087   1.862   3.072 -1.3401  1.3767 -1.0096
13667TIP3    H262417   1.108   1.807   2.932  1.0149  0.1102 -0.1667
13668TIP3   OH262418   1.893   1.228  11.282  0.4916  0.3021 -0.2269
13668TIP3    H162419   1.847   1.283  11.218  1.9467  0.1518 -1.4364
13668TIP3    H262420   1.843   1.146  11.284  0.6288  0.1693 -1.4833
13669TIP3   OH262421   6.509   0.894  16.642  0.0378  0.2664  0.5403
13669TIP3    H162422   6.511   0.805  16.606 -0.6573  0.7662 -0.7832
13669TIP3    H262423   6.420   0.903  16.677  0.1516  0.4005  0.7982
13670TIP3   OH262424   4.639   3.833  17.167 -0.0742  0.0649  0.2914
13670TIP3    H162425   4.654   3.832  17.073  1.0729  2.0972  0.4238
13670TIP3    H262426   4.726   3.822  17.206 -0.4345  0.0428  1.1174
13671TIP3   OH262427   1.575   1.374   1.279 -0.0244 -0.0947  0.0337
13671TIP3    H162428   1.572   1.413   1.367 -1.6245  2.3149 -1.0493
13671TIP3    H262429   1.525   1.434   1.224  0.8965 -1.6101 -2.5416
13672TIP3   OH262430   3.958   6.472   2.872 -0.5019 -0.2583 -0.0136
13672TIP3    H162431   3.921   6.406   2.931 -0.9928  0.6780  0.7359
13672TIP3    H262432   3.986   6.422   2.795 -0.5539 -1.3896  0.6854
13673TIP3   OH262433   5.265   1.662  13.919  0.2021  0.4836 -0.0297
13673TIP3    H162434   5.310   1.680  13.837 -0.4371 -0.7617 -0.6749
13673TIP3    H262435   5.240   1.570  13.913  0.0659  0.4004  1.5275
13674TIP3   OH262436   0.366   3.675  15.703  0.0935  0.4362  0.4538
13674TIP3    H162437   0.284   3.697  15.657 -0.5629 -1.8577  0.4493
13674TIP3    H262438   0.348   3.696  15.795 -0.2397  0.6440  0.3430
13675TIP3   OH262439   4.586   1.480  12.006 -0.5203 -0.2031 -0.0318
13675TIP3    H162440   4.524   1.437  11.948 -0.3491 -1.7128  0.8722
13675TIP3    H262441   4.573   1.437  12.091  0.8736  0.3230  0.4591
13676TIP3   OH262442   1.613   0.026  13.760  0.0084 -0.3363  0.4135
13676TIP3    H162443   1.669  -0.026  13.702  0.1307 -0.3710  0.5622
13676TIP3    H262444   1.647   0.008  13.848  0.1162  0.0703  0.4588
13677TIP3   OH262445   6.554   5.347   4.066  0.4168  0.0882  0.2664
13677TIP3    H162446   6.467   5.316   4.040  1.4233 -0.7149 -2.2886
13677TIP3    H262447   6.595   5.272   4.108  0.6834 -0.2395 -0.5666
13678TIP3   OH262448   4.262   0.038   5.837 -0.3605 -0.5109  0.1779
13678TIP3    H162449   4.323  -0.016   5.886  0.0497  0.3411  0.6142
13678TIP3    H262450   4.177  -0.004   5.850 -0.5297  0.5947  2.9752
13679TIP3   OH262451   6.416   4.368   0.099 -0.2767  0.0918  0.5057
13679TIP3    H162452   6.398   4.278   0.126  0.9133 -0.3618 -0.1581
13679TIP3    H262453   6.387   4.421   0.172  0.2064 -0.9252  1.4483
13680TIP3   OH262454   6.043   3.971  15.369  0.1835 -0.4358 -0.8258
13680TIP3    H162455   5.965   4.026  15.377 -0.0672 -0.5221 -2.5276
13680TIP3    H262456   6.015   3.885  15.398  0.5081  0.2393  1.6101
13681TIP3   OH262457   0.724   2.618   6.138  0.6731 -0.2463  0.0323
13681TIP3    H162458   0.671   2.697   6.138  0.3153 -0.4774 -0.9119
13681TIP3    H262459   0.713   2.581   6.225 -0.2427  0.0235  0.0299
13682TIP3   OH262460   6.690   4.638  15.539  0.2128  0.2188  0.5808
13682TIP3    H162461   6.641   4.598  15.611 -0.1440 -3.2548 -1.4680
13682TIP3    H262462   6.623   4.677  15.483 -0.0975 -2.4065 -0.9553
13683TIP3   OH262463   0.897   1.322   3.277 -0.8398  0.6656  0.0758
13683TIP3    H162464   0.935   1.396   3.230  0.0529 -0.3352 -0.8214
13683TIP3    H262465   0.856   1.269   3.209 -0.9317  0.0266  0.6264
13684TIP3   OH262466   4.391   6.154   0.187  0.0517  0.0030 -0.2680
13684TIP3    H162467   4.463   6.092   0.175  0.3876  0.8123 -2.6377
13684TIP3    H262468   4.434   6.236   0.209 -0.2288  0.1163 -0.1458
13685TIP3   OH262469   5.137   6.009  12.632  0.5323  0.1263 -0.4430
13685TIP3    H162470   5.196   5.934  12.639 -0.5202 -0.7765 -1.2180
13685TIP3    H262471   5.186   6.081  12.673 -0.1178 -1.8878  4.0951
13686TIP3   OH262472   5.548   2.186  13.648 -0.0598 -0.5881  0.1575
13686TIP3    H162473   5.603   2.128  13.701 -0.7699 -0.0509  1.5189
13686TIP3    H262474   5.605   2.216  13.578  1.3043 -0.2584  1.3815
13687TIP3   OH262475   3.801   3.625   4.017  0.3196  0.4382 -0.0346
13687TIP3    H162476   3.850   3.670   4.086  2.0898 -0.2320 -0.8172
13687TIP3    H262477   3.840   3.658   3.936 -0.8894  0.2768 -0.6843
13688TIP3   OH262478   4.089   3.481   4.352 -0.0064 -0.4227  0.3339
13688TIP3    H162479   4.015   3.424   4.373 -0.6880  0.0561 -0.7508
13688TIP3    H262480   4.066   3.565   4.392  0.1885 -0.4216  0.4420
13689TIP3   OH262481   5.227   2.424  11.788 -0.2572  0.1164  0.6366
13689TIP3    H162482   5.182   2.343  11.812 -0.1800  0.3920  1.7461
13689TIP3    H262483   5.316   2.396  11.765 -0.3251 -0.1450  0.6884
13690TIP3   OH262484   2.383   6.745   2.733  0.2263 -0.1361 -0.4152
13690TIP3    H162485   2.408   6.659   2.768  0.4510  0.9913  2.3464
13690TIP3    H262486   2.377   6.732   2.639  0.9034 -3.0247 -0.1036
13691TIP3   OH262487   2.723   1.631   1.874 -0.2235 -0.1499 -1.0804
13691TIP3    H162488   2.651   1.693   1.879  0.3412  0.4485 -0.2844
13691TIP3    H262489   2.790   1.676   1.823  0.6933  0.4119  0.5967
13692TIP3   OH262490   3.427   1.830   2.965 -0.3292  0.5299  0.0268
13692TIP3    H162491   3.333   1.843   2.968 -0.7281 -2.0346 -0.6645
13692TIP3    H262492   3.451   1.804   3.054 -0.5587 -0.4971 -0.2013
13693TIP3   OH262493   1.527   1.337  15.498 -0.5755  0.1085  0.1092
13693TIP3    H162494   1.444   1.302  15.530  0.2055 -2.0717 -0.1674
13693TIP3    H262495   1.557   1.273  15.434  2.0962  0.0434  1.3751
13694TIP3   OH262496   5.183   3.531   1.797 -0.2534  0.3425 -0.1374
13694TIP3    H162497   5.146   3.459   1.747  0.9305 -0.5813  0.2882
13694TIP3    H262498   5.157   3.512   1.888  0.7016  0.0344  0.0742
13695TIP3   OH262499   3.345   1.872  12.721 -0.0826  0.9126 -0.3922
13695TIP3    H162500   3.338   1.907  12.809  1.1436 -0.9201  0.4548
13695TIP3    H262501   3.376   1.946  12.668 -0.4759  1.9130  0.7502
13696TIP3   OH262502   3.841   5.900   3.340  0.3096 -0.2887  0.1155
13696TIP3    H162503   3.839   5.876   3.433 -2.4090  0.3514  0.2471
13696TIP3    H262504   3.847   5.816   3.294  0.7482 -0.6520  0.8139
13697TIP3   OH262505   6.505   5.986  10.640 -0.0418 -0.0189 -0.6208
13697TIP3    H162506   6.412   5.965  10.631 -0.0447 -0.1448 -0.3224
13697TIP3    H262507   6.531   5.945  10.723  0.3441 -0.1980 -0.8305
13698TIP3   OH262508   6.773   1.518   5.060 -0.2496  0.4642 -0.2137
13698TIP3    H162509   6.815   1.472   4.988 -0.5780  0.6021 -0.4956
13698TIP3    H262510   6.778   1.458   5.134  0.8581  0.6698 -0.1216
13699TIP3   OH262511   5.104   3.987   0.541 -0.1594  0.2094 -0.3599
13699TIP3    H162512   5.046   4.010   0.615  0.6403 -1.2619  0.7399
13699TIP3    H262513   5.059   3.915   0.497 -0.2554  0.5728 -0.8574
13700TIP3   OH262514   5.937   2.299  14.838  0.1941 -0.3404 -0.4659
13700TIP3    H162515   5.918   2.231  14.903  0.7303  0.5060  0.6053
13700TIP3    H262516   6.025   2.278  14.807 -0.0012 -0.6578 -0.7999
13701TIP3   OH262517   4.609   1.735   2.756  0.6470 -0.4612 -0.2645
13701TIP3    H162518   4.676   1.797   2.728  1.6368 -2.2564 -2.0124
13701TIP3    H262519   4.659   1.661   2.791 -0.4321 -1.5611 -1.0369
13702TIP3   OH262520   5.539   4.521   1.488  0.0834 -0.2978 -0.0531
13702TIP3    H162521   5.498   4.466   1.421  0.5263 -0.3059 -0.3279
13702TIP3    H262522   5.622   4.477   1.506 -0.0516 -0.3119  0.5308
13703TIP3   OH262523   4.955   4.917   1.007 -0.4825  0.3474 -0.9205
13703TIP3    H162524   4.946   4.825   1.032 -0.6399  0.3546 -0.9514
13703TIP3    H262525   5.047   4.925   0.981 -1.1299 -0.4484 -3.5863
13704TIP3   OH262526   2.037   6.014  14.900  0.5502 -0.0188  0.0998
13704TIP3    H162527   2.075   6.045  14.818 -0.8397  0.3850 -0.3952
13704TIP3    H262528   2.021   6.094  14.951 -2.4313  0.0782 -0.9165
13705TIP3   OH262529   2.795   3.850   6.348  0.4834 -0.4141 -0.0308
13705TIP3    H162530   2.887   3.863   6.369  0.4682 -0.1505 -0.1293
13705TIP3    H262531   2.748   3.893   6.420  0.4357 -2.2912  1.1168
13706TIP3   OH262532   1.994   0.959   0.144 -0.1607 -0.1533 -0.7058
13706TIP3    H162533   1.925   1.026   0.143 -1.0647 -1.0236  0.7817
13706TIP3    H262534   2.072   1.004   0.114 -0.9291  1.3945 -0.4257
13707TIP3   OH262535   0.051   4.819   5.530  0.0950 -0.0720  0.0780
13707TIP3    H162536   0.000   4.739   5.539  0.6570 -0.5726 -1.2258
13707TIP3    H262537  -0.015   4.887   5.515 -0.2164 -0.6581 -1.2272
13708TIP3   OH262538   1.870   0.487   0.404  0.5570 -0.0988  0.1944
13708TIP3    H162539   1.918   0.405   0.414  2.0960  0.6726 -0.7536
13708TIP3    H262540   1.778   0.460   0.396  0.7505 -1.5558  2.3621
13709TIP3   OH262541   3.683   2.772   1.157 -0.3339 -0.1474  0.1537
13709TIP3    H162542   3.647   2.809   1.237  1.8042 -2.2216  2.1476
13709TIP3    H262543   3.666   2.678   1.163  0.2391 -0.3972 -1.6123
13710TIP3   OH262544   2.008   4.942  11.242  0.2395 -0.1757  0.7476
13710TIP3    H162545   2.080   4.931  11.304  1.3112  0.7332 -0.3268
13710TIP3    H262546   2.048   4.934  11.156 -1.0930 -0.5173  0.1451
13711TIP3   OH262547   3.272   1.049  13.614  0.6402  0.2797 -0.3239
13711TIP3    H162548   3.197   1.025  13.667  1.8342 -0.7766  0.9447
13711TIP3    H262549   3.333   1.091  13.675  1.9462 -0.7802 -0.8560
13712TIP3   OH262550   6.433   1.548  16.829 -0.1726  0.2847 -0.0944
13712TIP3    H162551   6.404   1.627  16.875  0.9309  0.1331  0.8827
13712TIP3    H262552   6.368   1.482  16.850 -0.8230  0.7864 -0.4933
13713TIP3   OH262553   1.943   0.690  10.679 -0.5219  0.0108  0.7419
13713TIP3    H162554   1.882   0.757  10.647 -1.0798 -0.8142  0.0447
13713TIP3    H262555   1.915   0.673  10.769  0.0691  1.2195  1.1687
13714TIP3   OH262556   0.078   3.420   3.304 -0.2306  0.2954 -0.1615
13714TIP3    H162557   0.003   3.360   3.299  0.5253 -0.5615 -1.5369
13714TIP3    H262558   0.153   3.365   3.283  0.5944  1.5385 -0.4790
13715TIP3   OH262559   1.182   5.281  13.479 -0.1897 -0.0386 -0.3771
13715TIP3    H162560   1.186   5.290  13.384 -0.3830 -0.3476 -0.4144
13715TIP3    H262561   1.168   5.370  13.511 -1.0836 -0.0631 -0.6928
13716TIP3   OH262562   2.654   3.295   3.606  0.1409  0.6084  0.1588
13716TIP3    H162563   2.662   3.255   3.519  0.3013 -0.0690  0.4831
13716TIP3    H262564   2.587   3.362   3.595 -2.4306 -1.8427  0.3460
13717TIP3   OH262565   1.664   5.066  11.142  0.2578  0.1185 -0.0310
13717TIP3    H162566   1.743   5.066  11.088 -1.0700  0.3341 -2.0170
13717TIP3    H262567   1.647   5.158  11.159  0.9703  0.0276  1.2307
13718TIP3   OH262568   0.292   3.982  14.217 -0.1029 -0.3861 -0.3838
13718TIP3    H162569   0.376   3.939  14.235  0.5733  0.8872 -0.3592
13718TIP3    H262570   0.250   3.990  14.303  0.1011 -0.3434 -0.2876
13719TIP3   OH262571   5.440   3.019   4.475 -0.1278 -0.6135  0.4037
13719TIP3    H162572   5.406   3.106   4.495  1.0851 -0.3295  1.3647
13719TIP3    H262573   5.418   2.967   4.552  0.9744 -0.5879  0.7569
13720TIP3   OH262574   4.446   2.660   2.041  0.3014 -0.1093  0.6669
13720TIP3    H162575   4.491   2.636   2.122 -0.3068  0.0979  1.0719
13720TIP3    H262576   4.509   2.641   1.971  1.2508  0.7859  1.2692
13721TIP3   OH262577   1.991   0.885  11.750 -0.0596 -0.4629  0.3098
13721TIP3    H162578   2.019   0.794  11.748  1.1300 -0.1335  1.4981
13721TIP3    H262579   1.943   0.894  11.832  1.0063  0.3106  0.8548
13722TIP3   OH262580   5.054   5.650  12.905  0.0759  0.2153 -0.1607
13722TIP3    H162581   5.083   5.594  12.978  0.2955  1.0858  0.4241
13722TIP3    H262582   5.086   5.604  12.827  1.7325  0.3557  0.3950
13723TIP3   OH262583   5.219   5.199  12.657 -0.0143 -0.2755  0.5812
13723TIP3    H162584   5.235   5.245  12.739 -1.0749  0.2244  0.5117
13723TIP3    H262585   5.125   5.181  12.657 -0.1761  0.5302 -0.9369
13724TIP3   OH262586   2.686   6.046  13.895 -0.1020  0.4133  0.1123
13724TIP3    H162587   2.722   6.021  13.980  1.3053  0.3457 -0.4935
13724TIP3    H262588   2.704   6.140  13.888  0.2803  0.3046 -0.3517
13725TIP3   OH262589   5.569   5.914   3.741 -0.1292 -0.0612 -0.0424
13725TIP3    H162590   5.657   5.912   3.776 -0.0876  1.2704 -0.0555
13725TIP3    H262591   5.580   5.941   3.649 -0.5870  0.5934  0.0909
13726TIP3   OH262592   1.754   0.253   3.875  0.1966  0.3217  0.3380
13726TIP3    H162593   1.813   0.192   3.919  0.4598  0.5029  0.2442
13726TIP3    H262594   1.713   0.303   3.946  0.3559  0.3731  0.3949
13727TIP3   OH262595   4.963   6.624  13.836  0.2349  0.1135 -0.0643
13727TIP3    H162596   4.894   6.580  13.787  1.4541 -1.0923 -0.7502
13727TIP3    H262597   4.942   6.608  13.928 -1.5459  1.5719 -0.1809
13728TIP3   OH262598   5.183   5.609  13.513  0.1361  0.1301 -0.0100
13728TIP3    H162599   5.205   5.598  13.421  0.2038 -1.2295  0.1527
13728TIP3    H262600   5.232   5.540  13.558 -0.7635  0.0650  0.9098
13729TIP3   OH262601   5.758   4.868  12.588 -0.0698 -0.3588 -0.1212
13729TIP3    H162602   5.671   4.833  12.575 -1.3287  2.3144  0.7574
13729TIP3    H262603   5.763   4.888  12.682  2.2083 -2.2791  0.2281
13730TIP3   OH262604   1.935   2.772   0.571  0.3778  0.8254  0.4929
13730TIP3    H162605   1.912   2.767   0.479  4.7166 -0.2676 -0.6364
13730TIP3    H262606   1.928   2.864   0.594  0.4939  1.2757 -1.2732
13731TIP3   OH262607   3.157   0.410   0.991  0.1443 -0.6559  0.1742
13731TIP3    H162608   3.226   0.475   1.007 -0.0208 -0.6175  0.7197
13731TIP3    H262609   3.075   0.456   1.008  0.0054 -0.8645  0.0806
13732TIP3   OH262610   5.928   5.472   6.247 -0.2228 -0.2594 -0.2175
13732TIP3    H162611   5.863   5.441   6.310  0.3078  1.4827  1.2010
13732TIP3    H262612   5.882   5.472   6.163 -1.0273 -2.2788  0.1875
13733TIP3   OH262613   2.421   3.325  11.317  0.6984  0.2009 -0.0611
13733TIP3    H162614   2.356   3.347  11.385  0.0456  0.2117 -0.6828
13733TIP3    H262615   2.425   3.229  11.319  2.1853  0.2690  1.3799
13734TIP3   OH262616   3.511   4.781  17.101  0.1594  0.0613  0.3427
13734TIP3    H162617   3.436   4.834  17.127 -1.0610 -0.4923 -1.9277
13734TIP3    H262618   3.587   4.838  17.118 -0.9305  1.5186  0.4314
13735TIP3   OH262619   4.381   5.571   1.247 -0.1234 -0.0508 -0.3537
13735TIP3    H162620   4.441   5.532   1.312 -1.6641 -1.2937  0.3513
13735TIP3    H262621   4.334   5.496   1.210 -0.9216  0.8755 -1.2277
13736TIP3   OH262622   1.875   1.398  15.901  0.0796 -0.3474  0.1216
13736TIP3    H162623   1.944   1.397  15.967  0.8163 -0.8011 -0.6514
13736TIP3    H262624   1.855   1.490  15.888  0.9930 -0.1906 -0.1390
13737TIP3   OH262625   5.110   6.214   2.541 -0.0857  0.3890 -0.0823
13737TIP3    H162626   5.085   6.189   2.452  2.4961 -2.0195 -0.1754
13737TIP3    H262627   5.047   6.169   2.597 -0.7501  0.6449 -0.6098
13738TIP3   OH262628   6.469   1.258  10.858  0.2674 -0.0172 -0.8658
13738TIP3    H162629   6.439   1.349  10.867  0.7769  0.0723 -0.0130
13738TIP3    H262630   6.450   1.236  10.767 -2.0605  0.1490 -0.4585
13739TIP3   OH262631   2.395   4.980   3.759 -0.4631 -0.1753 -0.3636
13739TIP3    H162632   2.408   4.886   3.747  1.1584  0.2061 -1.7755
13739TIP3    H262633   2.314   4.987   3.810 -1.0004 -2.3041 -0.8833
13740TIP3   OH262634   5.789   3.827  14.275  0.0232  0.6130  0.3372
13740TIP3    H162635   5.820   3.914  14.300 -0.3987  0.3273  1.9063
13740TIP3    H262636   5.807   3.772  14.351 -1.2727 -0.3045  0.0003
13741TIP3   OH262637   6.621   6.507  15.049 -0.1474 -0.0961  0.2414
13741TIP3    H162638   6.582   6.594  15.044 -2.7109 -1.1958  0.2970
13741TIP3    H262639   6.665   6.505  15.133 -0.6657  0.9072  0.5446
13742TIP3   OH262640   2.625   0.144   4.779  0.4206  0.3063  0.1325
13742TIP3    H162641   2.647   0.164   4.870  0.1495 -1.1354  0.5323
13742TIP3    H262642   2.681   0.070   4.756 -1.9752 -1.6332  0.2812
13743TIP3   OH262643   2.917   4.334   2.783 -0.4460  0.1884 -0.4850
13743TIP3    H162644   2.860   4.262   2.806 -1.9564  1.9271  1.4302
13743TIP3    H262645   3.005   4.304   2.807 -0.9847 -1.1731 -0.1769
13744TIP3   OH262646   0.328   2.729  13.791  0.2993  0.5021 -0.4254
13744TIP3    H162647   0.402   2.757  13.845 -1.4557  2.5829  1.0129
13744TIP3    H262648   0.321   2.797  13.724  0.5128 -0.4242 -1.4058
13745TIP3   OH262649   2.843   2.016   5.943 -0.3661 -1.1399  0.5262
13745TIP3    H162650   2.920   1.961   5.960 -0.7706 -1.9345 -0.1605
13745TIP3    H262651   2.877   2.106   5.943  0.9382 -1.6058 -1.7373
13746TIP3   OH262652   0.118   2.051   6.232 -0.1315  0.3683  0.4639
13746TIP3    H162653   0.165   2.121   6.276  0.4783 -0.7832  1.6593
13746TIP3    H262654   0.037   2.092   6.202  0.0914  1.5129  1.4077
13747TIP3   OH262655   0.619   6.562   3.814  0.1898  0.5031  0.5181
13747TIP3    H162656   0.665   6.478   3.818  1.9985  1.4162 -0.4980
13747TIP3    H262657   0.529   6.540   3.835  0.6525 -1.6836  0.4059
13748TIP3   OH262658   5.466   5.034  11.170 -0.8770 -0.3382  0.2507
13748TIP3    H162659   5.446   4.946  11.138  1.0204 -0.9601  0.6817
13748TIP3    H262660   5.483   5.023  11.264  0.0526  0.3626  0.1748
13749TIP3   OH262661   6.085   0.786   0.632 -0.2565 -0.6509  0.0315
13749TIP3    H162662   6.141   0.708   0.639 -0.1794 -0.5470  0.6109
13749TIP3    H262663   6.127   0.838   0.564 -0.1894 -1.0178 -0.2135
13750TIP3   OH262664   4.277   2.570  13.189  0.3189 -0.2201  0.3262
13750TIP3    H162665   4.280   2.527  13.104 -1.3268 -0.7888  0.5481
13750TIP3    H262666   4.230   2.652  13.173  1.9205  0.7200  0.2635
13751TIP3   OH262667   4.787   1.603   4.803  0.0989  0.0421  0.5568
13751TIP3    H162668   4.857   1.667   4.817  0.1295  0.7937 -2.6415
13751TIP3    H262669   4.833   1.520   4.791  0.3145  0.1233  0.8299
13752TIP3   OH262670   2.893   4.329  12.418  0.4340  0.3721  0.0038
13752TIP3    H162671   2.799   4.316  12.428  0.2373  1.4941 -0.3588
13752TIP3    H262672   2.925   4.244  12.386 -0.0378 -0.8429  2.6598
13753TIP3   OH262673   0.254   1.300   0.245 -0.0767  0.5362 -0.1365
13753TIP3    H162674   0.302   1.330   0.168  1.6421 -0.5303  0.4859
13753TIP3    H262675   0.204   1.224   0.214 -0.1499  0.7059 -0.4344
13754TIP3   OH262676   2.940   1.883  13.488 -0.5956  0.1368 -0.4643
13754TIP3    H162677   2.932   1.816  13.556 -2.0939  1.2624  0.5187
13754TIP3    H262678   3.006   1.849  13.428 -0.4822 -1.6676  0.6404
13755TIP3   OH262679   6.610   4.184  15.036  0.4994 -0.6728  0.0206
13755TIP3    H162680   6.662   4.264  15.038  0.3816 -0.6013  0.2991
13755TIP3    H262681   6.675   4.113  15.033  0.6876 -0.6665  2.7684
13756TIP3   OH262682   4.534   6.214   1.916  0.0599 -0.3845  0.1871
13756TIP3    H162683   4.471   6.146   1.940  0.8669 -1.0179  0.5593
13756TIP3    H262684   4.481   6.286   1.883 -0.9001 -0.6551  1.1122
13757TIP3   OH262685   5.735   5.383  15.018 -0.4483 -0.2916 -0.1245
13757TIP3    H162686   5.710   5.293  14.994  0.3411 -0.8896  1.2214
13757TIP3    H262687   5.713   5.390  15.111  1.7783  0.0756  0.4119
13758TIP3   OH262688   6.033   3.635   5.243  0.4186 -0.4204  0.3212
13758TIP3    H162689   5.949   3.590   5.258 -0.8900  1.0901 -2.1783
13758TIP3    H262690   6.087   3.569   5.201 -0.1142 -0.8710  0.3258
13759TIP3   OH262691   2.446   4.213   0.090  0.2013 -0.1545  0.8545
13759TIP3    H162692   2.350   4.211   0.087  0.2584 -2.3340 -2.9307
13759TIP3    H262693   2.468   4.180   0.177 -2.4798 -1.2353  1.1686
13760TIP3   OH262694   1.732   3.208   5.185 -0.2086 -0.0722 -0.1152
13760TIP3    H162695   1.785   3.146   5.135 -0.1482 -1.2879  1.4415
13760TIP3    H262696   1.772   3.293   5.168  0.1015 -0.5266 -1.7472
13761TIP3   OH262697   5.529   2.361   5.173  0.3989 -1.0205 -0.7674
13761TIP3    H162698   5.548   2.274   5.208 -0.5474 -1.3743 -1.1209
13761TIP3    H262699   5.549   2.355   5.080 -0.4088 -1.0967 -0.9436
13762TIP3   OH262700   0.200   5.441   1.623 -0.0279  0.2062  0.2066
13762TIP3    H162701   0.145   5.363   1.611 -0.4312  0.4588  0.3800
13762TIP3    H262702   0.139   5.508   1.654  0.0331  1.0267 -1.4310
13763TIP3   OH262703   5.877   5.677   5.107 -0.0339 -0.2611 -0.0321
13763TIP3    H162704   5.877   5.757   5.160  1.5668  0.2272 -0.7390
13763TIP3    H262705   5.786   5.646   5.109 -0.2915  0.5729  1.7483
13764TIP3   OH262706   1.906   0.824  11.120  0.5361  0.0410 -0.1601
13764TIP3    H162707   1.886   0.905  11.167 -2.4267  1.0330 -2.9213
13764TIP3    H262708   1.846   0.759  11.157  1.1443 -0.2494  0.3173
13765TIP3   OH262709   0.818   3.533   2.947  0.3274 -0.4765  0.0405
13765TIP3    H162710   0.800   3.529   3.041 -1.3508  1.9596 -0.1413
13765TIP3    H262711   0.741   3.495   2.906 -0.2433  1.1351 -0.4219
13766TIP3   OH262712   5.075   6.099   3.410  0.1152 -0.0468  0.0905
13766TIP3    H162713   5.082   6.025   3.471 -0.3748  0.9358  1.3809
13766TIP3    H262714   5.147   6.157   3.434 -0.3281  0.5448  0.0047
13767TIP3   OH262715   1.680   6.264   2.024 -0.4476 -0.8041 -0.0273
13767TIP3    H162716   1.679   6.328   1.953  1.3247 -1.0157 -0.2625
13767TIP3    H262717   1.588   6.252   2.047 -0.8575  1.3106 -0.4480
13768TIP3   OH262718   3.557   2.013  14.887 -0.1091 -0.0462 -0.0882
13768TIP3    H162719   3.490   2.013  14.818 -0.2736  1.7882  0.0497
13768TIP3    H262720   3.617   2.083  14.862 -0.0070  0.4390  1.4934
13769TIP3   OH262721   4.199   1.981  10.375 -0.6705  0.1523  0.3162
13769TIP3    H162722   4.230   1.959  10.463  0.2034  3.3243  0.8538
13769TIP3    H262723   4.114   2.021  10.389 -1.2396 -0.7591 -0.4542
13770TIP3   OH262724   1.914   1.933   2.500 -0.0422 -0.8719 -0.1847
13770TIP3    H162725   1.997   1.914   2.456  0.2683 -0.2026  0.0971
13770TIP3    H262726   1.912   2.028   2.507 -1.0129 -0.8675 -0.5114
13771TIP3   OH262727   2.825   4.818   2.886 -0.8957  0.3926 -0.1611
13771TIP3    H162728   2.873   4.876   2.827  1.3313  1.6458  2.7463
13771TIP3    H262729   2.753   4.871   2.919 -1.0296  0.2975 -0.2982
13772TIP3   OH262730   1.276   4.555   3.192  0.2396 -0.1540  0.4792
13772TIP3    H162731   1.226   4.482   3.155  0.0583  0.6265 -0.8500
13772TIP3    H262732   1.345   4.572   3.127  1.0105  0.0870  1.3436
13773TIP3   OH262733   6.384   4.970  15.612 -0.5138 -0.5806 -0.3594
13773TIP3    H162734   6.401   5.045  15.554 -1.2176  0.1838  0.4119
13773TIP3    H262735   6.470   4.933  15.628 -0.1269  0.1941 -0.5765
13774TIP3   OH262736   5.282   6.325   5.496  0.0544 -0.5453 -0.1988
13774TIP3    H162737   5.194   6.357   5.474  0.5941  1.2171  0.1172
13774TIP3    H262738   5.337   6.358   5.425  1.0543  1.3858  1.4404
13775TIP3   OH262739   1.477   0.454   6.359 -0.2860  0.1406  0.1117
13775TIP3    H162740   1.456   0.544   6.333 -0.6219  0.0079 -0.0856
13775TIP3    H262741   1.406   0.429   6.418 -0.6954 -0.3068 -0.5522
13776TIP3   OH262742   4.654   4.474  11.391 -0.4665  0.7574  0.4304
13776TIP3    H162743   4.657   4.565  11.421 -2.1814  0.8736  0.3167
13776TIP3    H262744   4.660   4.422  11.471  0.6991  0.9604  0.4803
13777TIP3   OH262745   4.965   2.366  14.277  0.4297  0.3220  0.4548
13777TIP3    H162746   4.976   2.342  14.369 -1.5143 -2.4297  0.0330
13777TIP3    H262747   5.052   2.354  14.239  0.3355 -2.6529  1.0765
13778TIP3   OH262748   2.180   1.010   0.902  0.0283  0.0631  0.2474
13778TIP3    H162749   2.235   1.088   0.907  0.1441 -0.0740  1.3359
13778TIP3    H262750   2.093   1.040   0.926 -0.2318  0.1393 -0.7750
13779TIP3   OH262751   2.046   5.310  16.249  0.3823  0.5932  0.1421
13779TIP3    H162752   2.057   5.370  16.323 -0.8180  1.3035 -0.2346
13779TIP3    H262753   2.073   5.225  16.282  2.4057  1.3880  0.6079
13780TIP3   OH262754   6.079   4.656   1.420  0.4999  0.4009 -0.2958
13780TIP3    H162755   6.074   4.625   1.510  0.6791 -0.9447 -0.7366
13780TIP3    H262756   6.044   4.744   1.423 -1.9250 -0.5629  0.6447
13781TIP3   OH262757   5.186   2.974  15.567  0.1569  0.1089 -0.0737
13781TIP3    H162758   5.187   3.060  15.526 -2.0612  0.9113  1.4265
13781TIP3    H262759   5.171   2.913  15.494  1.9748  0.9317 -1.1736
13782TIP3   OH262760   1.540   4.773   4.284  0.3376  0.0147  0.1455
13782TIP3    H162761   1.475   4.703   4.274 -0.5690  0.3620  3.1686
13782TIP3    H262762   1.547   4.811   4.196 -2.5000 -0.9410 -0.5569
13783TIP3   OH262763   3.574   3.026  15.222 -0.2497  0.0496 -0.3822
13783TIP3    H162764   3.487   2.990  15.239 -0.5528  1.1353  0.4420
13783TIP3    H262765   3.629   2.991  15.292 -0.2954  0.3058 -0.2180
13784TIP3   OH262766   5.260   5.308  12.894  0.2292  0.1562 -0.3158
13784TIP3    H162767   5.332   5.306  12.958  0.6289  0.3948 -0.7536
13784TIP3    H262768   5.182   5.322  12.947  0.7715  2.3211 -0.0352
13785TIP3   OH262769   5.015   4.866  14.221 -0.5661  0.0812  0.5289
13785TIP3    H162770   5.033   4.960  14.231  0.6792 -0.3587  2.5271
13785TIP3    H262771   4.954   4.846  14.292  0.6299 -1.0195  1.2472
13786TIP3   OH262772   2.894   5.581  13.640  0.5352 -0.6520  0.1606
13786TIP3    H162773   2.934   5.603  13.555 -0.1803 -1.3425 -0.3615
13786TIP3    H262774   2.877   5.665  13.681 -0.3166 -0.2637 -0.9554
13787TIP3   OH262775   1.762   0.325  16.391 -0.0940 -0.1271  0.1862
13787TIP3    H162776   1.744   0.331  16.298 -1.0480  1.9176  0.4887
13787TIP3    H262777   1.791   0.234  16.404  0.6161 -0.2632 -2.1706
13788TIP3   OH262778   1.479   2.930  12.069  0.0922  0.3328 -0.1567
13788TIP3    H162779   1.542   2.901  12.003  0.3645  0.0982  0.2109
13788TIP3    H262780   1.403   2.959  12.017  0.0778 -0.4037 -0.5501
13789TIP3   OH262781   1.514   0.791   5.678  0.0404 -0.1363  0.3620
13789TIP3    H162782   1.429   0.812   5.639 -0.4331 -0.1804  1.3399
13789TIP3    H262783   1.517   0.843   5.758  0.8782 -0.2464  0.4089
13790TIP3   OH262784   0.507   2.904   1.527 -0.0873  0.1594 -0.0572
13790TIP3    H162785   0.573   2.847   1.566 -0.3014 -0.2280 -0.2562
13790TIP3    H262786   0.557   2.975   1.487  0.2166 -0.1929 -0.3098
13791TIP3   OH262787   3.043   6.554   1.941 -0.4551 -0.1987 -0.4554
13791TIP3    H162788   3.055   6.612   1.866 -0.0289 -0.1262 -0.3349
13791TIP3    H262789   3.130   6.547   1.979 -0.9401  0.9952  0.9339
13792TIP3   OH262790   0.279   5.696   4.306 -0.3738  0.2818  0.1153
13792TIP3    H162791   0.255   5.658   4.222  0.5932  0.6714 -0.3348
13792TIP3    H262792   0.204   5.676   4.363  0.2596 -2.5979  0.0002
13793TIP3   OH262793   2.474   5.253   1.587 -0.2127 -0.7060  0.0730
13793TIP3    H162794   2.425   5.309   1.647  1.2938  0.6173  0.0951
13793TIP3    H262795   2.521   5.192   1.644 -1.6951 -1.8960  0.0568
13794TIP3   OH262796   3.182   1.580   2.906 -0.4928 -0.0289 -0.1116
13794TIP3    H162797   3.101   1.623   2.933 -0.7610 -0.2805 -0.5170
13794TIP3    H262798   3.243   1.598   2.978 -0.8582  0.2901  0.1243
13795TIP3   OH262799   2.167   1.596   1.291  0.5362  0.4987 -0.5120
13795TIP3    H162800   2.220   1.558   1.221  2.6689  1.4401  0.5387
13795TIP3    H262801   2.196   1.551   1.370  1.4181  2.5561  0.4017
13796TIP3   OH262802   6.293   4.649  15.692  0.2696  0.4460  0.1254
13796TIP3    H162803   6.258   4.739  15.693 -0.1056  0.2945  0.7595
13796TIP3    H262804   6.220   4.596  15.661  1.4615  0.7488 -3.4520
13797TIP3   OH262805   2.263   3.448   2.379  0.1570 -0.0360 -0.2903
13797TIP3    H162806   2.185   3.393   2.373  0.2672 -0.1155 -1.0641
13797TIP3    H262807   2.301   3.446   2.291  0.8368  0.2872 -0.0106
13798TIP3   OH262808   5.835   4.436  13.594  0.0279  0.4616 -0.3589
13798TIP3    H162809   5.782   4.440  13.674  0.3726  0.9860 -0.1511
13798TIP3    H262810   5.843   4.528  13.566  1.0188  0.4132 -0.2531
13799TIP3   OH262811   6.231   5.566  15.350  0.5118 -0.1578 -0.2385
13799TIP3    H162812   6.181   5.608  15.280 -0.0415 -0.8565 -0.2622
13799TIP3    H262813   6.204   5.611  15.429 -0.1489 -0.5338 -0.2527
13800TIP3   OH262814   5.963   0.465   1.276 -0.0051 -0.5537  0.3623
13800TIP3    H162815   6.019   0.501   1.346  0.2031 -1.0441  0.4517
13800TIP3    H262816   5.892   0.528   1.268  0.8644  0.3819 -0.1529
13801TIP3   OH262817   0.083   2.315  12.573 -0.0595 -0.1963 -0.0467
13801TIP3    H162818   0.111   2.285  12.659  1.9316  1.1726 -0.1905
13801TIP3    H262819   0.039   2.399  12.591  1.8466  0.9220 -0.5193
13802TIP3   OH262820   2.354   1.089   5.481 -0.3182  0.5494  0.1931
13802TIP3    H162821   2.397   1.039   5.550  1.7082  3.6784  1.3019
13802TIP3    H262822   2.412   1.080   5.406 -0.2134  0.8247  0.2421
13803TIP3   OH262823   1.070   4.404  12.130 -0.3480  0.1703  0.1742
13803TIP3    H162824   1.043   4.474  12.069 -1.3667 -1.2105 -0.9796
13803TIP3    H262825   0.988   4.371  12.166  0.1324 -0.4926  0.6438
13804TIP3   OH262826   4.186   1.555  16.459  0.4023 -0.1664  0.4063
13804TIP3    H162827   4.166   1.568  16.366  0.7217  2.0126  0.6039
13804TIP3    H262828   4.118   1.495  16.490 -0.2146 -0.2347 -1.0504
13805TIP3   OH262829   1.694   0.767   0.233 -0.1776 -0.6556  0.2346
13805TIP3    H162830   1.644   0.845   0.209  0.2504 -0.9819 -1.8149
13805TIP3    H262831   1.630   0.707   0.270 -0.9235 -0.2539 -0.4114
13806TIP3   OH262832   0.701   1.513   6.477 -0.2392  0.4037 -0.4859
13806TIP3    H162833   0.687   1.605   6.500 -0.1222  0.8748 -2.2341
13806TIP3    H262834   0.790   1.494   6.506 -0.7259  0.4461  1.0867
13807TIP3   OH262835   2.167   5.239   4.780 -0.3279 -0.2648 -0.1939
13807TIP3    H162836   2.140   5.264   4.869 -2.3090  0.3432 -0.9309
13807TIP3    H262837   2.127   5.153   4.766 -0.8691  0.0951 -0.8678
13808TIP3   OH262838   4.356   3.740   2.963 -0.0362 -0.0200 -0.2671
13808TIP3    H162839   4.316   3.706   3.043  2.0799  0.5490  1.0817
13808TIP3    H262840   4.335   3.675   2.896  0.3076 -1.8380  1.3309
13809TIP3   OH262841   2.150   2.988   0.664  0.1229  0.2307  0.2248
13809TIP3    H162842   2.139   3.083   0.669  2.4604  0.5412  0.4440
13809TIP3    H262843   2.091   2.953   0.730 -3.0868  1.3146 -1.9970
13810TIP3   OH262844   2.228   2.926  12.824  0.5615  0.1599 -0.3611
13810TIP3    H162845   2.301   2.987  12.827  0.9933 -0.2821 -1.6207
13810TIP3    H262846   2.176   2.948  12.901  3.0058 -0.7724  1.6211
13811TIP3   OH262847   0.404   3.770  13.081  0.1902 -0.0529 -0.3814
13811TIP3    H162848   0.383   3.713  13.154  1.5951  0.1715  0.1995
13811TIP3    H262849   0.318   3.799  13.048 -0.4920 -1.6598 -0.0453
13812TIP3   OH262850   2.235   2.544   3.747  0.6142  0.4218  0.3846
13812TIP3    H162851   2.303   2.604   3.718  1.3316 -1.1371 -1.2995
13812TIP3    H262852   2.183   2.528   3.668  0.2936 -0.9538  0.8638
13813TIP3   OH262853   4.117   4.623   4.588 -1.0862  0.8234 -0.0755
13813TIP3    H162854   4.114   4.717   4.572 -0.0033  0.7444 -0.8343
13813TIP3    H262855   4.082   4.584   4.507 -0.9285  0.5591 -0.0184
13814TIP3   OH262856   5.262   4.371  11.581  0.3819  0.2481  0.2376
13814TIP3    H162857   5.321   4.406  11.515  0.7286 -0.1944  0.3089
13814TIP3    H262858   5.284   4.278  11.585 -0.3667  0.0687  0.2133
13815TIP3   OH262859   3.803   2.070  14.308  0.9358 -0.5260 -0.8653
13815TIP3    H162860   3.798   1.986  14.353  1.5006  0.0438  0.2889
13815TIP3    H262861   3.752   2.129  14.362 -1.1175 -0.5531 -2.7290
13816TIP3   OH262862   1.471   5.358   1.288  0.2506 -0.3951 -0.3787
13816TIP3    H162863   1.386   5.317   1.299  1.6751 -3.0431  1.4113
13816TIP3    H262864   1.489   5.400   1.372 -0.2277  2.1352 -1.4848
13817TIP3   OH262865   2.098   0.276   5.295 -0.9111  0.0651  0.4223
13817TIP3    H162866   2.161   0.212   5.263  2.3882  2.3417  2.0353
13817TIP3    H262867   2.024   0.224   5.326  0.2378 -2.7182 -1.3680
13818TIP3   OH262868   0.578   0.988   0.290  0.2703 -0.2512 -0.5251
13818TIP3    H162869   0.504   0.935   0.320 -0.4627  1.7841  1.4436
13818TIP3    H262870   0.548   1.023   0.205 -1.7876  1.8758  0.9973
13819TIP3   OH262871   6.624   2.636   1.444  0.2185 -0.1569 -0.8201
13819TIP3    H162872   6.604   2.693   1.369 -0.1741  2.0365  0.8841
13819TIP3    H262873   6.542   2.589   1.460  0.4247 -0.9478 -2.0003
13820TIP3   OH262874   3.098   1.208  11.514  0.3444 -0.1157  0.3505
13820TIP3    H162875   3.043   1.130  11.519  0.7153 -0.3294  1.0855
13820TIP3    H262876   3.124   1.212  11.422  0.1577 -0.7446  0.2633
13821TIP3   OH262877   4.805   3.378   0.417 -0.2205  0.3428  0.0932
13821TIP3    H162878   4.750   3.324   0.360  0.6122 -2.1478  1.5465
13821TIP3    H262879   4.879   3.404   0.362 -1.0179  0.6605 -0.8433
13822TIP3   OH262880   2.017   2.577   0.734  0.1933 -0.7033  0.0643
13822TIP3    H162881   1.943   2.519   0.750 -0.3082 -0.3543 -0.9597
13822TIP3    H262882   1.979   2.653   0.690  0.8032  0.5085  1.5850
13823TIP3   OH262883   1.044   0.037   3.333  0.1297 -0.0227 -0.0766
13823TIP3    H162884   1.110   0.081   3.386  0.4156  1.3559 -1.5041
13823TIP3    H262885   0.960   0.066   3.369  0.3215  0.7390 -0.2339
13824TIP3   OH262886   3.425   1.307   1.947  0.0962 -0.0194 -0.3421
13824TIP3    H162887   3.357   1.240   1.951 -0.3664  0.4170 -0.8292
13824TIP3    H262888   3.442   1.319   1.854  1.3815 -0.6612 -0.2012
13825TIP3   OH262889   1.928   4.042   1.144  0.3163  0.3810 -0.1794
13825TIP3    H162890   1.946   4.043   1.238 -0.2783 -0.2585 -0.0468
13825TIP3    H262891   1.972   3.963   1.112  0.1526  0.3600 -0.3556
13826TIP3   OH262892   1.271   6.037  14.256  0.0628 -0.0777 -0.4348
13826TIP3    H162893   1.283   5.983  14.178  1.9692 -0.0046 -0.2245
13826TIP3    H262894   1.212   6.106  14.229  2.1201  0.9833 -2.3567
13827TIP3   OH262895   4.311   2.167  15.287 -0.8937  0.0318 -0.0374
13827TIP3    H162896   4.291   2.139  15.376  0.1171  0.1509  0.2408
13827TIP3    H262897   4.399   2.132  15.270 -0.2609  1.6395 -0.2562
13828TIP3   OH262898   3.046   6.328   5.088 -0.3603  0.1026  0.5946
13828TIP3    H162899   3.117   6.378   5.048 -1.9121 -0.0453 -2.4497
13828TIP3    H262900   2.967   6.362   5.048 -1.7373 -2.1806  1.2790
13829TIP3   OH262901   2.514   0.503  14.364 -0.2130 -0.2236  0.2238
13829TIP3    H162902   2.588   0.442  14.359 -0.2546 -0.5198  2.6323
13829TIP3    H262903   2.470   0.495  14.279  1.0279 -1.9553 -0.2732
13830TIP3   OH262904   0.870   1.680  14.518 -0.1383  0.0234 -0.1506
13830TIP3    H162905   0.955   1.723  14.527 -0.1578 -0.1857  1.2158
13830TIP3    H262906   0.836   1.677  14.608 -1.0457 -0.9853 -0.5241
13831TIP3   OH262907   4.597   0.016  17.183  0.5476  0.9597 -0.0859
13831TIP3    H162908   4.601   0.107  17.215  1.3172  1.4105 -1.4094
13831TIP3    H262909   4.629   0.022  17.093 -2.2503 -0.1517 -1.2044
13832TIP3   OH262910   4.590   1.757  12.113 -0.3503  0.2626 -0.4646
13832TIP3    H162911   4.670   1.808  12.099 -1.6499  1.8305 -2.6308
13832TIP3    H262912   4.608   1.673  12.071  1.0437 -0.3137  1.2508
13833TIP3   OH262913   1.395   6.194   3.109  0.3932 -0.7847  0.0150
13833TIP3    H162914   1.338   6.268   3.131 -0.1706 -0.3728 -2.7232
13833TIP3    H262915   1.337   6.128   3.073  1.5136 -0.7056 -1.9865
13834TIP3   OH262916   1.361   0.225  15.708 -0.3442 -0.1692 -0.2622
13834TIP3    H162917   1.416   0.220  15.630  0.2781 -1.2055  0.2281
13834TIP3    H262918   1.375   0.141  15.752 -0.3537  0.5747  1.1861
13835TIP3   OH262919   2.453   1.626  12.843 -0.2060 -0.1648 -0.2842
13835TIP3    H162920   2.472   1.585  12.928 -0.6303  0.1844 -0.0212
13835TIP3    H262921   2.367   1.666  12.855 -0.7052 -0.9589 -1.1963
13836TIP3   OH262922   4.052   1.326   1.002  0.2987  0.4496  0.1053
13836TIP3    H162923   4.049   1.290   0.913  0.4967  0.4807  0.0859
13836TIP3    H262924   4.089   1.413   0.992  2.0065 -0.2063  0.4207
13837TIP3   OH262925   2.694   2.827   4.283 -0.0522  0.5033 -0.0738
13837TIP3    H162926   2.626   2.765   4.256 -1.0460  1.4291  0.2547
13837TIP3    H262927   2.646   2.901   4.319  1.2001 -0.0256  2.8270
13838TIP3   OH262928   4.024   3.404  16.044 -0.5528 -0.6471 -0.4810
13838TIP3    H162929   4.088   3.340  16.013  0.0962 -0.1108 -0.2580
13838TIP3    H262930   3.963   3.353  16.096 -0.2420 -1.1466 -0.5979
13839TIP3   OH262931   5.861   2.072   1.596 -0.2252 -0.1121  0.5245
13839TIP3    H162932   5.795   2.127   1.554  0.0661 -1.8832 -2.3320
13839TIP3    H262933   5.944   2.119   1.583 -0.1057 -0.7587 -1.1124
13840TIP3   OH262934   5.814   4.905   3.025  0.5343  0.5804 -0.1015
13840TIP3    H162935   5.759   4.981   3.047  1.9953  1.4184  0.7097
13840TIP3    H262936   5.854   4.880   3.108 -0.3435 -1.4213 -0.2576
13841TIP3   OH262937   6.115   1.144  17.236  0.2190 -0.3285 -0.2515
13841TIP3    H162938   6.125   1.213  17.302 -1.3124  0.2386 -0.5783
13841TIP3    H262939   6.083   1.068  17.285  0.7070 -0.4210 -0.0799
13842TIP3   OH262940   1.754   3.782  16.429 -0.3847  0.3753  0.0218
13842TIP3    H162941   1.689   3.716  16.406 -0.0499  0.0795 -0.0949
13842TIP3    H262942   1.705   3.863  16.439 -0.5618  0.4892 -1.6060
13843TIP3   OH262943   1.881   1.142   1.813 -0.5506 -0.0394 -0.0107
13843TIP3    H162944   1.935   1.168   1.739  0.0481 -2.6400 -0.5237
13843TIP3    H262945   1.861   1.224   1.859  0.9942  1.3121 -1.7247
13844TIP3   OH262946   3.964   0.952  13.970  0.1059  0.2706  0.3633
13844TIP3    H162947   3.937   1.043  13.983 -0.7530  0.2251 -0.9687
13844TIP3    H262948   3.984   0.947  13.876  2.7978 -0.2244  0.9305
13845TIP3   OH262949   2.869   4.944   5.959 -0.0426  0.0328 -0.4056
13845TIP3    H162950   2.894   4.883   6.029 -0.0062 -0.4718 -0.8514
13845TIP3    H262951   2.878   5.031   5.998  2.9907 -0.0702 -0.6928
13846TIP3   OH262952   2.437   4.403  13.152 -0.2494 -0.1814  0.2947
13846TIP3    H162953   2.509   4.429  13.095  0.1195  3.4359  2.2340
13846TIP3    H262954   2.478   4.347  13.218  0.5101  0.5931  0.4850
13847TIP3   OH262955   4.060   1.354   1.358  0.1114 -0.2885  0.2508
13847TIP3    H162956   3.968   1.336   1.378 -0.3278  3.1936  1.8334
13847TIP3    H262957   4.063   1.362   1.263 -1.2123 -0.4179  0.1908
13848TIP3   OH262958   1.792   4.886   4.526 -0.4519  0.2725  0.3057
13848TIP3    H162959   1.745   4.929   4.454  2.1056 -1.3115 -2.4395
13848TIP3    H262960   1.787   4.793   4.506  1.8872 -0.0626  1.1666
13849TIP3   OH262961   1.574   5.561  10.909  0.3417  0.1707  0.1902
13849TIP3    H162962   1.642   5.562  10.841  0.0364  0.7931 -0.1118
13849TIP3    H262963   1.502   5.611  10.872 -0.1147 -0.1121  0.6883
13850TIP3   OH262964   2.643   4.232   3.996 -0.1769  0.5572  0.1014
13850TIP3    H162965   2.674   4.249   4.085  1.7984  2.8800 -0.9400
13850TIP3    H262966   2.688   4.152   3.970  2.4948  2.0891 -0.1979
13851TIP3   OH262967   5.977   5.169   1.714 -0.3306 -0.0879 -0.0627
13851TIP3    H162968   5.991   5.096   1.654 -0.6484 -0.2930  0.1111
13851TIP3    H262969   6.058   5.173   1.765  0.5464  1.0626 -1.5374
13852TIP3   OH262970   4.189   6.092   5.199 -0.2650 -0.3979  0.3880
13852TIP3    H162971   4.097   6.077   5.178 -0.8690  0.0820  2.5668
13852TIP3    H262972   4.231   6.109   5.114 -2.4629  0.8652 -0.4852
13853TIP3   OH262973   6.351   0.175  15.461 -0.0576  0.5547 -0.3681
13853TIP3    H162974   6.336   0.087  15.496  2.6082 -0.7815 -2.3781
13853TIP3    H262975   6.301   0.178  15.380  1.2195  0.2469 -1.1806
13854TIP3   OH262976   1.534   0.870   1.711 -0.2867 -0.6096  0.3131
13854TIP3    H162977   1.516   0.785   1.671 -0.7874  0.0597 -0.9141
13854TIP3    H262978   1.625   0.864   1.741 -0.1154 -1.3471 -0.3540
13855TIP3   OH262979   4.177   4.150   6.553 -0.4875  0.1524 -0.1741
13855TIP3    H162980   4.167   4.062   6.515 -1.8777 -1.1030  2.9799
13855TIP3    H262981   4.266   4.151   6.588 -1.0120 -0.5886  1.2007
13856TIP3   OH262982   5.756   0.360   6.084 -0.3445  0.2551  0.3836
13856TIP3    H162983   5.701   0.321   6.152 -0.7293  0.9459  0.4800
13856TIP3    H262984   5.721   0.325   6.002 -1.3044  1.1150  0.4062
13857TIP3   OH262985   3.580   0.244  13.249  0.3393 -0.0221 -0.4791
13857TIP3    H162986   3.495   0.271  13.215  1.0355  0.8179 -1.6078
13857TIP3    H262987   3.561   0.203  13.334 -1.3437 -1.3563 -1.4791
13858TIP3   OH262988   4.985   1.560  13.060  0.1671 -0.0841 -0.1196
13858TIP3    H162989   5.072   1.548  13.099  0.1866 -0.0823 -0.1620
13858TIP3    H262990   4.970   1.655  13.065 -0.3787 -0.2361  1.0334
13859TIP3   OH262991   6.436   1.036   0.990 -0.1589 -0.1874  0.6011
13859TIP3    H162992   6.362   1.052   1.048  0.4710  0.4574  1.2323
13859TIP3    H262993   6.413   0.955   0.943 -1.7847  0.6282 -0.0597
13860TIP3   OH262994   4.178   2.052  12.548  0.4878 -0.7832 -0.0966
13860TIP3    H162995   4.196   2.039  12.641  1.0113 -1.4880 -0.2972
13860TIP3    H262996   4.225   2.132  12.525 -0.5218 -0.0064  0.4929
13861TIP3   OH262997   2.545   6.091  11.904 -0.2053  0.0438 -0.2798
13861TIP3    H162998   2.457   6.111  11.938  0.7732  1.7764  1.3265
13861TIP3    H262999   2.579   6.024  11.965 -0.3474 -0.5135 -0.8108
13862TIP3   OH263000   1.950   3.525   2.552 -0.6705  0.2114 -0.1410
13862TIP3    H163001   2.000   3.567   2.482 -1.7417  0.3573 -0.8378
13862TIP3    H263002   2.014   3.507   2.621  0.2112  0.9635 -0.7571
13863TIP3   OH263003   1.524   4.816   2.355  0.0412 -0.0815  0.2490
13863TIP3    H163004   1.492   4.792   2.441  0.5943  1.9538  1.0382
13863TIP3    H263005   1.452   4.862   2.314  0.2291  0.0914  0.1106
13864TIP3   OH263006   0.009   5.685  10.537 -0.2420 -0.5010 -0.2834
13864TIP3    H163007  -0.082   5.709  10.518 -0.2847 -1.1728 -0.9530
13864TIP3    H263008   0.058   5.767  10.529 -0.6486 -0.3147 -0.8714
13865TIP3   OH263009   0.585   2.877   0.281 -0.0446  1.0157 -0.1404
13865TIP3    H163010   0.530   2.942   0.237  1.1633  0.3775 -2.7219
13865TIP3    H263011   0.671   2.920   0.288  0.1957  0.4984  0.1259
13866TIP3   OH263012   3.546   1.571  14.245  0.0295 -0.0136  0.5354
13866TIP3    H163013   3.556   1.506  14.314  0.3182  0.7287  1.2032
13866TIP3    H263014   3.602   1.539  14.174  1.9878  0.6735  1.7225
13867TIP3   OH263015   6.373   0.116  14.677  0.1704 -0.1678 -0.1717
13867TIP3    H163016   6.286   0.097  14.640 -0.6534  1.5006  0.8666
13867TIP3    H263017   6.356   0.174  14.751  2.2239  0.5888 -0.2572
13868TIP3   OH263018   5.675   4.098   3.608  0.6884  0.1697  0.1672
13868TIP3    H163019   5.764   4.064   3.618  0.9106  0.9436  0.8837
13868TIP3    H263020   5.670   4.170   3.671  0.4808  2.0176 -1.9185
13869TIP3   OH263021   0.041   1.376  16.502  0.4336 -0.6044  0.1083
13869TIP3    H163022   0.118   1.432  16.503  0.5149 -0.7119 -0.0991
13869TIP3    H263023  -0.016   1.413  16.569  0.5444 -0.3543  0.0658
13870TIP3   OH263024   5.135   5.701  14.298  0.6073  0.2547  0.5518
13870TIP3    H163025   5.136   5.644  14.374  1.7435  0.4135  0.6538
13870TIP3    H263026   5.082   5.653  14.234 -0.9602  0.4486  1.6745
13871TIP3   OH263027   4.299   5.697  13.319 -0.4004  0.7138  0.2047
13871TIP3    H163028   4.349   5.764  13.272 -1.8587  1.9777  0.4247
13871TIP3    H263029   4.348   5.616  13.303  0.7452  1.6143 -1.0339
13872TIP3   OH263030   4.913   2.514  16.276 -0.5452 -0.0694  0.2889
13872TIP3    H163031   4.943   2.579  16.212 -0.6293 -0.8232 -0.5409
13872TIP3    H263032   4.821   2.500  16.254 -0.8289  0.3681  1.1954
13873TIP3   OH263033   1.848   5.034  17.213 -0.1047  0.5787  1.3382
13873TIP3    H163034   1.844   4.941  17.189  1.9794  0.2076  2.3111
13873TIP3    H263035   1.862   5.079  17.130  0.5594 -0.1429  1.0441
13874TIP3   OH263036   4.536   4.300   1.918  0.2220 -0.1702 -0.2048
13874TIP3    H163037   4.468   4.264   1.975 -1.3249  2.5813 -0.2525
13874TIP3    H263038   4.613   4.245   1.935 -1.7677 -2.8651  0.3945
13875TIP3   OH263039   6.513   4.007  16.680  0.0670  0.2151  0.0971
13875TIP3    H163040   6.573   4.048  16.742 -0.3093  1.7178 -0.5151
13875TIP3    H263041   6.426   4.024  16.717 -0.0501 -0.9293  0.3652
13876TIP3   OH263042   6.261   5.715  15.628  0.1621  0.2745 -0.1861
13876TIP3    H163043   6.327   5.647  15.629 -0.1895 -0.1450 -2.1701
13876TIP3    H263044   6.299   5.787  15.679  1.1705 -0.8128  0.6183
13877TIP3   OH263045   1.659   1.933   0.545  0.3497  0.5613 -0.4261
13877TIP3    H163046   1.701   1.944   0.630 -0.2746 -0.4936  0.0345
13877TIP3    H263047   1.729   1.900   0.488  0.7170  1.0606 -0.2647
13878TIP3   OH263048   6.465   4.931   1.829  0.0807  0.3379  0.0707
13878TIP3    H163049   6.469   4.836   1.834 -1.1877  0.2708  0.0673
13878TIP3    H263050   6.556   4.960   1.836  0.4978 -0.8840 -0.1999
13879TIP3   OH263051   1.583   1.348   3.571 -0.4756 -0.4492  0.8553
13879TIP3    H163052   1.609   1.400   3.495  0.5074 -0.0160  1.4745
13879TIP3    H263053   1.657   1.289   3.585 -1.8283 -2.4489 -0.2105
13880TIP3   OH263054   5.474   3.730   2.570  0.8801  0.2152  0.2002
13880TIP3    H163055   5.471   3.767   2.658  2.1321 -0.2514  0.4516
13880TIP3    H263056   5.395   3.764   2.527 -0.7736 -1.0975  2.0996
13881TIP3   OH263057   5.486   2.756   3.280 -0.5458 -0.0174 -0.4029
13881TIP3    H163058   5.555   2.709   3.233  0.2488  0.5009  0.2278
13881TIP3    H263059   5.485   2.716   3.367 -1.9221 -0.8843 -0.8135
13882TIP3   OH263060   5.035   2.409  10.521  0.6118 -0.1813  0.7548
13882TIP3    H163061   5.089   2.330  10.511 -0.2625 -0.6745 -0.1466
13882TIP3    H263062   4.947   2.375  10.541  0.4670  0.5931  1.4693
13883TIP3   OH263063   5.931   5.885   3.570  0.6574  0.0078  0.6925
13883TIP3    H163064   5.918   5.957   3.632 -2.8402  0.8331 -0.8359
13883TIP3    H263065   5.941   5.928   3.485 -1.5209 -1.2264 -0.2448
13884TIP3   OH263066   0.019   1.964  14.419  0.0289  0.2574  0.5762
13884TIP3    H163067   0.085   1.904  14.453 -1.4429 -0.8404  1.5307
13884TIP3    H263068  -0.032   1.912  14.357  0.0371  1.1003 -0.1668
13885TIP3   OH263069   1.201   1.479   2.473  0.7322  0.0371 -0.6326
13885TIP3    H163070   1.161   1.448   2.554  0.1399  1.7288 -0.2537
13885TIP3    H263071   1.244   1.561   2.497  2.2481 -0.4438 -1.6111
13886TIP3   OH263072   5.120   0.547  15.085 -0.0313 -0.0292  0.1714
13886TIP3    H163073   5.164   0.551  15.000  0.1579 -0.6428  0.2377
13886TIP3    H263074   5.189   0.560  15.149 -0.3371  1.4939  0.2089
13887TIP3   OH263075   5.179   3.850  13.121  0.0898 -0.0131  0.1826
13887TIP3    H163076   5.219   3.847  13.034  0.5242  0.8364  0.3438
13887TIP3    H263077   5.250   3.823  13.180 -0.2189 -0.6379  0.2718
13888TIP3   OH263078   1.316   3.430   0.637  0.3799  0.7252  0.0769
13888TIP3    H163079   1.249   3.494   0.660  0.3582  1.1582 -1.1734
13888TIP3    H263080   1.295   3.353   0.690 -0.0901  1.4438  0.9630
13889TIP3   OH263081   2.211   1.188   5.209  0.1540  0.6195  0.2093
13889TIP3    H163082   2.277   1.176   5.277 -0.2103  0.3427  0.5169
13889TIP3    H263083   2.128   1.196   5.257 -0.1148  0.3207 -0.2031
13890TIP3   OH263084   0.865   1.758   5.866  0.0353 -0.8409 -0.3461
13890TIP3    H163085   0.784   1.748   5.915  0.0807 -0.1076 -0.1137
13890TIP3    H263086   0.934   1.742   5.930  0.0797 -0.8226 -0.3890
13891TIP3   OH263087   1.368   3.382   0.059  0.1437  0.2875  0.5740
13891TIP3    H163088   1.283   3.418   0.033  0.9758  1.0029 -1.2479
13891TIP3    H263089   1.347   3.300   0.103 -1.4206 -0.4627 -1.4844
13892TIP3   OH263090   2.946   4.116  15.035 -0.2489  0.4453  0.0222
13892TIP3    H163091   2.982   4.029  15.019 -0.4192  0.5998 -1.2989
13892TIP3    H263092   2.890   4.106  15.112  0.1845 -0.4850  0.2177
13893TIP3   OH263093   5.749   3.019   3.176 -0.8599 -0.5195  0.4663
13893TIP3    H163094   5.833   3.058   3.150 -0.7843 -1.5664 -0.9353
13893TIP3    H263095   5.771   2.960   3.248 -0.7899  1.1191  1.7902
13894TIP3   OH263096   5.217   6.621   3.844  0.2149 -1.0245  0.0167
13894TIP3    H163097   5.247   6.632   3.934 -0.2593  0.7871 -0.0268
13894TIP3    H263098   5.128   6.585   3.853 -0.1787  0.0063  0.2990
13895TIP3   OH263099   4.711   1.409   0.855 -0.0802  0.1563  0.0359
13895TIP3    H163100   4.711   1.335   0.915  0.7171  0.6469  0.6457
13895TIP3    H263101   4.626   1.405   0.812  0.6618 -2.2165 -1.3041
13896TIP3   OH263102   4.868   3.786   1.497  0.3155  0.0402 -0.3354
13896TIP3    H163103   4.802   3.805   1.430 -0.1019  1.2767  0.4375
13896TIP3    H263104   4.944   3.838   1.471 -0.0265  0.9342  0.4484
13897TIP3   OH263105   0.965   6.748  15.689  0.5973 -0.2978 -0.3521
13897TIP3    H163106   1.042   6.692  15.677  1.3899  0.9707 -1.3118
13897TIP3    H263107   0.988   6.830  15.645 -0.7194  0.6330  0.6529
13898TIP3   OH263108   3.394   6.778   0.105 -0.0620  0.5290  0.0323
13898TIP3    H163109   3.337   6.701   0.097 -0.1776  0.7111 -0.9938
13898TIP3    H263110   3.336   6.852   0.091 -0.1758  0.8715  2.2108
13899TIP3   OH263111   6.411   2.278   2.661 -0.4666  0.3635 -0.3799
13899TIP3    H163112   6.447   2.361   2.694  1.0921 -1.1530  1.8348
13899TIP3    H263113   6.337   2.259   2.720  0.4387 -0.8184  0.3973
13900TIP3   OH263114   3.781   0.156  11.396 -0.1131 -0.4702 -0.3870
13900TIP3    H163115   3.744   0.114  11.318 -1.5797  1.4335 -0.7632
13900TIP3    H263116   3.757   0.097  11.468  0.1622 -1.6008 -1.1963
13901TIP3   OH263117   0.543   0.880  12.203 -0.4912  0.7719 -0.1093
13901TIP3    H163118   0.487   0.955  12.185 -0.5697  1.0395  1.1817
13901TIP3    H263119   0.559   0.840  12.117 -0.6966  2.0753 -0.7545
13902TIP3   OH263120   1.690   5.173  15.037  0.2769  0.0989  0.2167
13902TIP3    H163121   1.761   5.232  15.014  0.4912 -0.6637 -1.1715
13902TIP3    H263122   1.650   5.211  15.115  1.9086  0.7735  0.7264
13903TIP3   OH263123   2.158   6.606   1.276  0.3005 -0.3175 -0.1301
13903TIP3    H163124   2.159   6.639   1.186  2.2486 -0.6261 -0.2493
13903TIP3    H263125   2.183   6.682   1.329  3.9984 -1.2669 -0.3338
13904TIP3   OH263126   2.913   0.064   2.226  0.6445  0.2831 -0.4988
13904TIP3    H163127   2.987   0.114   2.261 -0.1896 -0.4821  2.5179
13904TIP3    H263128   2.950  -0.021   2.204  1.3620  1.0614 -2.3786
13905TIP3   OH263129   0.115   2.653   1.332  0.3041 -0.1164  0.4082
13905TIP3    H163130   0.115   2.689   1.244 -0.1485  1.2179  0.9423
13905TIP3    H263131   0.029   2.612   1.341 -1.0310  2.7288  1.3851
13906TIP3   OH263132   3.255   2.262  16.341  0.4400  0.2373 -0.0062
13906TIP3    H163133   3.249   2.334  16.278 -2.2608 -1.3718 -1.6822
13906TIP3    H263134   3.201   2.291  16.415  0.5325  0.5401 -0.0544
13907TIP3   OH263135   1.765   2.418  15.546  0.5299  0.1723 -0.0256
13907TIP3    H163136   1.789   2.505  15.512 -0.6759  1.0216  1.2318
13907TIP3    H263137   1.811   2.412  15.630  0.3588 -0.2687  0.0372
13908TIP3   OH263138   6.457   1.581   2.746 -0.0324 -0.3182  0.0692
13908TIP3    H163139   6.539   1.629   2.762  0.0707 -0.4251 -0.1356
13908TIP3    H263140   6.463   1.554   2.654 -0.2588 -0.4013  0.0799
13909TIP3   OH263141   6.117   5.719  16.551 -0.1416 -0.2657 -0.0254
13909TIP3    H163142   6.131   5.811  16.530  0.2599 -0.4990 -0.8187
13909TIP3    H263143   6.046   5.719  16.614 -1.1832  0.4981 -1.1738
13910TIP3   OH263144   1.558   5.149   2.825 -0.2372  0.1610 -0.0126
13910TIP3    H163145   1.653   5.139   2.813 -0.0476  1.2133  0.5574
13910TIP3    H263146   1.534   5.218   2.762 -0.5169  0.3503  0.3036
13911TIP3   OH263147   5.899   0.720   2.391 -0.1637 -0.0995 -0.0967
13911TIP3    H163148   5.934   0.805   2.418  0.9359 -0.2697 -0.9452
13911TIP3    H263149   5.889   0.671   2.472 -2.0154  1.2751  0.5433
13912TIP3   OH263150   3.296   1.778  13.332  0.0686  0.3576  0.0115
13912TIP3    H163151   3.286   1.723  13.410  1.9748  0.2713  0.2118
13912TIP3    H263152   3.257   1.726  13.261 -2.4014  0.7778  1.0117
13913TIP3   OH263153   2.846   3.950   4.289 -0.0118 -0.3491 -0.2367
13913TIP3    H163154   2.806   4.035   4.269 -0.6638 -0.9994 -1.7456
13913TIP3    H263155   2.939   3.969   4.299 -0.6049  1.1531  3.1156
13914TIP3   OH263156   0.449   2.440   4.169  0.0217  0.1241  0.1287
13914TIP3    H163157   0.418   2.511   4.113  0.7646 -2.1982 -3.3793
13914TIP3    H263158   0.371   2.386   4.184 -0.2621  0.9651  1.6747
13915TIP3   OH263159   5.090   4.677   0.801  0.1612 -0.4375 -0.0359
13915TIP3    H163160   5.133   4.743   0.855  0.1498  0.5228 -1.1814
13915TIP3    H263161   5.040   4.728   0.736 -1.1887 -1.5469  0.1079
13916TIP3   OH263162   0.344   6.218  13.713  0.3833  0.1258  0.7548
13916TIP3    H163163   0.403   6.241  13.785 -0.1361  0.2242  1.1533
13916TIP3    H263164   0.266   6.271  13.728 -0.2606 -0.8460  0.8756
13917TIP3   OH263165   2.488   2.596   2.801  0.2965  0.0146 -0.1298
13917TIP3    H163166   2.422   2.603   2.870  0.6712 -1.2636  0.3674
13917TIP3    H263167   2.466   2.515   2.754  0.3667  0.5872 -1.1796
13918TIP3   OH263168   0.850   3.035  12.787 -0.5163  0.2842 -0.0428
13918TIP3    H163169   0.925   2.997  12.742 -0.0726  0.1211  0.8364
13918TIP3    H263170   0.798   3.076  12.717  0.5190  0.6295 -0.6179
13919TIP3   OH263171   3.016   2.980  14.429 -0.1976 -0.0899 -1.0409
13919TIP3    H163172   2.931   2.956  14.466  0.2774 -0.7766 -0.3613
13919TIP3    H263173   3.048   2.899  14.388  1.1675 -0.5002  0.7615
13920TIP3   OH263174   5.568   3.946   1.648  0.0454  0.2352 -0.0376
13920TIP3    H163175   5.527   3.876   1.598 -0.8901 -0.5209  1.7527
13920TIP3    H263176   5.659   3.946   1.619 -0.6743  0.4277 -2.3924
13921TIP3   OH263177   1.472   4.946   4.498  0.0306  0.9223 -0.1080
13921TIP3    H163178   1.395   4.890   4.493  1.4880 -1.1313 -0.2510
13921TIP3    H263179   1.530   4.913   4.429  1.2243  2.1634  0.2809
13922TIP3   OH263180   4.734   6.218   1.497 -0.1397 -0.0867 -0.1953
13922TIP3    H163181   4.788   6.264   1.432  0.6696 -0.7615 -0.0077
13922TIP3    H263182   4.735   6.275   1.573 -0.7539  0.5139 -0.6301
13923TIP3   OH263183   2.276   1.364   6.270 -0.1379 -0.2091  0.4656
13923TIP3    H163184   2.192   1.320   6.260 -0.3098  0.5500 -1.9649
13923TIP3    H263185   2.253   1.456   6.287  0.1719  0.0678 -0.5550
13924TIP3   OH263186   5.672   4.297  15.437 -0.4481 -0.6082 -0.6189
13924TIP3    H163187   5.627   4.274  15.518 -0.5668 -2.6902 -1.2469
13924TIP3    H263188   5.602   4.303  15.372  0.0478 -3.0163 -1.4146
13925TIP3   OH263189   1.750   3.412   2.016 -0.0647  0.5251 -0.6754
13925TIP3    H163190   1.706   3.493   1.993 -0.8287  0.0962 -0.7252
13925TIP3    H263191   1.696   3.343   1.978  0.4467 -0.0205 -0.4268
13926TIP3   OH263192   0.480   5.002   0.816  0.1704  0.6498  0.5120
13926TIP3    H163193   0.484   4.944   0.892  0.4811 -0.4089 -0.3225
13926TIP3    H263194   0.399   5.052   0.830 -0.6136 -0.6642  0.7282
13927TIP3   OH263195   4.059   3.097   4.913  0.1515 -0.2097 -0.1966
13927TIP3    H163196   4.083   3.145   4.834  0.9541  0.5457  0.5028
13927TIP3    H263197   4.115   3.020   4.911  2.2625  1.2525  1.1238
13928TIP3   OH263198   5.745   4.334   3.927 -0.3523  0.1976 -0.3631
13928TIP3    H163199   5.789   4.259   3.966  0.0712  1.6897  2.1617
13928TIP3    H263200   5.661   4.339   3.973 -1.3233 -0.0148 -2.0580
13929TIP3   OH263201   2.664   3.046  15.681  0.0574  0.2963  0.2187
13929TIP3    H163202   2.660   3.109  15.754  0.4334  0.5888 -0.0112
13929TIP3    H263203   2.599   2.980  15.704 -0.2905  0.7270  0.5050
13930TIP3   OH263204   1.693   3.272  13.133  0.2158  0.9010 -0.7203
13930TIP3    H163205   1.704   3.218  13.211  3.6084 -1.4143 -2.6764
13930TIP3    H263206   1.744   3.351  13.151 -2.7296  2.4583  1.1482
13931TIP3   OH263207   4.865   2.527   0.566 -0.6353  0.4861 -0.5946
13931TIP3    H163208   4.795   2.530   0.632 -0.8280  1.4406 -0.8386
13931TIP3    H263209   4.830   2.473   0.496 -0.7617  0.1834 -0.3033
13932TIP3   OH263210   4.215   5.967  13.727  0.5463  0.3265 -0.0170
13932TIP3    H163211   4.166   5.895  13.765  0.8358  0.7425  1.1709
13932TIP3    H263212   4.217   5.948  13.633 -0.2844 -0.6468  0.1535
13933TIP3   OH263213   4.700   1.555   5.050  0.8333  0.3747 -0.4711
13933TIP3    H163214   4.691   1.589   4.961  1.4635  1.2153 -0.2222
13933TIP3    H263215   4.612   1.566   5.088 -0.0155 -2.0262 -1.6703
13934TIP3   OH263216   2.119   4.218   3.020 -0.5593 -0.2034 -0.0897
13934TIP3    H163217   2.076   4.303   3.010 -1.4641 -0.7166 -0.6435
13934TIP3    H263218   2.196   4.222   2.963 -0.9906 -0.0160 -0.6574
13935TIP3   OH263219   1.050   5.536   2.072 -0.1300  0.0187 -0.5752
13935TIP3    H163220   1.142   5.518   2.050  0.3424  2.6336 -0.9271
13935TIP3    H263221   1.021   5.458   2.119  1.3094 -2.1942 -3.2268
13936TIP3   OH263222   2.125   3.465   4.358 -0.1602 -0.0317 -0.2148
13936TIP3    H163223   2.191   3.434   4.420  0.0436  0.1591 -0.3337
13936TIP3    H263224   2.047   3.412   4.377 -0.6530  1.2077  1.3951
13937TIP3   OH263225   4.646   2.094  13.702  0.0214  0.0759  0.6886
13937TIP3    H163226   4.602   2.058  13.778  1.7370  0.4981  1.9090
13937TIP3    H263227   4.730   2.126  13.735  0.0802  1.8443 -1.0410
13938TIP3   OH263228   5.716   5.493  15.278 -0.0524  0.2347 -0.3081
13938TIP3    H163229   5.719   5.543  15.360  0.1755 -3.0658  1.8134
13938TIP3    H263230   5.664   5.415  15.300  0.7390 -1.1411 -3.0701
13939TIP3   OH263231   2.196   2.507  16.484  0.1674  0.4328  0.4012
13939TIP3    H163232   2.105   2.526  16.461  0.4484 -0.4795 -1.5396
13939TIP3    H263233   2.239   2.593  16.483 -0.5904  0.8320  1.0626
13940TIP3   OH263234   2.617   0.667   5.853  0.1816  0.1347  0.0171
13940TIP3    H163235   2.662   0.744   5.821 -0.9400  0.8474  0.1378
13940TIP3    H263236   2.605   0.611   5.776  1.9762 -0.4297  0.1279
13941TIP3   OH263237   5.640   5.605  13.529  0.0965  0.3856  0.6221
13941TIP3    H163238   5.669   5.584  13.618 -1.8476  0.3496  1.2763
13941TIP3    H263239   5.585   5.530  13.504  0.5674  0.4338 -0.5817
13942TIP3   OH263240   3.544   3.971   5.360 -0.6378 -0.3277 -0.3462
13942TIP3    H163241   3.480   4.033   5.327  0.4160 -0.1954 -2.2065
13942TIP3    H263242   3.548   3.988   5.454  1.5981  4.3491 -1.1432
13943TIP3   OH263243   6.624   1.196  15.394  0.0711  0.0142 -0.1748
13943TIP3    H163244   6.605   1.150  15.476  0.7605  0.6096  0.3257
13943TIP3    H263245   6.567   1.154  15.330 -1.2201  0.2407  0.8117
13944TIP3   OH263246   2.821   2.278   1.582  0.4316  0.2714 -0.0158
13944TIP3    H163247   2.883   2.232   1.525 -0.5434 -0.7737 -0.2618
13944TIP3    H263248   2.737   2.268   1.538 -0.0848  0.7535  0.8528
13945TIP3   OH263249   3.806   1.223  12.208  0.4999 -0.3983 -0.2586
13945TIP3    H163250   3.787   1.130  12.201  1.1319 -0.4536 -1.3861
13945TIP3    H263251   3.839   1.234  12.298 -0.1819 -1.1330  0.0942
13946TIP3   OH263252   5.146   2.454  12.351  0.2901  0.4348 -0.2150
13946TIP3    H163253   5.120   2.464  12.443 -1.3467 -0.9600 -0.4935
13946TIP3    H263254   5.128   2.539  12.312  1.3317  1.1544  0.8182
13947TIP3   OH263255   3.231   6.034   4.680  0.0648  0.3560 -0.0053
13947TIP3    H163256   3.196   6.059   4.765 -1.8442  0.6803 -0.8631
13947TIP3    H263257   3.323   6.013   4.697 -0.7516 -1.3815  2.4515
13948TIP3   OH263258   0.261   3.364  16.003  0.3783  0.3862 -0.1092
13948TIP3    H163259   0.336   3.421  15.987 -0.4588  0.8818 -2.4274
13948TIP3    H263260   0.292   3.276  15.981  1.0805  0.1734  1.6128
13949TIP3   OH263261   0.211   3.712   4.563  0.1043  0.4872 -0.2311
13949TIP3    H163262   0.251   3.772   4.500  1.3212  0.2515  0.3033
13949TIP3    H263263   0.178   3.768   4.633  1.7782  0.4981  0.5640
13950TIP3   OH263264   0.208   4.925   2.633 -0.6825 -0.1069 -0.1666
13950TIP3    H163265   0.298   4.930   2.666  0.1142 -1.4344 -2.0390
13950TIP3    H263266   0.183   4.833   2.646 -0.8323 -0.3402 -1.9851
13951TIP3   OH263267   4.715   5.978   5.778  0.0668  0.4254 -0.6964
13951TIP3    H163268   4.699   6.072   5.788  0.6804  0.4274  0.3549
13951TIP3    H263269   4.635   5.937   5.812  1.1360  0.5074  2.0786
13952TIP3   OH263270   3.693   4.974   4.910  0.1249  0.0222 -0.4193
13952TIP3    H163271   3.603   4.944   4.901 -0.0249 -0.0493  1.1099
13952TIP3    H263272   3.746   4.897   4.888 -0.2563 -1.2513  2.8383
13953TIP3   OH263273   0.234   1.625  16.989  0.4397 -0.4687 -0.4979
13953TIP3    H163274   0.291   1.623  16.912 -1.2260 -1.1382 -1.7370
13953TIP3    H263275   0.214   1.533  17.006  0.8232 -0.3278  0.7748
13954TIP3   OH263276   5.558   5.823   1.015  0.1024  0.6113 -0.0869
13954TIP3    H163277   5.593   5.838   0.928 -0.4112  2.4212  0.0040
13954TIP3    H263278   5.555   5.909   1.056 -3.7906  0.4642  0.1534
13955TIP3   OH263279   6.440   4.372   2.475  0.3045  0.5599  0.0722
13955TIP3    H163280   6.522   4.344   2.432 -0.2277 -0.4374 -0.3310
13955TIP3    H263281   6.387   4.292   2.477 -0.0459  0.8182  1.7773
13956TIP3   OH263282   5.876   4.322  16.819 -0.0012  0.1934  0.4953
13956TIP3    H163283   5.849   4.412  16.800 -0.2460 -0.3299 -1.6418
13956TIP3    H263284   5.964   4.332  16.856 -0.6426  1.4091  1.7684
13957TIP3   OH263285   4.637   4.970  11.756 -0.1829  0.0073 -0.6513
13957TIP3    H163286   4.692   5.030  11.807 -1.9777  1.1276  0.0200
13957TIP3    H263287   4.660   4.987  11.665  2.3501 -1.3082 -0.2845
13958TIP3   OH263288   1.983   0.202   1.329 -0.0508  0.1606  0.4881
13958TIP3    H163289   1.948   0.113   1.318  2.6549 -0.7522 -1.1968
13958TIP3    H263290   1.970   0.244   1.244  0.1415  0.8493  0.7937
13959TIP3   OH263291   3.738   6.722   0.898  0.1448  0.2600  0.4700
13959TIP3    H163292   3.761   6.640   0.855 -2.2656 -0.6183  0.7662
13959TIP3    H263293   3.709   6.779   0.827 -2.9356 -0.8722  0.7462
13960TIP3   OH263294   6.706   2.162   5.820  0.3072 -0.1210 -0.1787
13960TIP3    H163295   6.748   2.246   5.838  0.1946 -0.3263  1.1220
13960TIP3    H263296   6.670   2.135   5.904  0.0457 -1.3127 -0.6593
13961TIP3   OH263297   3.829   2.453  16.258 -0.7218  0.3176 -0.4110
13961TIP3    H163298   3.870   2.397  16.323  0.1630 -0.4060 -1.5773
13961TIP3    H263299   3.894   2.521  16.239 -0.9820  0.5386 -0.5224
13962TIP3   OH263300   4.336   1.833   2.330  0.2405 -0.6146  0.2582
13962TIP3    H163301   4.300   1.764   2.385 -1.7777 -0.8730 -1.3286
13962TIP3    H263302   4.314   1.807   2.241  1.3112  1.0297 -0.5198
13963TIP3   OH263303   3.205   5.707  15.873 -0.0018 -0.3900 -0.2731
13963TIP3    H163304   3.170   5.761  15.944  1.2793  0.0238  0.0495
13963TIP3    H263305   3.213   5.767  15.799  1.1963 -0.1745  0.0178
13964TIP3   OH263306   5.270   1.662  12.608  0.5099 -0.9379  0.2187
13964TIP3    H163307   5.282   1.612  12.527 -0.5200 -2.3988  0.9538
13964TIP3    H263308   5.265   1.596  12.677  0.6816  0.2626  1.4033
13965TIP3   OH263309   0.530   4.660  15.396 -0.1413  0.0550  0.2943
13965TIP3    H163310   0.562   4.607  15.323 -0.6544  1.2889 -0.8457
13965TIP3    H263311   0.529   4.600  15.470 -1.6860 -1.8070 -1.1816
13966TIP3   OH263312   3.695   4.360   0.856  0.2725 -0.3720  0.4040
13966TIP3    H163313   3.650   4.440   0.881  0.2539 -0.4461  0.6010
13966TIP3    H263314   3.637   4.290   0.884 -1.3078 -0.4119 -2.7044
13967TIP3   OH263315   0.737   0.819  14.754  0.5574  0.1243  1.2033
13967TIP3    H163316   0.707   0.744  14.806 -1.2356 -0.6605 -0.9021
13967TIP3    H263317   0.675   0.889  14.777 -0.2384 -0.2242  0.1665
13968TIP3   OH263318   3.913   4.184  11.778 -0.6795 -0.0035 -0.0405
13968TIP3    H163319   4.004   4.209  11.788 -0.7172 -0.6668  2.3551
13968TIP3    H263320   3.876   4.249  11.718  0.6521  2.0550  1.3059
13969TIP3   OH263321   0.936   2.456  11.925  0.2238 -0.2384  0.0918
13969TIP3    H163322   0.973   2.544  11.919  1.7432 -0.9421 -1.2949
13969TIP3    H263323   0.864   2.464  11.987  1.3185  1.6478  1.1474
13970TIP3   OH263324   6.160   3.448  16.474 -0.2087 -0.0208 -0.1587
13970TIP3    H163325   6.113   3.376  16.517  0.7328 -0.8847 -0.5534
13970TIP3    H263326   6.112   3.526  16.500 -1.3062 -0.7965  0.2097
13971TIP3   OH263327   4.038   3.741  13.834  0.4943 -0.3449 -0.0016
13971TIP3    H163328   3.984   3.668  13.864  0.9787 -0.6211  0.2054
13971TIP3    H263329   4.104   3.752  13.902  0.0447  0.6974  0.2777
13972TIP3   OH263330   6.356   2.403   3.672 -0.2186  0.0212 -0.0940
13972TIP3    H163331   6.284   2.352   3.710  0.2115 -0.7140 -0.2596
13972TIP3    H263332   6.316   2.487   3.649 -0.1520  1.0861  3.3958
13973TIP3   OH263333   6.388   3.366   4.468 -0.5229 -0.0853  0.3794
13973TIP3    H163334   6.297   3.359   4.496 -1.3367  0.9045 -1.9163
13973TIP3    H263335   6.406   3.282   4.425 -0.6594  0.1061 -0.0499
13974TIP3   OH263336   6.030   5.148  17.186 -0.7394  0.3684 -0.1174
13974TIP3    H163337   6.112   5.195  17.201 -1.1868  1.1702 -0.1947
13974TIP3    H263338   5.973   5.175  17.258 -1.7046  1.5619 -1.3041
13975TIP3   OH263339   6.440   2.153   3.451 -0.3152  0.4036  0.2131
13975TIP3    H163340   6.488   2.193   3.379  0.0494  0.7352  0.6414
13975TIP3    H263341   6.502   2.151   3.524 -1.7087  3.1914  1.5642
13976TIP3   OH263342   3.288   3.378  17.204 -0.0262  0.2695 -0.2378
13976TIP3    H163343   3.268   3.325  17.127 -0.9238  0.5359 -0.1889
13976TIP3    H263344   3.379   3.355  17.225  0.2802  0.3216 -1.4694
13977TIP3   OH263345   6.723   0.888  15.383  0.4040  0.2936  0.2686
13977TIP3    H163346   6.788   0.954  15.406  0.1039  0.8771 -0.5216
13977TIP3    H263347   6.687   0.858  15.466 -0.2718  1.9557  0.5809
13978TIP3   OH263348   1.096   5.212  11.548 -0.3909 -0.4307 -0.0846
13978TIP3    H163349   1.123   5.255  11.629 -0.9820  0.8061 -0.5426
13978TIP3    H263350   1.091   5.119  11.571  0.4028 -0.2064  1.0351
13979TIP3   OH263351   0.411   5.382   4.556  0.3232  0.1946 -0.5437
13979TIP3    H163352   0.406   5.364   4.462 -1.9528 -1.0884 -0.2285
13979TIP3    H263353   0.452   5.468   4.562  0.1313  0.4752 -2.7192
13980TIP3   OH263354   0.864   1.750  17.017  0.1843  0.7865 -0.3157
13980TIP3    H163355   0.910   1.821  16.973  1.4662 -1.7692 -3.3657
13980TIP3    H263356   0.928   1.714  17.078 -0.6292  2.5222  1.5878
13981TIP3   OH263357   0.832   3.156  16.642 -0.2584  0.1559 -0.3348
13981TIP3    H163358   0.743   3.120  16.648 -0.0783 -0.0746  1.2080
13981TIP3    H263359   0.871   3.112  16.567 -0.7824 -1.2136  0.1945
13982TIP3   OH263360   0.542   4.818   2.270  0.0142  0.0849 -0.4700
13982TIP3    H163361   0.634   4.810   2.244 -0.2036  1.2594 -1.5932
13982TIP3    H263362   0.493   4.822   2.188 -0.8565  1.6519  0.1021
13983TIP3   OH263363   5.567   4.049  11.673  0.1835 -0.4530  0.4808
13983TIP3    H163364   5.607   4.129  11.707 -1.1306  0.0633  0.8045
13983TIP3    H263365   5.518   4.013  11.746 -0.4813 -0.7559 -0.1084
13984TIP3   OH263366   2.606   6.565  15.046  0.2747  0.0128  0.3928
13984TIP3    H163367   2.573   6.614  14.971  1.1942  0.2195  0.1167
13984TIP3    H263368   2.624   6.478  15.011 -1.7247 -0.6668  0.9669
13985TIP3   OH263369   2.477   2.343  13.773  0.2671 -0.9507  0.3134
13985TIP3    H163370   2.408   2.278  13.764  0.2797 -0.9042 -0.0909
13985TIP3    H263371   2.438   2.425  13.742 -0.2073 -0.4619  2.0872
13986TIP3   OH263372   5.965   3.422   2.099 -0.2875  0.1550  0.2447
13986TIP3    H163373   5.945   3.356   2.033  1.3412  0.1607 -0.2724
13986TIP3    H263374   5.928   3.387   2.180 -1.2859 -0.3921 -0.4456
13987TIP3   OH263375   0.202   1.747  14.390 -0.3865  0.2405 -0.0090
13987TIP3    H163376   0.231   1.739  14.300 -1.6386 -0.9981 -0.3170
13987TIP3    H263377   0.281   1.770  14.439  0.5193 -0.1809 -1.2539
13988TIP3   OH263378   4.982   3.452  14.948 -0.0338  0.1977  0.6118
13988TIP3    H163379   4.920   3.413  15.010 -0.3127  0.7691  0.6917
13988TIP3    H263380   5.006   3.379  14.890 -1.5488  0.2001 -0.0451
13989TIP3   OH263381   6.751   0.819   5.864  0.4096 -0.1945 -0.4292
13989TIP3    H163382   6.693   0.776   5.800  0.7898  0.0347 -0.9374
13989TIP3    H263383   6.754   0.758   5.938  0.5847 -0.8407 -0.9566
13990TIP3   OH263384   1.693   4.220  13.190  0.0473  0.2865 -0.5001
13990TIP3    H163385   1.761   4.161  13.224  1.1333  0.3669 -2.4127
13990TIP3    H263386   1.630   4.162  13.147  0.9182  0.4631 -2.0521
13991TIP3   OH263387   2.485   5.390   5.263 -0.1792  0.4079 -0.6713
13991TIP3    H163388   2.404   5.351   5.230 -0.3799  0.6042 -0.4122
13991TIP3    H263389   2.487   5.367   5.356 -0.4777  1.3155 -0.4379
13992TIP3   OH263390   6.074   3.765   5.917  0.0079  0.2509  0.6030
13992TIP3    H163391   6.130   3.688   5.903 -0.4472 -0.1059  0.7207
13992TIP3    H263392   6.105   3.829   5.854 -0.7277 -0.6358 -0.6902
13993TIP3   OH263393   1.475   4.405   6.061  0.4348  0.6401  0.3756
13993TIP3    H163394   1.409   4.435   6.123  1.5025 -0.2534  1.9585
13993TIP3    H263395   1.496   4.316   6.089  1.9920  0.7517 -0.3789
13994TIP3   OH263396   5.273   6.778  11.761  0.2476  0.3314  0.6669
13994TIP3    H163397   5.263   6.788  11.666 -1.6756 -1.8235  0.5977
13994TIP3    H263398   5.326   6.698  11.771 -0.2011  0.1264  1.4273
13995TIP3   OH263399   3.355   4.175  13.734 -0.5124 -0.3413 -0.2767
13995TIP3    H163400   3.310   4.154  13.815 -1.0907 -0.9944 -0.7658
13995TIP3    H263401   3.394   4.262  13.750 -3.5393  1.1197 -0.4933
13996TIP3   OH263402   0.345   1.542   2.198 -0.0860 -0.4656  0.5052
13996TIP3    H163403   0.324   1.460   2.244  0.6338 -0.2645  1.2046
13996TIP3    H263404   0.370   1.602   2.268 -0.7712  0.4075  0.0023
13997TIP3   OH263405   3.435   4.735  16.209 -0.4789  0.5961 -0.3113
13997TIP3    H163406   3.389   4.739  16.125 -0.7688  1.3315 -0.1239
13997TIP3    H263407   3.441   4.826  16.237  1.2841  0.5212 -0.4286
13998TIP3   OH263408   1.690   3.737  13.982  0.1260 -0.2893 -0.1744
13998TIP3    H163409   1.601   3.720  13.952 -0.4127 -0.6485  1.5796
13998TIP3    H263410   1.745   3.677  13.932 -0.2960  1.6501 -3.0833
13999TIP3   OH263411   1.793   1.709   4.528 -0.8070  1.1381 -0.6116
13999TIP3    H163412   1.731   1.710   4.455  0.2123  1.5564 -1.4769
13999TIP3    H263413   1.879   1.711   4.487 -0.2201  1.3137  0.6044
14000TIP3   OH263414   0.991   4.500   5.155  0.0008 -0.2167  0.5806
14000TIP3    H163415   1.014   4.451   5.234 -1.1227 -1.1874  0.3185
14000TIP3    H263416   0.935   4.441   5.105  0.6972  0.3936 -0.9551
14001TIP3   OH263417   1.020   2.288  12.930 -0.3293  0.3812  0.6515
14001TIP3    H163418   0.979   2.212  12.972  1.8418 -0.8835  0.5604
14001TIP3    H263419   1.114   2.273  12.940  0.1465  2.8714  0.2696
14002TIP3   OH263420   3.885   1.417  15.587  0.0249 -0.5883 -0.2400
14002TIP3    H163421   3.832   1.368  15.650 -0.5751 -0.3116 -0.5331
14002TIP3    H263422   3.828   1.486  15.555  1.4095  1.3903  1.4421
14003TIP3   OH263423   3.706   0.300  12.037  0.8534  0.2092  0.1854
14003TIP3    H163424   3.632   0.315  11.979  0.6377 -0.9344  0.1491
14003TIP3    H263425   3.765   0.244  11.987 -0.1132 -2.1929  1.6490
14004TIP3   OH263426   3.434   0.982  15.734  0.0200  0.0296 -0.1220
14004TIP3    H163427   3.499   1.053  15.733  0.7167 -0.6121 -1.4347
14004TIP3    H263428   3.455   0.929  15.657 -3.6693  1.2358 -2.1051
14005TIP3   OH263429   4.984   1.230   3.763  0.3134 -0.4494  0.3265
14005TIP3    H163430   4.993   1.235   3.668 -0.4349 -0.2901  0.2590
14005TIP3    H263431   5.072   1.245   3.797  0.5288 -0.2236 -0.3339
14006TIP3   OH263432   5.771   0.071   2.759 -0.3838 -0.5227  0.2563
14006TIP3    H163433   5.707   0.034   2.819  1.0885 -2.2101  0.8279
14006TIP3    H263434   5.742   0.162   2.745 -3.8278 -1.7234 -0.8812
14007TIP3   OH263435   6.768   5.069   3.617 -0.2331  0.4728 -0.2478
14007TIP3    H163436   6.703   5.002   3.598  0.1186 -0.3498  1.3572
14007TIP3    H263437   6.777   5.068   3.712  3.4955 -0.7831 -0.5312
14008TIP3   OH263438   2.377   0.911   0.661  0.2948  0.1470  0.1505
14008TIP3    H163439   2.454   0.932   0.608  1.2945 -1.2684  0.9862
14008TIP3    H263440   2.371   0.982   0.724  1.5519 -0.2355  0.7346
14009TIP3   OH263441   6.251   5.098   0.239 -0.3872 -0.4302 -0.9886
14009TIP3    H163442   6.251   5.177   0.185  3.2246  0.5136  0.2387
14009TIP3    H263443   6.307   5.036   0.193 -1.6539 -1.6223 -0.9776
14010TIP3   OH263444   0.365   2.133  13.929 -0.2238 -0.1555  0.6696
14010TIP3    H163445   0.280   2.176  13.932  0.1572  0.8258 -1.4162
14010TIP3    H263446   0.428   2.202  13.950  0.1765 -0.4468  0.4485
14011TIP3   OH263447   0.097   2.881  11.740  0.0603 -0.4857  0.3891
14011TIP3    H163448   0.083   2.962  11.691 -2.3169 -0.1932  1.4880
14011TIP3    H263449   0.185   2.853  11.715  0.0645  1.2596 -1.6896
14012TIP3   OH263450   3.019   2.009   6.203 -0.6577 -0.3127 -0.5515
14012TIP3    H163451   2.924   2.015   6.215 -0.2635  1.3477  2.1454
14012TIP3    H263452   3.050   1.968   6.284  1.3728  3.7626  0.8405
14013TIP3   OH263453   0.010   0.877   3.015 -0.3386  0.1294 -0.1771
14013TIP3    H163454   0.031   0.940   3.084 -0.1891 -0.0441 -0.0646
14013TIP3    H263455  -0.083   0.858   3.028  0.3850 -2.2220  1.8959
14014TIP3   OH263456   2.829   0.978  16.052  0.1348  0.3041 -0.0887
14014TIP3    H163457   2.769   0.930  16.108 -0.4606 -0.6456 -1.5005
14014TIP3    H263458   2.913   0.935  16.064 -0.2426 -0.6482 -0.8014
14015TIP3   OH263459   5.849   2.177   3.664 -0.1155  0.1674  0.5366
14015TIP3    H163460   5.895   2.099   3.696 -1.6097 -0.4775  1.2240
14015TIP3    H263461   5.818   2.220   3.744 -0.7643  0.5316  0.0927
14016TIP3   OH263462   5.830   6.118   2.341  0.0667 -0.2964 -0.3395
14016TIP3    H163463   5.926   6.121   2.337  0.0105  1.1280 -0.9603
14016TIP3    H263464   5.802   6.137   2.251 -0.7751 -3.2963 -0.7556
14017TIP3   OH263465   4.803   6.085  16.368  0.3244  0.0068  0.3469
14017TIP3    H163466   4.888   6.118  16.340 -0.4343 -0.4189 -2.6605
14017TIP3    H263467   4.750   6.164  16.382  0.4453  0.2166 -0.3593
14018TIP3   OH263468   1.670   1.811  14.518  0.6035  0.0297  0.1563
14018TIP3    H163469   1.750   1.862  14.525  0.0196  0.7812  1.4977
14018TIP3    H263470   1.636   1.806  14.607 -0.2035 -1.3300 -0.2052
14019TIP3   OH263471   1.043   0.844  13.273  0.3308 -0.7013 -0.0913
14019TIP3    H163472   1.096   0.923  13.283 -2.0085  0.9392 -0.2110
14019TIP3    H263473   1.021   0.841  13.180  0.2179 -1.3682 -0.0488
14020TIP3   OH263474   4.734   5.349  11.096  0.2677  0.1951  0.1951
14020TIP3    H163475   4.788   5.413  11.050 -0.8546  1.4631  0.6166
14020TIP3    H263476   4.662   5.330  11.035  0.9485 -1.1846 -0.2011
14021TIP3   OH263477   2.070   4.971  15.937 -0.0718  0.3638 -0.3460
14021TIP3    H163478   2.015   4.900  15.971  1.6093 -0.5788  0.4639
14021TIP3    H263479   2.106   4.936  15.855  3.2658 -1.0202  1.6047
14022TIP3   OH263480   4.754   0.252   0.782  0.0430 -0.2484  0.0716
14022TIP3    H163481   4.791   0.266   0.869 -1.4702 -0.9276  0.8413
14022TIP3    H263482   4.783   0.165   0.756 -0.3329 -0.4558  0.3363
14023TIP3   OH263483   3.073   3.666  11.314 -0.0014 -0.0097  0.1004
14023TIP3    H163484   3.145   3.607  11.334 -1.3423 -2.2480 -1.4125
14023TIP3    H263485   3.052   3.707  11.398  3.6016  1.4413  0.3913
14024TIP3   OH263486   3.646   1.902  15.125  0.1419  0.8194 -0.8727
14024TIP3    H163487   3.631   1.939  15.038 -1.7104  1.3874 -0.3292
14024TIP3    H263488   3.681   1.975  15.176 -1.0077  1.1291 -0.5155
14025TIP3   OH263489   4.033   0.655  11.810  0.0897 -0.2477 -0.0778
14025TIP3    H163490   4.056   0.570  11.847 -0.3034 -1.1446 -1.8469
14025TIP3    H263491   4.011   0.637  11.718  0.8718  1.8946 -0.7222
14026TIP3   OH263492   4.625   1.765  14.543  0.0382 -0.1368 -0.2316
14026TIP3    H163493   4.631   1.713  14.462  1.0228 -1.1162  0.4664
14026TIP3    H263494   4.713   1.800  14.556  0.0644 -0.5991  0.8356
14027TIP3   OH263495   5.344   3.810  12.899 -0.1720  0.0295  0.1080
14027TIP3    H163496   5.432   3.845  12.888 -0.5813  1.0268 -0.0654
14027TIP3    H263497   5.354   3.715  12.890  1.1281  0.0065  1.6549
14028TIP3   OH263498   2.632   3.825  11.596 -0.4595  0.0258  0.8268
14028TIP3    H163499   2.612   3.749  11.541  1.9363  0.1626 -0.2682
14028TIP3    H263500   2.593   3.899  11.551  0.1287 -0.0826  0.1391
14029TIP3   OH263501   1.723   2.975  15.249 -0.1307 -0.1689 -0.0092
14029TIP3    H163502   1.641   2.977  15.299  0.3851  0.1311  0.8341
14029TIP3    H263503   1.740   3.066  15.227 -0.8858 -0.4082 -1.6211
14030TIP3   OH263504   2.062   4.297  14.936 -0.0391  0.2561 -0.0657
14030TIP3    H163505   2.096   4.208  14.941 -1.3707 -0.3731 -1.6417
14030TIP3    H263506   2.122   4.342  14.876  0.2085  0.2067  0.1452
14031TIP3   OH263507   4.823   2.785  17.175 -0.3546 -0.3691  0.3889
14031TIP3    H163508   4.813   2.810  17.267  2.5220  1.3582  0.3008
14031TIP3    H263509   4.891   2.718  17.176  1.0804  1.0497 -0.6435
14032TIP3   OH263510   5.713   1.392  16.896 -0.1456  0.4468  0.1827
14032TIP3    H163511   5.803   1.422  16.910  0.4309 -0.6562 -1.0945
14032TIP3    H263512   5.722   1.311  16.847 -1.9376  1.6526 -2.2155
14033TIP3   OH263513   5.880   1.587  12.286 -0.5773  0.6108 -0.4725
14033TIP3    H163514   5.969   1.587  12.321 -0.6964 -1.8511 -0.0558
14033TIP3    H263515   5.838   1.511  12.327 -2.2804  0.6307 -2.0910
14034TIP3   OH263516   0.368   2.333   0.549 -0.2390 -0.1326 -0.1384
14034TIP3    H163517   0.320   2.363   0.626 -1.5511 -0.1799 -0.9338
14034TIP3    H263518   0.331   2.383   0.476  0.8893 -0.1986 -0.7695
14035TIP3   OH263519   2.281   0.499  16.498 -0.1888 -0.5400  0.3817
14035TIP3    H163520   2.310   0.590  16.504 -0.0788 -0.7379  3.0899
14035TIP3    H263521   2.270   0.484  16.404  1.5376  1.7116 -0.2129
14036TIP3   OH263522   6.328   2.316   5.473  0.2866  0.8338  0.6226
14036TIP3    H163523   6.386   2.285   5.543  1.2852  3.5366  1.0543
14036TIP3    H263524   6.250   2.348   5.518 -0.1907  0.1657  0.2840
14037TIP3   OH263525   1.446   6.087   5.455  0.3488 -0.4154  0.0035
14037TIP3    H163526   1.372   6.072   5.513  0.1907 -0.3678 -0.1840
14037TIP3    H263527   1.515   6.122   5.512 -0.4106  1.4021 -0.1449
14038TIP3   OH263528   6.734   6.068   3.828  0.0389 -0.0898 -0.1151
14038TIP3    H163529   6.822   6.105   3.840  0.2169 -0.3991 -0.4132
14038TIP3    H263530   6.728   6.000   3.895  0.5086 -0.9004 -0.8747
14039TIP3   OH263531   5.705   1.050  12.351 -0.0426 -0.1453 -0.2354
14039TIP3    H163532   5.766   0.994  12.399  0.2207 -0.4431 -0.9094
14039TIP3    H263533   5.657   0.990  12.295 -1.0787  0.0721  0.4180
14040TIP3   OH263534   1.304   2.472   2.846  0.2481  0.1666 -0.4590
14040TIP3    H163535   1.279   2.404   2.909 -0.3433  0.6631 -0.1513
14040TIP3    H263536   1.224   2.522   2.832  0.8281  1.1606 -0.2347
14041TIP3   OH263537   6.582   1.219   3.148  0.4133  0.1407 -0.1249
14041TIP3    H163538   6.487   1.216   3.135  0.3039 -0.7220  0.8006
14041TIP3    H263539   6.618   1.214   3.060 -0.4071  1.1104 -0.5295
14042TIP3   OH263540   1.428   6.285   4.505  0.2363  0.0261  0.1940
14042TIP3    H163541   1.476   6.367   4.519 -0.1564  0.1046  1.1396
14042TIP3    H263542   1.453   6.231   4.580  0.3178 -0.6403 -0.3127
14043TIP3   OH263543   5.878   4.444  15.570 -0.0803 -0.2260  0.8457
14043TIP3    H163544   5.815   4.399  15.513  2.3442 -1.0884 -1.2297
14043TIP3    H263545   5.876   4.535  15.541 -0.6625 -0.1600  1.0806
14044TIP3   OH263546   3.003   0.658   1.932 -0.6836 -0.1980  0.2189
14044TIP3    H163547   2.955   0.709   1.867  1.0674  0.7458 -0.3572
14044TIP3    H263548   3.083   0.708   1.948  1.3340 -3.0012 -0.7346
14045TIP3   OH263549   2.062   0.471  11.289 -0.7329  0.0531  0.3316
14045TIP3    H163550   2.058   0.467  11.193 -0.9455  0.0629  0.3384
14045TIP3    H263551   1.983   0.519  11.313 -0.9595 -0.4255  0.5427
14046TIP3   OH263552   5.821   2.322   2.066  0.2510  0.3288 -0.3410
14046TIP3    H163553   5.773   2.391   2.019  2.1043  0.5192 -1.9851
14046TIP3    H263554   5.906   2.361   2.086  0.3932 -0.6308  0.9797
14047TIP3   OH263555   1.220   2.624   3.418  0.1101  0.2385  0.5970
14047TIP3    H163556   1.186   2.711   3.435  0.4131  0.3092  0.8489
14047TIP3    H263557   1.247   2.591   3.504  0.7366  0.2095  0.3948
14048TIP3   OH263558   5.318   0.171   4.895 -0.5420 -0.1584  0.3606
14048TIP3    H163559   5.340   0.264   4.896 -1.4712  0.0617  1.7336
14048TIP3    H263560   5.316   0.148   4.802  1.7655  0.6802  0.0640
14049TIP3   OH263561   1.530   1.274  16.217  0.3434 -0.1769 -0.2246
14049TIP3    H163562   1.542   1.337  16.289 -0.3688 -0.6932  0.3471
14049TIP3    H263563   1.436   1.258  16.215  0.2215  0.6629 -1.9899
14050TIP3   OH263564   5.414   1.888   5.605  0.1651 -0.1870  0.1910
14050TIP3    H163565   5.481   1.833   5.564 -0.5332  0.5854 -2.0580
14050TIP3    H263566   5.463   1.956   5.650  0.9558 -1.2553  0.9897
14051TIP3   OH263567   3.854   1.851  11.489 -0.4021  0.1166  0.4093
14051TIP3    H163568   3.808   1.818  11.412 -0.4678 -1.3036  1.0346
14051TIP3    H263569   3.798   1.923  11.521 -1.9239 -1.2183  0.8327
14052TIP3   OH263570   3.452   0.064   3.266 -0.1785  0.0076  0.3284
14052TIP3    H163571   3.366   0.022   3.264 -0.1406 -0.0348 -0.3671
14052TIP3    H263572   3.436   0.149   3.307 -0.7545  0.4483 -0.7786
14053TIP3   OH263573   0.173   1.507   4.859 -0.1461 -0.4125  0.4271
14053TIP3    H163574   0.209   1.431   4.812 -0.1581 -0.1705  0.0321
14053TIP3    H263575   0.105   1.542   4.801  1.5418  1.3934 -0.4985
14054TIP3   OH263576   5.312   5.997  10.806 -0.3143 -0.3856  0.3909
14054TIP3    H163577   5.283   5.949  10.884  0.0342  0.1441  0.8523
14054TIP3    H263578   5.294   6.089  10.827  2.6638  0.0625  1.1057
14055TIP3   OH263579   6.141   4.348  16.883 -0.1027 -0.2957  0.4032
14055TIP3    H163580   6.202   4.378  16.815 -0.5886 -0.5938 -0.1765
14055TIP3    H263581   6.196   4.333  16.960  0.4779 -0.0641  0.0364
14056TIP3   OH263582   5.960   1.673   2.852  1.1756 -0.5711 -0.4762
14056TIP3    H163583   6.054   1.656   2.850  0.6705 -3.9174  0.9759
14056TIP3    H263584   5.939   1.705   2.764  3.6019  0.0037 -0.8709
14057TIP3   OH263585   6.678   4.452  13.528 -0.3632 -0.1801 -0.3325
14057TIP3    H163586   6.770   4.450  13.554 -0.4259  0.9266  0.0325
14057TIP3    H263587   6.637   4.381  13.577  0.2103 -0.3888 -0.1508
14058TIP3   OH263588   2.052   2.072   3.468  0.3798  0.2394 -0.1916
14058TIP3    H163589   2.108   2.095   3.542 -1.7507  1.7224  0.9936
14058TIP3    H263590   1.991   2.008   3.504  1.6194 -1.8216 -1.6313
14059TIP3   OH263591   4.589   1.151  11.377 -0.7090 -0.1221  0.2697
14059TIP3    H163592   4.625   1.155  11.466 -0.3818  0.2445  0.1233
14059TIP3    H263593   4.546   1.065  11.372  2.2554 -1.6564 -0.3337
14060TIP3   OH263594   3.425   0.241   0.902 -0.0528 -0.5584 -0.5625
14060TIP3    H163595   3.492   0.302   0.871 -0.3101 -0.2161 -0.4471
14060TIP3    H263596   3.346   0.294   0.910  0.1955 -0.4509  1.4599
14061TIP3   OH263597   5.673   3.530  12.526 -0.2166  0.0428  0.2227
14061TIP3    H163598   5.717   3.462  12.578 -0.8020 -1.4349 -1.1764
14061TIP3    H263599   5.719   3.611  12.549  0.5602 -0.8186  1.8478
14062TIP3   OH263600   4.251   2.250  11.021  0.0261 -0.2001 -0.3242
14062TIP3    H163601   4.295   2.221  10.940  1.0796 -0.0672  0.1851
14062TIP3    H263602   4.323   2.278  11.078 -0.8463  1.8973 -0.1938
14063TIP3   OH263603   3.894   3.114   0.715 -0.1581 -0.8696 -0.1848
14063TIP3    H163604   3.909   3.201   0.750 -0.7309  0.0284 -2.0886
14063TIP3    H263605   3.835   3.072   0.777 -1.9385  1.0203 -0.5536
14064TIP3   OH263606   4.567   6.608  16.252  0.3929 -0.2689 -0.6426
14064TIP3    H163607   4.543   6.692  16.214  1.1146  0.2345 -0.0085
14064TIP3    H263608   4.522   6.543  16.199 -1.3453  0.5957 -0.2527
14065TIP3   OH263609   5.415   4.185  14.672  0.0161 -0.9752  0.0335
14065TIP3    H163610   5.488   4.199  14.612 -0.6114  1.0715 -0.3023
14065TIP3    H263611   5.446   4.215  14.757 -0.0917 -1.0512  0.1000
14066TIP3   OH263612   0.693   6.599   2.668  0.1953  0.3209 -0.0508
14066TIP3    H163613   0.773   6.551   2.646 -0.1062  0.9310 -2.5912
14066TIP3    H263614   0.633   6.530   2.698  0.5729 -0.6035 -1.3379
14067TIP3   OH263615   4.602   1.337   2.512  0.0730  0.3305  0.3792
14067TIP3    H163616   4.516   1.306   2.483  0.5394 -0.5944 -0.0528
14067TIP3    H263617   4.626   1.404   2.449  0.2858 -0.4046 -0.3329
14068TIP3   OH263618   3.503   4.144   1.089 -0.2031 -0.6724  0.0660
14068TIP3    H163619   3.428   4.193   1.121 -0.1402 -0.0290 -0.7559
14068TIP3    H263620   3.466   4.061   1.058 -0.4441 -0.7512  0.5706
14069TIP3   OH263621   1.653   6.606  10.779 -0.0767 -0.1692  0.0841
14069TIP3    H163622   1.656   6.697  10.809 -2.3013  0.2092 -0.7873
14069TIP3    H263623   1.561   6.581  10.785  0.2797 -1.8738 -1.1587
14070TIP3   OH263624   3.698   0.698   4.691  0.3515 -0.4669 -0.1539
14070TIP3    H163625   3.627   0.682   4.629  0.2041  0.5793 -0.2728
14070TIP3    H263626   3.712   0.614   4.734  0.5910 -1.2609 -1.7444
14071TIP3   OH263627   2.329   6.110   3.859  0.0593 -0.0761 -0.0964
14071TIP3    H163628   2.252   6.163   3.839  0.7599  1.3189  0.7929
14071TIP3    H263629   2.307   6.065   3.940  0.4935  1.0004  0.6303
14072TIP3   OH263630   6.177   2.439   5.693 -0.7003  0.2491 -0.1373
14072TIP3    H163631   6.192   2.520   5.645 -2.5589 -0.2354 -1.5802
14072TIP3    H263632   6.140   2.467   5.777  0.8233  0.9943  0.3086
14073TIP3   OH263633   2.139   5.665  11.789  0.8685  0.6943  0.1449
14073TIP3    H163634   2.059   5.695  11.745  0.9012 -0.0342 -0.4147
14073TIP3    H263635   2.205   5.730  11.765  0.4902  1.1956  0.4533
14074TIP3   OH263636   0.551   1.309   0.739 -0.3133 -0.4371 -0.1013
14074TIP3    H163637   0.573   1.277   0.652 -1.0368  0.0084 -0.4508
14074TIP3    H263638   0.460   1.337   0.732  0.1691  1.3039  0.2965
14075TIP3   OH263639   4.199   1.880   1.598 -0.3746  0.1537 -0.6245
14075TIP3    H163640   4.160   1.922   1.521  0.2797 -1.5530 -1.9201
14075TIP3    H263641   4.124   1.861   1.655 -0.9804  0.5687 -1.2732
14076TIP3   OH263642   5.673   6.321   5.099 -0.6633  0.4431  0.0325
14076TIP3    H163643   5.653   6.246   5.155  0.5028 -0.2431 -0.4336
14076TIP3    H263644   5.744   6.366   5.145 -2.3831  2.1280  1.0584
14077TIP3   OH263645   5.290   0.055   0.579 -0.6900 -0.0009  0.7420
14077TIP3    H163646   5.372   0.019   0.544 -0.6771 -0.6943  1.4711
14077TIP3    H263647   5.224  -0.011   0.559 -1.3281  1.0696 -0.8884
14078TIP3   OH263648   4.303   1.387  15.028 -0.1626 -0.0178  0.2595
14078TIP3    H163649   4.377   1.327  15.035  0.3737  0.6853  0.5914
14078TIP3    H263650   4.266   1.390  15.117 -1.4898 -1.4952 -0.2044
14079TIP3   OH263651   2.823   0.295   3.866 -0.3858  0.5376  0.2415
14079TIP3    H163652   2.856   0.256   3.947  0.1169  0.3123 -0.0672
14079TIP3    H263653   2.739   0.333   3.890 -0.4078  0.1515  0.7857
14080TIP3   OH263654   0.238   1.550   1.336 -0.2713 -0.4898 -0.0885
14080TIP3    H163655   0.225   1.456   1.334 -0.5615 -0.4362 -0.7146
14080TIP3    H263656   0.152   1.587   1.354 -0.0736 -0.3601  0.6242
14081TIP3   OH263657   5.415   6.184  15.245 -0.3049  0.0418 -0.1249
14081TIP3    H163658   5.366   6.105  15.223 -1.1160  0.6162 -0.4483
14081TIP3    H263659   5.422   6.232  15.162  0.5818  0.0932 -0.0288
14082TIP3   OH263660   2.141   5.216  15.003  0.0037 -0.1926  0.0936
14082TIP3    H163661   2.079   5.162  14.954  2.2240 -1.5398 -1.2991
14082TIP3    H263662   2.131   5.304  14.966 -1.5096 -0.2465  0.3361
14083TIP3   OH263663   3.381   0.559   4.310 -0.4625 -0.3378 -0.3313
14083TIP3    H163664   3.396   0.615   4.234  0.0205 -1.2927 -0.9442
14083TIP3    H263665   3.347   0.478   4.273 -0.9873 -0.5267  0.5461
14084TIP3   OH263666   0.043   1.015  16.379  0.2776  0.6871 -0.2494
14084TIP3    H163667  -0.044   1.051  16.399  0.4380  0.1129  1.6458
14084TIP3    H263668   0.065   0.963  16.457  1.8564 -0.0597 -1.1727
14085TIP3   OH263669   3.669   4.236  13.087  0.5902  0.2853  0.2420
14085TIP3    H163670   3.685   4.223  13.181  0.9922 -0.0548  0.1297
14085TIP3    H263671   3.692   4.328  13.071 -0.2645  0.5738  0.6336
14086TIP3   OH263672   2.212   3.162  15.703  0.8071 -0.4184 -0.7704
14086TIP3    H163673   2.243   3.157  15.793  0.3636 -2.2322 -0.7056
14086TIP3    H263674   2.265   3.231  15.663 -0.6360  2.1478  1.5253
14087TIP3   OH263675   2.866   0.273  13.958 -0.4576  0.5770 -0.5249
14087TIP3    H163676   2.790   0.331  13.955 -0.6146  0.6087  2.1874
14087TIP3    H263677   2.831   0.188  13.985 -0.0166 -0.4050 -2.9616
14088TIP3   OH263678   3.341   5.879   3.847 -0.1662 -0.0791 -0.3275
14088TIP3    H163679   3.273   5.864   3.781  0.9935  0.5873 -1.6742
14088TIP3    H263680   3.378   5.964   3.824 -0.1388  0.4392  1.5347
14089TIP3   OH263681   0.860   4.016   2.908 -0.3402 -0.2248 -0.4909
14089TIP3    H163682   0.825   4.039   2.822 -0.4261  0.1723 -0.3476
14089TIP3    H263683   0.875   3.921   2.902 -1.9150 -0.4974 -0.3927
14090TIP3   OH263684   6.736   5.998  16.635 -0.2538 -0.0951 -1.0325
14090TIP3    H163685   6.782   5.928  16.590 -0.0602 -0.7276  0.1396
14090TIP3    H263686   6.759   5.988  16.728 -0.2140  1.5064 -0.8390
14091TIP3   OH263687   2.545   2.110  11.628  0.2955 -0.5458  0.2674
14091TIP3    H163688   2.496   2.043  11.581 -2.8439  1.0727  1.1193
14091TIP3    H263689   2.534   2.087  11.720 -1.3811  1.4892  0.5957
14092TIP3   OH263690   1.768   5.652  13.712 -0.3760 -0.3725  0.1248
14092TIP3    H163691   1.688   5.683  13.668 -0.5849 -0.1721  0.6418
14092TIP3    H263692   1.783   5.716  13.781 -1.1674 -1.7544  1.6238
14093TIP3   OH263693   3.364   4.707   4.490  0.5755  0.0198  0.1003
14093TIP3    H163694   3.362   4.778   4.426 -0.2316 -1.5144 -1.6151
14093TIP3    H263695   3.449   4.665   4.478  1.0523  0.6617  1.1126
14094TIP3   OH263696   2.554   3.879  12.746  0.3961 -0.3829 -0.1868
14094TIP3    H163697   2.529   3.964  12.780  0.6378 -1.0029  1.6191
14094TIP3    H263698   2.471   3.835  12.726  0.2686  0.2016 -0.9401
14095TIP3   OH263699   4.523   3.104  12.941 -0.1113 -0.0398  0.1573
14095TIP3    H163700   4.570   3.119  13.023 -2.0415 -0.1540  1.3221
14095TIP3    H263701   4.513   3.191  12.903  1.4011 -0.0610 -0.3406
14096TIP3   OH263702   4.872   2.902   0.999 -0.4088  0.7149 -0.6638
14096TIP3    H163703   4.787   2.859   0.995  0.0626 -0.3910  0.5549
14096TIP3    H263704   4.856   2.983   1.049 -0.5424 -0.0739  0.6084
14097TIP3   OH263705   4.866   3.397  16.941 -0.4059 -0.0964  0.6085
14097TIP3    H163706   4.851   3.415  16.848 -0.9839 -2.0653  0.3041
14097TIP3    H263707   4.954   3.361  16.944 -0.5565 -0.4474  0.7696
14098TIP3   OH263708   0.087   2.006   4.503 -0.3023  0.4705  0.3648
14098TIP3    H163709   0.145   2.013   4.579  0.2534  0.6986 -0.0741
14098TIP3    H263710   0.069   2.097   4.479  0.6215  0.4134 -0.5977
14099TIP3   OH263711   6.621   3.309  11.659 -0.7809  0.5029 -0.4514
14099TIP3    H163712   6.714   3.296  11.676 -0.8787 -0.6246 -0.7051
14099TIP3    H263713   6.580   3.310  11.745 -0.7007 -0.4697 -0.3898
14100TIP3   OH263714   6.084   4.495   2.867  0.0990 -1.1817 -0.2604
14100TIP3    H163715   6.135   4.549   2.928 -0.1986 -1.1097 -0.0764
14100TIP3    H263716   6.030   4.558   2.818  0.3017 -1.2425 -0.5693
14101TIP3   OH263717   5.291   5.121  12.377 -0.0780  0.4562  0.3525
14101TIP3    H163718   5.196   5.122  12.364  0.2489  2.3659 -2.2677
14101TIP3    H263719   5.305   5.164  12.461 -1.4540  1.5223  0.0412
14102TIP3   OH263720   1.122   2.885   3.396 -0.2882  0.8232 -0.8659
14102TIP3    H163721   1.129   2.971   3.437  0.5777  0.8622 -1.0874
14102TIP3    H263722   1.033   2.882   3.360 -1.7628  0.0775  2.6091
14103TIP3   OH263723   0.465   1.339  16.116 -0.4958  0.0289 -0.0600
14103TIP3    H163724   0.463   1.313  16.209  4.5781 -0.4491  0.0082
14103TIP3    H263725   0.430   1.263  16.070  2.8445 -2.3273  1.0822
14104TIP3   OH263726   3.713   2.031   1.602 -0.4973  0.3834  0.1055
14104TIP3    H163727   3.638   2.084   1.575  0.3204  1.8316  0.6418
14104TIP3    H263728   3.768   2.090   1.652 -0.1771 -1.3230  1.8228
14105TIP3   OH263729   4.810   4.277   5.539 -0.0629  0.1768 -0.0330
14105TIP3    H163730   4.892   4.238   5.569  0.4452  0.6142 -0.8379
14105TIP3    H263731   4.743   4.213   5.564  0.5238 -0.1979  0.6013
14106TIP3   OH263732   2.866   6.306  16.797 -0.4303  0.1589 -0.3733
14106TIP3    H163733   2.869   6.352  16.880  0.4081  0.1235 -0.3781
14106TIP3    H263734   2.834   6.372  16.734 -1.9838 -0.0801  0.1355
14107TIP3   OH263735   3.736   1.868  10.778 -0.1632  0.1302  0.6682
14107TIP3    H163736   3.770   1.945  10.824  1.8194  0.0145 -0.5617
14107TIP3    H263737   3.673   1.830  10.839  2.6024 -0.1699  3.4565
14108TIP3   OH263738   5.583   2.067  14.933  0.3774 -0.1368  0.3298
14108TIP3    H163739   5.545   2.093  14.850  0.5815  0.7693  0.5154
14108TIP3    H263740   5.677   2.076  14.921  0.3768  0.7059  0.8809
14109TIP3   OH263741   2.748   2.820  15.871 -0.1387 -0.4910  0.2488
14109TIP3    H163742   2.746   2.734  15.829 -0.1719 -0.0421 -0.6716
14109TIP3    H263743   2.830   2.860  15.841 -0.3860  0.0153  0.2429
14110TIP3   OH263744   1.113   3.368  10.928  0.8233 -0.1419 -0.3757
14110TIP3    H163745   1.115   3.456  10.965 -1.7369  0.3601 -1.3580
14110TIP3    H263746   1.185   3.366  10.865 -0.0812  1.7671 -1.4817
14111TIP3   OH263747   0.307   2.848   2.283 -0.0967 -0.1900 -0.7354
14111TIP3    H163748   0.249   2.807   2.348  0.6197  0.9782  0.6638
14111TIP3    H263749   0.262   2.929   2.259  1.4846  1.3331  1.2628
14112TIP3   OH263750   0.786   6.549   0.734 -0.1117 -0.4449  0.6982
14112TIP3    H163751   0.868   6.516   0.697  0.5408 -1.8044  3.2651
14112TIP3    H263752   0.806   6.639   0.759  0.7347 -0.8855  1.6492
14113TIP3   OH263753   4.225   4.198  16.311  0.1470  0.0186 -0.0889
14113TIP3    H163754   4.222   4.294  16.309 -0.4228  0.0475  1.3475
14113TIP3    H263755   4.133   4.171  16.302  0.3478 -0.4073 -0.9079
14114TIP3   OH263756   5.936   2.372  17.205  0.0327  0.0129 -0.5573
14114TIP3    H163757   5.869   2.421  17.253 -0.3516 -0.1945 -0.8791
14114TIP3    H263758   5.894   2.349  17.123  0.4824 -0.1727 -0.7378
14115TIP3   OH263759   3.940   6.273  14.404 -0.0159 -0.0751 -0.5730
14115TIP3    H163760   3.992   6.193  14.407  0.1592  0.0800  0.9967
14115TIP3    H263761   3.951   6.305  14.314  2.3341 -0.2097 -0.3682
14116TIP3   OH263762   6.654   2.811  16.938 -0.9135  0.2089 -0.2686
14116TIP3    H163763   6.668   2.852  17.023  0.6653 -0.5585 -0.1478
14116TIP3    H263764   6.729   2.838  16.885 -0.6163 -1.3033 -0.6478
14117TIP3   OH263765   3.890   4.046   3.009  0.0081  0.1300  0.2842
14117TIP3    H163766   3.949   4.105   2.962  1.1200 -0.9610  0.2826
14117TIP3    H263767   3.886   3.967   2.954 -1.7764  0.3397  0.0879
14118TIP3   OH263768   5.604   4.639  14.778 -0.4430  0.3231  0.2848
14118TIP3    H163769   5.576   4.640  14.687  0.9826  1.3750 -0.1635
14118TIP3    H263770   5.648   4.555  14.790  1.1044  0.9893 -0.5639
14119TIP3   OH263771   2.542   5.879   0.681 -0.7508  0.1510  0.6156
14119TIP3    H163772   2.476   5.841   0.739 -2.3533 -0.8782 -1.8267
14119TIP3    H263773   2.504   5.874   0.593  2.1734  0.4196 -0.7478
14120TIP3   OH263774   2.910   2.845  12.654 -0.5335  0.2813 -0.1445
14120TIP3    H163775   2.987   2.889  12.689  0.2253  0.1082 -1.5844
14120TIP3    H263776   2.836   2.899  12.682  0.2279  1.3179 -0.1486
14121TIP3   OH263777   6.709   3.996   2.923 -0.2473 -0.5376  0.6704
14121TIP3    H163778   6.643   4.005   2.855 -1.7511  0.9705  2.2772
14121TIP3    H263779   6.716   3.902   2.938 -1.6122 -0.7493  0.0489
14122TIP3   OH263780   2.986   6.116   2.702 -0.4805 -0.4476  0.1146
14122TIP3    H163781   2.901   6.136   2.663 -0.4521 -0.0680  0.2511
14122TIP3    H263782   2.975   6.028   2.738 -1.5515  0.4820  2.1588
14123TIP3   OH263783   1.235   5.659  14.590 -0.0573 -0.2482  0.4292
14123TIP3    H163784   1.180   5.580  14.585  0.3407 -0.5197  0.3776
14123TIP3    H263785   1.235   5.693  14.500  0.6961 -0.8153  0.2086
14124TIP3   OH263786   2.868   4.866   0.470 -0.0934  0.2492 -0.6468
14124TIP3    H163787   2.870   4.955   0.434  1.8517  0.3882 -0.2751
14124TIP3    H263788   2.917   4.873   0.553 -1.0137 -0.9062 -0.0009
14125TIP3   OH263789   5.979   0.528  15.176  0.7607 -0.0179 -0.2180
14125TIP3    H163790   5.903   0.471  15.166  0.3684  0.4122  0.2365
14125TIP3    H263791   5.942   0.614  15.196  1.3703  0.1489  0.2351
14126TIP3   OH263792   1.775   3.871  14.755  0.1545  0.5651  0.1793
14126TIP3    H163793   1.704   3.811  14.732  1.3291 -1.0639  0.6657
14126TIP3    H263794   1.762   3.947  14.698  0.2970 -1.4031 -2.6096
14127TIP3   OH263795   4.980   1.013  12.227 -0.1848  0.6574 -0.0003
14127TIP3    H163796   5.064   1.047  12.194 -0.0278  0.3227  0.0447
14127TIP3    H263797   4.914   1.052  12.170 -0.2317  3.0735  1.6526
14128TIP3   OH263798   1.466   0.823  16.929 -0.2730 -0.4832  0.2744
14128TIP3    H163799   1.561   0.828  16.939 -0.1672  0.6657 -1.1898
14128TIP3    H263800   1.431   0.844  17.016  0.7776  0.9233  0.3710
14129TIP3   OH263801   0.912   2.204   5.490 -0.1985 -0.2589 -0.0632
14129TIP3    H163802   0.899   2.298   5.474 -2.1764 -0.4776  0.0734
14129TIP3    H263803   0.890   2.193   5.582  0.0523 -0.8473 -0.0765
14130TIP3   OH263804   4.072   4.832  14.116  0.4754 -0.2893 -0.0692
14130TIP3    H163805   4.053   4.782  14.037  0.9447 -0.0326 -0.3435
14130TIP3    H263806   4.017   4.909  14.109  0.6091 -0.2063 -0.2038
14131TIP3   OH263807   4.474   1.917  11.177  0.6696 -0.2549 -0.2575
14131TIP3    H163808   4.417   1.881  11.109  1.7018 -1.9838 -0.2420
14131TIP3    H263809   4.562   1.887  11.153  1.4631  1.5871  0.2346
14132TIP3   OH263810   5.690   0.308   3.402 -0.3460 -0.1832 -0.1147
14132TIP3    H163811   5.688   0.403   3.389 -1.1493 -0.1564  0.2120
14132TIP3    H263812   5.716   0.273   3.316  0.0370  0.3327 -0.2133
14133TIP3   OH263813   4.619   1.764   5.325 -0.2671  0.2928  0.5397
14133TIP3    H163814   4.616   1.822   5.249  2.0595 -0.4900 -0.2169
14133TIP3    H263815   4.557   1.694   5.305  1.0766 -0.4539 -1.1599
14134TIP3   OH263816   6.244   6.225  11.421 -0.1186  0.1252  0.0680
14134TIP3    H163817   6.241   6.146  11.367  3.8223 -1.4031  1.9234
14134TIP3    H263818   6.323   6.270  11.392  0.5649  0.6538  2.6589
14135TIP3   OH263819   5.894   1.530  13.007  0.3375 -0.1267  0.3782
14135TIP3    H163820   5.931   1.477  13.078  1.2535 -0.4103 -0.3056
14135TIP3    H263821   5.809   1.558  13.040  0.7080 -0.3620  1.5405
14136TIP3   OH263822   2.377   0.527  10.615 -0.2242 -0.4536 -0.2481
14136TIP3    H163823   2.427   0.552  10.537 -0.3863  0.0577 -0.1856
14136TIP3    H263824   2.429   0.456  10.654 -0.4353 -1.1146 -1.1374
14137TIP3   OH263825   4.869   4.184  15.568  0.1504 -0.5234  0.0451
14137TIP3    H163826   4.777   4.210  15.556 -0.1883 -1.8667 -0.3292
14137TIP3    H263827   4.881   4.110  15.508  1.2429 -0.9079  0.7319
14138TIP3   OH263828   1.851   6.403   2.534 -0.4153 -0.1829  0.4567
14138TIP3    H163829   1.812   6.420   2.619  1.2304  0.3347  1.1161
14138TIP3    H263830   1.851   6.307   2.526 -4.3485 -0.1757 -0.7746
14139TIP3   OH263831   2.807   1.916  11.021  0.3663  0.3789  0.2386
14139TIP3    H163832   2.901   1.898  11.013  0.1301 -1.1436  0.6472
14139TIP3    H263833   2.767   1.866  10.950 -0.1946  0.4384  0.5101
14140TIP3   OH263834   3.695   2.014   3.764 -0.2075 -0.0977 -0.2382
14140TIP3    H163835   3.741   1.930   3.769  0.3802  0.2557  0.4322
14140TIP3    H263836   3.647   2.010   3.682  0.6573 -0.6658 -0.7281
14141TIP3   OH263837   3.811   4.496   5.827 -0.5338 -0.1187 -0.5876
14141TIP3    H163838   3.817   4.530   5.737 -0.0595 -1.6974 -1.1695
14141TIP3    H263839   3.896   4.517   5.866 -0.4448 -0.1437 -0.7685
14142TIP3   OH263840   6.558   1.947   5.411 -0.2173  0.4661 -0.7069
14142TIP3    H163841   6.510   1.865   5.423  0.9543  0.0804  1.6350
14142TIP3    H263842   6.527   1.981   5.327 -2.2726 -1.3077 -0.7012
14143TIP3   OH263843   0.098   5.624   4.019 -0.1024  0.3358 -0.7002
14143TIP3    H163844   0.078   5.640   3.927 -0.8870 -1.6701 -0.9233
14143TIP3    H263845   0.180   5.575   4.018 -0.6017 -0.5402 -0.4292
14144TIP3   OH263846   0.568   6.575  13.091 -0.1350 -0.0205 -0.0258
14144TIP3    H163847   0.590   6.536  13.175 -1.3112  0.7571  0.6621
14144TIP3    H263848   0.592   6.667  13.101 -1.7221  0.3975  0.0143
14145TIP3   OH263849   4.170   4.512   5.203 -0.4552 -0.3535 -0.0690
14145TIP3    H163850   4.241   4.464   5.245 -0.1526 -0.8659 -1.1446
14145TIP3    H263851   4.091   4.481   5.247 -0.2246 -1.6128 -0.5164
14146TIP3   OH263852   5.619   6.375   0.939 -0.1862  0.0451  0.2279
14146TIP3    H163853   5.566   6.315   0.888  0.3225 -0.0729 -0.1670
14146TIP3    H263854   5.708   6.363   0.907  0.1766 -0.1694  1.2804
14147TIP3   OH263855   0.128   5.680  12.228  0.7114 -0.4132 -0.0135
14147TIP3    H163856   0.197   5.689  12.293  0.1211 -0.5523  0.6352
14147TIP3    H263857   0.107   5.770  12.203  0.6165 -0.3362  0.3359
14148TIP3   OH263858   5.086   5.510   1.053 -0.4461 -0.0618 -0.0083
14148TIP3    H163859   5.114   5.545   1.137 -0.1577 -0.7331  0.1759
14148TIP3    H263860   5.150   5.442   1.032 -0.5776  0.0282 -0.7156
14149TIP3   OH263861   3.566   3.298  10.884  0.6043 -0.1350  0.4837
14149TIP3    H163862   3.541   3.210  10.856  0.5140 -0.4977  1.6798
14149TIP3    H263863   3.524   3.309  10.969  0.2860  1.2178  0.1549
14150TIP3   OH263864   3.816   5.403  15.219 -0.4331 -0.4144 -0.1463
14150TIP3    H163865   3.837   5.460  15.145  1.4449 -1.1314 -0.2122
14150TIP3    H263866   3.897   5.400  15.270 -0.5447 -2.8916 -0.0696
14151TIP3   OH263867   6.466   3.799   4.281  0.0932  0.8985 -0.4278
14151TIP3    H163868   6.461   3.704   4.285  1.2851  0.7284 -2.3392
14151TIP3    H263869   6.380   3.829   4.309 -0.3688 -0.7437 -0.0229
14152TIP3   OH263870   3.001   4.895  11.993  0.2328  0.2998 -0.3967
14152TIP3    H163871   3.013   4.990  11.990 -3.2102  0.9494  2.8961
14152TIP3    H263872   2.918   4.880  11.948  0.5400 -1.1177 -0.5146
14153TIP3   OH263873   6.548   1.321  13.520 -0.5556  0.1783  0.1172
14153TIP3    H163874   6.491   1.396  13.538 -0.2759  0.8932 -1.7992
14153TIP3    H263875   6.615   1.356  13.461 -0.0891 -1.4499 -0.3356
14154TIP3   OH263876   1.883   5.283   1.798 -0.3433  0.2435  0.1475
14154TIP3    H163877   1.888   5.193   1.831  2.4158 -0.9572 -3.1418
14154TIP3    H263878   1.791   5.294   1.772 -0.8386 -1.4206  1.1152
14155TIP3   OH263879   6.452   5.410  15.288  0.3276  0.0723 -0.2428
14155TIP3    H163880   6.503   5.473  15.238  0.3254  2.2023  2.3228
14155TIP3    H263881   6.375   5.459  15.317 -0.5287 -1.5954  0.3571
14156TIP3   OH263882   1.988   2.822  15.399  0.2998 -0.2856 -0.4884
14156TIP3    H163883   2.025   2.851  15.482  0.0383 -0.1984 -0.4034
14156TIP3    H263884   1.949   2.900  15.361  0.5431 -0.2943 -0.7616
14157TIP3   OH263885   2.457   4.396   4.498 -0.1799  0.5663 -0.1150
14157TIP3    H163886   2.550   4.414   4.492  0.0961 -1.1137 -1.4569
14157TIP3    H263887   2.433   4.418   4.588  1.5437  0.8341  0.2844
14158TIP3   OH263888   6.730   4.495   2.167  0.2836 -0.2612 -0.3707
14158TIP3    H163889   6.715   4.420   2.109 -0.8217  0.7153 -1.3823
14158TIP3    H263890   6.818   4.526   2.145 -0.3479  0.4474 -1.9336
14159TIP3   OH263891   2.099   6.021  12.462  0.3037 -0.1476 -0.0722
14159TIP3    H163892   2.120   5.939  12.415  0.1837 -0.0572 -0.2840
14159TIP3    H263893   2.005   6.033  12.449  0.2417 -0.2019  0.3243
14160TIP3   OH263894   3.960   1.847   0.640  0.5738 -0.6007  0.1867
14160TIP3    H163895   3.933   1.795   0.564 -3.3694 -1.7751  2.2615
14160TIP3    H263896   4.026   1.794   0.683  0.0972 -1.6676 -0.3719
14161TIP3   OH263897   1.889   2.043  16.243 -0.1626 -0.1049 -0.1602
14161TIP3    H163898   1.974   2.049  16.200 -0.1607  0.3367 -0.0977
14161TIP3    H263899   1.881   1.951  16.268  0.3602 -0.1196 -0.0381
14162TIP3   OH263900   3.948   1.975   0.916 -0.4583  0.0244 -0.0368
14162TIP3    H163901   3.876   2.036   0.930  0.7733  1.7974 -1.1195
14162TIP3    H263902   4.027   2.028   0.927  0.7148 -2.0274  1.7796
14163TIP3   OH263903   1.990   0.048  14.821 -0.1079 -0.2193 -0.8198
14163TIP3    H163904   2.066  -0.010  14.819 -0.4969 -0.7683  0.1069
14163TIP3    H263905   1.915  -0.010  14.809 -0.5461 -0.0128  0.8857
14164TIP3   OH263906   0.679   5.888   3.165  0.4308 -0.2140 -0.1399
14164TIP3    H163907   0.739   5.813   3.159 -1.1811 -1.7709  2.1726
14164TIP3    H263908   0.614   5.871   3.097 -2.2061 -3.1731  2.9037
14165TIP3   OH263909   4.029   0.154   5.498 -0.0208  0.7363  0.5357
14165TIP3    H163910   3.942   0.172   5.461  0.3465  0.0810 -0.6950
14165TIP3    H263911   4.068   0.240   5.510 -0.2467  0.9874 -0.4221
14166TIP3   OH263912   1.511   3.949  13.147  0.4721  0.0603  0.3906
14166TIP3    H163913   1.429   3.970  13.103  0.4155  1.2121  1.0435
14166TIP3    H263914   1.571   3.925  13.076  0.0772  0.8972 -0.2319
14167TIP3   OH263915   1.673   3.768   3.881  0.1706  0.7590  0.0710
14167TIP3    H163916   1.753   3.720   3.859  0.0930  1.6285 -2.1900
14167TIP3    H263917   1.701   3.831   3.948  0.7422 -0.8769  1.4126
14168TIP3   OH263918   3.967   6.526  12.862  0.5190  0.3454 -0.0458
14168TIP3    H163919   3.942   6.612  12.895 -0.9493 -0.2545  0.4620
14168TIP3    H263920   4.028   6.544  12.791  2.2397  1.7422  1.6992
14169TIP3   OH263921   4.613   3.298  16.567 -0.5870 -0.5665  0.8627
14169TIP3    H163922   4.597   3.226  16.629 -2.6331 -0.3160  0.6828
14169TIP3    H263923   4.655   3.256  16.492 -0.3222 -1.3081  1.4204
14170TIP3   OH263924   4.558   2.176   2.822  0.0516  0.1524 -0.1884
14170TIP3    H163925   4.592   2.264   2.807  3.1138 -0.8707  0.2593
14170TIP3    H263926   4.558   2.167   2.917  1.1071 -0.8107 -0.2750
14171TIP3   OH263927   0.025   5.035  15.147 -0.5807  0.2490  0.0185
14171TIP3    H163928  -0.002   5.101  15.083 -0.0624  0.7895  0.3467
14171TIP3    H263929  -0.049   5.029  15.208  0.6595  2.9670  1.8963
14172TIP3   OH263930   3.249   3.464  13.484  0.1514  0.3113  0.2411
14172TIP3    H163931   3.213   3.410  13.414 -0.7807  0.8522  0.2905
14172TIP3    H263932   3.290   3.402  13.544  0.1426 -0.2316 -0.3152
14173TIP3   OH263933   4.150   5.945  15.318 -1.1948  0.1370  0.0587
14173TIP3    H163934   4.230   5.986  15.352 -1.4269  0.5905  0.0586
14173TIP3    H263935   4.152   5.963  15.224 -0.6795 -0.9056 -0.1352
14174TIP3   OH263936   0.380   1.854  12.486  0.2706 -0.1390 -0.2967
14174TIP3    H163937   0.473   1.852  12.465  1.0076 -3.9108  2.7025
14174TIP3    H263938   0.373   1.924  12.552  0.7477  0.9130 -1.3415
14175TIP3   OH263939   6.311   2.824  11.922  0.7717  0.0165  0.1881
14175TIP3    H163940   6.275   2.769  11.991  1.8459  0.4515  1.1010
14175TIP3    H263941   6.343   2.762  11.856 -0.9164 -0.3830 -0.2672
14176TIP3   OH263942   3.744   4.853  11.741  0.3361 -0.2519 -0.3690
14176TIP3    H163943   3.771   4.838  11.651 -2.1166  0.9127 -1.3544
14176TIP3    H263944   3.648   4.861  11.737  0.2360  0.4964  2.2226
14177TIP3   OH263945   6.615   0.800   4.095  0.0380  0.4808  0.1225
14177TIP3    H163946   6.659   0.750   4.026  1.8809  3.3860 -0.9076
14177TIP3    H263947   6.649   0.762   4.177 -0.1813 -1.2637 -0.5614
14178TIP3   OH263948   3.220   1.362   3.376  0.7097  0.0309 -0.0313
14178TIP3    H163949   3.266   1.440   3.348  1.1718  0.0232  0.7026
14178TIP3    H263950   3.286   1.293   3.374  0.7034 -0.0117  0.8668
14179TIP3   OH263951   2.363   6.076  11.537  0.0519  0.3727 -0.2764
14179TIP3    H163952   2.320   6.046  11.456  2.7740 -0.0669 -1.6167
14179TIP3    H263953   2.397   5.996  11.577 -0.8230  0.6564  1.0436
14180TIP3   OH263954   2.916   1.266   2.019 -0.2994  0.4275 -0.1527
14180TIP3    H163955   2.941   1.357   2.009 -0.1875  0.6692  2.0780
14180TIP3    H263956   2.823   1.264   1.995 -0.4515  1.2538  0.3454
14181TIP3   OH263957   3.592   0.743  16.026 -0.0372  0.0813 -0.1837
14181TIP3    H163958   3.500   0.760  16.043  0.0341  0.7374 -0.4400
14181TIP3    H263959   3.599   0.647  16.022 -0.8743  0.0571 -1.1482
14182TIP3   OH263960   5.615   5.210   4.992 -0.2276  0.8001  0.1431
14182TIP3    H163961   5.649   5.200   4.903 -1.5723  0.5091 -0.3613
14182TIP3    H263962   5.666   5.281   5.030 -0.3528  1.6371 -1.2266
14183TIP3   OH263963   6.530   2.680   3.179 -0.2271  0.1955 -0.1752
14183TIP3    H163964   6.600   2.719   3.232 -1.3726  0.6110  1.0459
14183TIP3    H263965   6.530   2.731   3.098  2.1978 -1.0687 -1.0416
14184TIP3   OH263966   3.457   4.026  12.677  0.1744  0.1585  0.2555
14184TIP3    H163967   3.506   3.962  12.730  0.3542 -0.9237 -1.1876
14184TIP3    H263968   3.391   3.973  12.631 -1.4287  1.4092  1.0920
14185TIP3   OH263969   4.031   2.003   2.311 -0.4251 -0.4528 -0.0798
14185TIP3    H163970   4.074   1.935   2.363  1.4878 -0.8147 -2.0641
14185TIP3    H263971   3.938   1.984   2.319 -0.1510 -0.9647  2.5330
14186TIP3   OH263972   3.236   6.130  10.985 -0.0372 -0.0102 -0.1707
14186TIP3    H163973   3.305   6.081  10.942  0.9497  0.4839  0.8256
14186TIP3    H263974   3.189   6.174  10.914  0.9272 -0.0248 -0.8119
14187TIP3   OH263975   5.913   3.210   4.309  0.5474 -0.4934 -0.3194
14187TIP3    H163976   5.826   3.180   4.334  0.7564  0.1290  1.1584
14187TIP3    H263977   5.973   3.153   4.357  0.9558 -0.3497 -0.6571
14188TIP3   OH263978   6.411   3.464   1.712 -0.0101  0.0370  0.1086
14188TIP3    H163979   6.423   3.559   1.718 -0.3622 -0.0061  1.7262
14188TIP3    H263980   6.333   3.447   1.765  0.8251 -1.3050  0.9344
14189TIP3   OH263981   5.322   5.191   2.989 -0.6165 -0.7659 -0.2039
14189TIP3    H163982   5.375   5.209   2.911 -0.1958 -0.9988  0.0236
14189TIP3    H263983   5.284   5.276   3.013 -0.4683 -0.6282 -0.4602
14190TIP3   OH263984   2.656   3.556  10.501 -0.2565  0.1354 -0.4413
14190TIP3    H163985   2.710   3.581  10.576 -1.5300 -3.0920  1.6547
14190TIP3    H263986   2.719   3.536  10.431  1.0301  0.6503  0.5568
14191TIP3   OH263987   1.226   5.415  11.419  0.0181 -0.8582  0.3786
14191TIP3    H163988   1.216   5.499  11.463 -1.0044 -1.3809  1.1714
14191TIP3    H263989   1.169   5.356  11.468 -1.0523 -1.4861 -1.5753
14192TIP3   OH263990   0.636   6.501   4.539  0.3276 -0.7087 -0.3277
14192TIP3    H163991   0.645   6.428   4.601  4.5758  0.3590  0.5008
14192TIP3    H263992   0.614   6.576   4.594 -1.9800 -0.8866 -0.9383
14193TIP3   OH263993   4.964   6.505  15.462 -0.7226  0.4086  0.4084
14193TIP3    H163994   4.925   6.418  15.451  1.2886 -0.6761  1.5640
14193TIP3    H263995   4.947   6.528  15.553  0.3184  0.4077  0.6132
14194TIP3   OH263996   6.231   3.214   0.784 -0.2085 -0.0828 -0.0199
14194TIP3    H163997   6.237   3.285   0.848 -0.0092  1.2781 -1.5418
14194TIP3    H263998   6.217   3.257   0.700  0.4024 -1.8155 -1.0457
14195TIP3   OH263999   4.526   4.332  14.916  0.3951 -0.0977 -0.2002
14195TIP3    H164000   4.592   4.264  14.920  1.2286  0.8030  2.5432
14195TIP3    H264001   4.576   4.413  14.906 -0.2521  0.5769  1.8105
14196TIP3   OH264002   2.049   6.011  13.525 -0.2384 -0.1327  0.2110
14196TIP3    H164003   1.972   6.012  13.582 -2.6735 -1.6910 -2.9172
14196TIP3    H264004   2.097   5.933  13.552 -1.7549 -1.2739 -0.3057
14197TIP3   OH264005   6.121   1.926   4.681  0.0125 -0.4229  0.0792
14197TIP3    H164006   6.139   1.842   4.640 -0.8796  0.8510 -3.0963
14197TIP3    H264007   6.202   1.977   4.669 -0.3368  0.0450 -0.3120
14198TIP3   OH264008   2.035   3.316   6.298  0.4439  0.1797  0.6000
14198TIP3    H164009   1.962   3.278   6.249  0.1772  2.3225 -0.7253
14198TIP3    H264010   2.111   3.300   6.243  0.4222  0.9794  0.3266
14199TIP3   OH264011   1.095   3.839  11.502  0.4381 -0.0714  0.6190
14199TIP3    H164012   1.047   3.804  11.427  2.4208  0.0103 -0.7228
14199TIP3    H264013   1.079   3.776  11.572 -1.7882  0.0716  0.2782
14200TIP3   OH264014   1.074   2.621   2.824  0.6141  0.1543 -0.0634
14200TIP3    H164015   1.025   2.633   2.742  2.4545 -0.8692 -1.3505
14200TIP3    H264016   1.019   2.563   2.876 -0.1390  0.0508 -0.9524
14201TIP3   OH264017   2.273   4.070   0.814 -0.0532 -0.1605 -0.2488
14201TIP3    H164018   2.345   4.050   0.873  0.0784 -1.0423 -0.6899
14201TIP3    H264019   2.296   4.025   0.732 -1.1846 -0.6039 -0.3331
14202TIP3   OH264020   0.943   5.092  13.487  0.8816  0.2843  0.3513
14202TIP3    H164021   0.976   5.013  13.445 -0.7962  0.6625 -1.8024
14202TIP3    H264022   1.008   5.159  13.467  2.3673 -0.5342  2.2834
14203TIP3   OH264023   2.013   1.012  15.994  0.0929  0.7245  0.3721
14203TIP3    H164024   2.094   0.984  15.952  0.4776  0.1013  1.5200
14203TIP3    H264025   2.041   1.063  16.070 -0.5652 -0.0334  1.1406
14204TIP3   OH264026   2.350   6.046   0.080 -0.2596 -0.7370  0.5596
14204TIP3    H164027   2.404   6.121   0.056 -0.3159 -0.7248  0.4710
14204TIP3    H264028   2.411   5.973   0.087 -0.2317 -0.7237  0.4589
14205TIP3   OH264029   5.038   4.949   2.868 -0.1325  0.0495 -0.0633
14205TIP3    H164030   5.101   5.018   2.847  0.4305 -0.8193 -1.2814
14205TIP3    H264031   5.006   4.919   2.783 -2.4188  0.6566  0.5257
14206TIP3   OH264032   0.110   0.047   3.992 -0.5357  0.1681 -0.5647
14206TIP3    H164033   0.063   0.126   4.019 -0.7914  0.5915 -2.1675
14206TIP3    H264034   0.145   0.011   4.073 -1.2322  1.4030  0.3079
14207TIP3   OH264035   5.715   5.094   6.326  0.4180 -0.0817 -0.3784
14207TIP3    H164036   5.789   5.103   6.266  0.4820 -0.9665 -0.4405
14207TIP3    H264037   5.651   5.042   6.277  1.1571 -2.2825  0.9089
14208TIP3   OH264038   4.662   6.242   5.800  0.4580 -0.3955  0.0861
14208TIP3    H164039   4.716   6.293   5.740  1.1183 -0.8159  0.3232
14208TIP3    H264040   4.678   6.281   5.886  0.0467 -0.2380  0.0917
14209TIP3   OH264041   1.150   5.366  16.505  0.1139 -0.3153  0.3616
14209TIP3    H164042   1.087   5.324  16.564 -0.7876  0.8157  0.2087
14209TIP3    H264043   1.096   5.419  16.446  1.2192  0.7558  0.2980
14210TIP3   OH264044   3.629   2.700   5.769 -0.3754  0.5389  0.6220
14210TIP3    H164045   3.670   2.668   5.849 -1.5931 -1.1268  0.6024
14210TIP3    H264046   3.613   2.793   5.786  0.7845  0.5541  1.7030
14211TIP3   OH264047   3.706   6.136   2.878  0.3957  0.1837  0.4880
14211TIP3    H164048   3.657   6.078   2.936 -1.5196  0.6183 -0.6200
14211TIP3    H264049   3.692   6.099   2.791  2.1987  0.2420  0.1692
14212TIP3   OH264050   5.547   2.328   1.736 -0.3711  0.1938  0.4356
14212TIP3    H164051   5.481   2.395   1.718 -1.7907 -0.6625  2.3001
14212TIP3    H264052   5.543   2.269   1.660 -0.3569  1.2102 -0.3738
14213TIP3   OH264053   0.379   6.548  11.271 -0.1055  0.1531 -0.0219
14213TIP3    H164054   0.467   6.531  11.236  0.1453 -0.8609  1.0919
14213TIP3    H264055   0.390   6.545  11.366 -1.3733 -0.1012  0.1190
14214TIP3   OH264056   3.734   3.795  14.582 -0.3329 -0.0658 -0.0474
14214TIP3    H164057   3.795   3.723  14.566  0.9594  0.4497  2.3198
14214TIP3    H264058   3.661   3.779  14.521  0.9700 -2.1058 -1.1169
14215TIP3   OH264059   2.344   0.276   0.045 -0.4712 -0.3929  0.0395
14215TIP3    H164060   2.366   0.369   0.053  0.6444 -0.5643 -0.8988
14215TIP3    H264061   2.327   0.247   0.135  3.2496 -0.2579  0.8514
14216TIP3   OH264062   4.818   5.394   5.367  0.2416 -0.0571 -0.0199
14216TIP3    H164063   4.900   5.440   5.388 -1.2742  2.1294  1.2536
14216TIP3    H264064   4.801   5.418   5.276  0.4812  0.3102  0.0289
14217TIP3   OH264065   1.197   0.917   5.439 -0.0228  0.6245 -0.3234
14217TIP3    H164066   1.215   1.008   5.465 -0.2096 -0.0787  2.4573
14217TIP3    H264067   1.111   0.921   5.398  0.7228  1.9562 -1.8359
14218TIP3   OH264068   1.406   2.819   4.554 -0.1554  0.4030  0.0893
14218TIP3    H164069   1.316   2.852   4.563  0.0067  1.6549 -2.4499
14218TIP3    H264070   1.410   2.785   4.464  1.5429 -0.8540  0.6182
14219TIP3   OH264071   5.249   0.080  10.918  0.1977 -0.3553 -0.5045
14219TIP3    H164072   5.261   0.152  10.855 -1.1968 -0.8887 -1.3853
14219TIP3    H264073   5.237   0.002  10.864  1.3795 -1.2227  0.4527
14220TIP3   OH264074   3.753   6.572  13.407  0.3989  0.2086 -0.7139
14220TIP3    H164075   3.754   6.569  13.503  1.0037  2.2566 -0.6474
14220TIP3    H264076   3.781   6.484  13.381  1.1498 -0.0793  0.9744
14221TIP3   OH264077   0.287   6.160  16.807  0.2518  1.2533  0.5459
14221TIP3    H164078   0.350   6.092  16.783  0.3376  0.9558  1.6071
14221TIP3    H264079   0.334   6.242  16.792  0.2151  1.0750 -0.5510
14222TIP3   OH264080   3.749   0.014  15.739 -0.3580  0.1870 -0.5532
14222TIP3    H164081   3.675  -0.014  15.686  0.0676 -1.2504 -0.4165
14222TIP3    H264082   3.757  -0.054  15.806  1.5913 -0.1018 -1.0565
14223TIP3   OH264083   5.204   4.695   3.757  0.0237  0.2319  0.1182
14223TIP3    H164084   5.277   4.659   3.707  0.8472  0.7681  0.9210
14223TIP3    H264085   5.206   4.789   3.739 -1.4809  0.0391 -1.1481
14224TIP3   OH264086   6.726   2.083  12.994  0.5991  0.2873 -0.4154
14224TIP3    H164087   6.748   2.110  13.083  1.0324  1.8689 -0.9902
14224TIP3    H264088   6.634   2.106  12.984  0.3195 -0.6645 -0.1029
14225TIP3   OH264089   3.226   5.418   3.857 -0.4425 -0.4076  0.4576
14225TIP3    H164090   3.134   5.393   3.851 -0.9073  1.0312  1.2296
14225TIP3    H264091   3.266   5.350   3.910 -1.2871 -0.4728  1.0157
14226TIP3   OH264092   5.532   3.916   2.086  0.3581  0.1774  0.3789
14226TIP3    H164093   5.597   3.847   2.100  1.8109  1.2098 -1.1728
14226TIP3    H264094   5.578   3.997   2.105 -0.9286  0.8377  0.7603
14227TIP3   OH264095   1.170   0.393   4.367 -0.2737  0.3026  0.3708
14227TIP3    H164096   1.153   0.486   4.385  0.4975  0.6774 -0.7932
14227TIP3    H264097   1.133   0.347   4.442 -0.9726  1.5319  0.7922
14228TIP3   OH264098   1.022   1.483  11.341  0.0446 -0.2162  0.5098
14228TIP3    H164099   0.943   1.444  11.377 -0.3625 -1.1888 -1.3426
14228TIP3    H264100   1.094   1.444  11.390 -0.4893 -1.4936  0.2853
14229TIP3   OH264101   5.951   4.397   0.205 -0.3697 -0.6842 -0.0892
14229TIP3    H164102   5.929   4.366   0.118  0.7495 -0.5323 -0.4287
14229TIP3    H264103   5.951   4.493   0.197  1.1436 -0.6891 -0.2853
14230TIP3   OH264104   2.128   1.382   4.851 -0.1898 -0.0502  0.1287
14230TIP3    H164105   2.040   1.401   4.882  0.0746  0.2951  0.6895
14230TIP3    H264106   2.132   1.422   4.764 -0.2661  0.8017  0.5108
14231TIP3   OH264107   0.422   6.093   2.941 -0.1723 -0.1446 -0.6449
14231TIP3    H164108   0.496   6.071   2.997  1.1534  0.3468 -2.1596
14231TIP3    H264109   0.392   6.178   2.973  0.2374 -0.1187 -0.3316
14232TIP3   OH264110   3.618   4.254  13.377 -0.0702  0.2366 -0.3318
14232TIP3    H164111   3.689   4.192  13.394 -0.6987  0.2279  2.5885
14232TIP3    H264112   3.651   4.338  13.409 -1.5065  0.1339  1.5430
14233TIP3   OH264113   1.981   0.459  13.381  0.0937 -0.3236  0.3688
14233TIP3    H164114   1.941   0.456  13.467 -0.6826 -0.0122  0.0267
14233TIP3    H264115   2.044   0.530  13.386 -0.4836  0.1816  0.4535
14234TIP3   OH264116   6.448   0.382  14.810 -0.3821 -0.0531  0.1565
14234TIP3    H164117   6.496   0.459  14.842 -0.0338 -0.5276  0.7888
14234TIP3    H264118   6.412   0.342  14.890  2.4688 -2.6013  0.2407
14235TIP3   OH264119   3.896   2.843  15.127  0.4292 -0.4001  0.2744
14235TIP3    H164120   3.806   2.810  15.126  0.1713  0.3088 -1.6478
14235TIP3    H264121   3.942   2.785  15.187 -1.5778 -0.0222  2.2548
14236TIP3   OH264122   2.902   0.535   5.830  0.1480  0.0179  0.3370
14236TIP3    H164123   2.913   0.537   5.735  0.5411 -0.8343  0.3661
14236TIP3    H264124   2.906   0.627   5.856  0.2356  0.2398 -0.4440
14237TIP3   OH264125   1.202   1.317  11.824  0.2354  0.5325  0.4357
14237TIP3    H164126   1.232   1.233  11.858 -0.1616 -0.5604 -1.8319
14237TIP3    H264127   1.157   1.358  11.898 -2.9685 -2.9332  0.5187
14238TIP3   OH264128   5.910   4.834  16.195 -0.6137  0.6680  0.1546
14238TIP3    H164129   5.878   4.922  16.174 -1.7400  0.3087  0.3029
14238TIP3    H264130   5.843   4.798  16.254  0.6132  0.2839  1.3332
14239TIP3   OH264131   1.701   5.132   5.277  0.0883  0.1610  0.2366
14239TIP3    H164132   1.664   5.048   5.303 -0.9831  0.4035 -0.4282
14239TIP3    H264133   1.661   5.150   5.191  1.3246  0.7227 -0.2330
14240TIP3   OH264134   2.921   5.883   3.534 -0.0072 -0.0985  0.2944
14240TIP3    H164135   2.950   5.816   3.472 -1.4521 -2.1475  1.8113
14240TIP3    H264136   2.972   5.867   3.613 -0.4243  0.5569  0.6989
14241TIP3   OH264137   1.339   0.334  12.991 -0.2231 -0.2725  0.3132
14241TIP3    H164138   1.392   0.364  13.065 -0.6823  1.2507  0.0441
14241TIP3    H264139   1.290   0.259  13.024 -0.5601  0.5173  1.6181
14242TIP3   OH264140   3.381   0.948  11.072 -0.3933  0.2260 -0.1529
14242TIP3    H164141   3.375   0.882  11.003  0.6083  0.1291 -0.1524
14242TIP3    H264142   3.294   0.948  11.112 -0.2149 -1.5675  0.2867
14243TIP3   OH264143   1.908   4.736  14.968 -0.4930 -0.1033 -0.7115
14243TIP3    H164144   1.882   4.792  14.895  1.7631  1.6458 -0.2522
14243TIP3    H264145   1.893   4.791  15.046  1.2059 -0.2957 -0.2168
14244TIP3   OH264146   4.785   6.366   0.977  0.4706 -0.1677 -0.4434
14244TIP3    H164147   4.787   6.461   0.983  0.5918 -0.1831 -0.2101
14244TIP3    H264148   4.769   6.347   0.885 -0.5890  0.0881 -0.3199
14245TIP3   OH264149   5.283   3.573   2.085  0.2950  0.0505  0.4720
14245TIP3    H164150   5.352   3.618   2.036 -0.9760  0.7915 -0.6794
14245TIP3    H264151   5.221   3.642   2.106 -1.3613 -1.0249 -0.7486
14246TIP3   OH264152   2.260   3.937  16.595  0.0409 -0.0200 -0.1588
14246TIP3    H164153   2.286   4.020  16.635 -0.3974 -0.6783  1.5429
14246TIP3    H264154   2.184   3.960  16.541 -1.1986  0.3983  1.7115
14247TIP3   OH264155   1.593   4.067  15.080  0.0138  0.7023  0.1843
14247TIP3    H164156   1.669   4.035  15.129 -0.6932  0.0046  0.8258
14247TIP3    H264157   1.519   4.018  15.115 -0.4683 -0.0025 -1.7899
14248TIP3   OH264158   3.746   5.866   2.423  0.3984 -0.3446  0.1242
14248TIP3    H164159   3.705   5.781   2.437 -1.2049  0.3642 -0.1182
14248TIP3    H264160   3.720   5.891   2.335  1.6359 -0.0266 -0.1493
14249TIP3   OH264161   1.404   2.224  15.819 -0.4711  0.1040 -0.1717
14249TIP3    H164162   1.432   2.312  15.844 -0.9008  0.0685  0.4527
14249TIP3    H264163   1.363   2.235  15.733 -1.0793  0.6201  0.1742
14250TIP3   OH264164   6.029   1.207  11.341 -0.3421  0.1387  0.2123
14250TIP3    H164165   5.986   1.121  11.335  0.0801 -0.1235  0.8275
14250TIP3    H264166   6.061   1.211  11.432  0.8937  0.3447 -0.2233
14251TIP3   OH264167   1.567   5.182   4.580  0.9134 -0.2929  0.7359
14251TIP3    H164168   1.544   5.089   4.575  2.7381 -0.6058 -2.7065
14251TIP3    H264169   1.649   5.183   4.630 -0.4332 -0.2121  3.0531
14252TIP3   OH264170   0.905   6.705   1.900  0.5778  0.0144 -0.1501
14252TIP3    H164171   0.863   6.778   1.945  1.1509 -0.4295  1.1353
14252TIP3    H264172   0.846   6.685   1.827 -0.9241  0.0689  1.0062
14253TIP3   OH264173   2.564   0.381   3.933 -0.4428 -0.2263  0.3756
14253TIP3    H164174   2.532   0.459   3.979 -0.9262  0.0372 -0.3838
14253TIP3    H264175   2.531   0.392   3.843  2.4242  0.4477 -0.6561
14254TIP3   OH264176   5.149   6.603   2.308  0.4396  0.0000 -0.6987
14254TIP3    H164177   5.076   6.635   2.256 -0.9392 -1.6869  0.1613
14254TIP3    H264178   5.225   6.613   2.250 -0.2384  2.8342 -1.1776
14255TIP3   OH264179   3.253   3.643   0.688 -0.0823 -0.5868  0.2202
14255TIP3    H164180   3.215   3.598   0.613  1.3392  0.3322 -1.0951
14255TIP3    H264181   3.252   3.579   0.759 -1.9352 -1.2958 -0.4237
14256TIP3   OH264182   0.614   4.839   0.450  0.4100 -0.4825  0.1499
14256TIP3    H164183   0.600   4.767   0.512  0.5184  0.0083  0.7470
14256TIP3    H264184   0.529   4.882   0.442  1.0618  1.2505  2.2164
14257TIP3   OH264185   6.209   6.338   2.005  0.0658  0.4181 -0.3855
14257TIP3    H164186   6.133   6.280   1.994 -0.5461  1.1250  0.1202
14257TIP3    H264187   6.262   6.323   1.926 -0.2554 -0.5794 -0.4191
14258TIP3   OH264188   1.265   4.772   4.522  0.1289 -0.2460 -0.4956
14258TIP3    H164189   1.193   4.822   4.561  1.4483  1.5051 -0.2391
14258TIP3    H264190   1.227   4.733   4.443 -1.4612 -0.4445  0.3628
14259TIP3   OH264191   3.462   6.175   3.127  0.3418 -0.2215  0.1371
14259TIP3    H164192   3.551   6.194   3.155 -0.7496  1.9909  2.2795
14259TIP3    H264193   3.448   6.084   3.154  1.1142  0.2317  2.2093
14260TIP3   OH264194   2.667   2.754  17.147 -0.5988  0.5368 -0.8966
14260TIP3    H164195   2.702   2.808  17.218 -0.5190 -0.1389 -0.4189
14260TIP3    H264196   2.615   2.814  17.094 -0.7016  1.0325 -0.2353
14261TIP3   OH264197   5.088   0.937  10.228 -0.3039 -0.3225 -0.3152
14261TIP3    H164198   5.085   0.972  10.317  0.2040 -3.1195  0.8587
14261TIP3    H264199   5.181   0.933  10.207 -0.3525 -0.8566 -0.4473
14262TIP3   OH264200   0.322   5.983   6.238  0.5564  0.1516 -0.2849
14262TIP3    H164201   0.349   6.049   6.301 -1.5593 -0.5726  1.4484
14262TIP3    H264202   0.375   5.906   6.259  1.5117  0.6251 -0.9308
14263TIP3   OH264203   0.824   6.096  11.058 -0.2147 -0.0621 -0.2487
14263TIP3    H164204   0.885   6.088  10.985  1.0199  1.1322  0.6362
14263TIP3    H264205   0.738   6.084  11.018  0.4557  0.3170 -1.8641
14264TIP3   OH264206   5.885   1.347   1.056  0.2149 -0.1859 -0.6673
14264TIP3    H164207   5.839   1.431   1.060  1.3508  0.5198 -1.9188
14264TIP3    H264208   5.877   1.320   0.965  2.5696  0.1392 -0.9959
14265TIP3   OH264209   1.386   5.633   4.406  0.3864 -0.6117  0.3833
14265TIP3    H164210   1.438   5.567   4.361  2.1434  1.3844 -0.6144
14265TIP3    H264211   1.443   5.665   4.476 -0.5120 -0.2761  0.9701
14266TIP3   OH264212   2.915   6.488   4.589 -0.0659 -0.1982 -0.2469
14266TIP3    H164213   2.988   6.542   4.619 -0.2769  0.2877 -0.6008
14266TIP3    H264214   2.938   6.465   4.499 -1.4738  1.9822 -1.2090
14267TIP3   OH264215   1.421   5.937  15.606  0.7653  0.6911  0.0259
14267TIP3    H164216   1.336   5.972  15.579 -0.1678 -2.2110 -0.9787
14267TIP3    H264217   1.407   5.912  15.698 -0.0971 -1.4955 -0.6591
14268TIP3   OH264218   1.928   2.762  14.177 -0.0339  0.0123 -0.1935
14268TIP3    H164219   1.963   2.681  14.139  1.1033  0.4481 -0.1047
14268TIP3    H264220   1.952   2.758  14.269  0.3356  0.5987 -0.2584
14269TIP3   OH264221   2.938   3.366   1.963 -0.2483  0.5205 -0.5839
14269TIP3    H164222   2.998   3.293   1.949 -0.9250  0.0593 -1.1753
14269TIP3    H264223   2.905   3.387   1.875  1.7796  3.1595 -0.7776
14270TIP3   OH264224   2.896   0.832  15.421 -0.0760  0.2848 -0.5751
14270TIP3    H164225   2.934   0.867  15.340  1.8324  1.4205  0.7536
14270TIP3    H264226   2.894   0.738  15.408  0.0660  0.4648 -1.9959
14271TIP3   OH264227   4.748   3.522   3.500  0.4106 -0.1838 -0.5438
14271TIP3    H164228   4.812   3.457   3.474  0.7124 -0.4482  0.8245
14271TIP3    H264229   4.795   3.605   3.497  1.3787 -0.5892  2.2599
14272TIP3   OH264230   4.452   5.427  12.868  0.1055 -0.2063  0.1958
14272TIP3    H164231   4.399   5.349  12.850  0.9233 -0.2601 -2.2470
14272TIP3    H264232   4.520   5.396  12.927  0.3999 -1.3587 -0.7150
14273TIP3   OH264233   4.031   6.562   5.231  0.6407 -0.9381 -0.1136
14273TIP3    H164234   4.041   6.538   5.139  1.1925  0.1769 -0.3489
14273TIP3    H264235   4.113   6.534   5.273  1.5391  1.0303 -0.5058
14274TIP3   OH264236   5.816   6.784   2.484  0.0212  0.5798  0.0838
14274TIP3    H164237   5.796   6.857   2.543 -1.6223  0.4221 -0.2340
14274TIP3    H264238   5.905   6.758   2.507 -0.1427  1.3230  1.6620
14275TIP3   OH264239   1.928   5.467  14.169  0.0561  0.1649  0.4445
14275TIP3    H164240   1.998   5.510  14.120  0.0382 -0.9610 -0.6052
14275TIP3    H264241   1.886   5.538  14.218  1.7684  0.8812  0.9093
14276TIP3   OH264242   5.389   0.294  11.675  0.1194  0.2369 -0.3020
14276TIP3    H164243   5.352   0.314  11.589  1.3287 -0.8240 -1.0768
14276TIP3    H264244   5.340   0.351  11.736 -0.6936  1.0376 -1.6822
14277TIP3   OH264245   6.612   2.428  13.942  0.0623 -0.9385  0.4535
14277TIP3    H164246   6.625   2.465  13.854 -1.0536 -0.6796  0.3865
14277TIP3    H264247   6.620   2.503  14.001 -2.6342 -0.4806  0.2839
14278TIP3   OH264248   3.723   0.499   4.467 -0.2745  0.2065 -0.7378
14278TIP3    H164249   3.677   0.449   4.400 -0.8890  0.2130 -0.3184
14278TIP3    H264250   3.690   0.465   4.550  1.7991 -1.0578 -0.3856
14279TIP3   OH264251   5.940   4.919  16.541 -0.2597  0.0562  0.3050
14279TIP3    H164252   5.877   4.853  16.569 -1.6948  2.2209  2.2724
14279TIP3    H264253   5.887   4.994  16.515  1.4538  1.3782  0.5500
14280TIP3   OH264254   3.305   2.535   2.609 -0.1747 -0.5242  0.6327
14280TIP3    H164255   3.323   2.572   2.523  0.0109 -0.5000  0.6829
14280TIP3    H264256   3.303   2.441   2.596  0.2228 -0.5367  0.6751
14281TIP3   OH264257   4.430   3.088   6.683  0.1514 -0.0042  0.0794
14281TIP3    H164258   4.447   3.135   6.765  1.5383  1.8342 -1.2186
14281TIP3    H264259   4.478   3.006   6.693  3.7343  1.8980 -0.4248
14282TIP3   OH264260   3.189   3.048  10.511 -0.3085 -0.0957  0.2200
14282TIP3    H164261   3.114   2.991  10.531 -1.4175  1.6090  1.0809
14282TIP3    H264262   3.172   3.079  10.422 -0.4415 -0.0194  0.2708
14283TIP3   OH264263   6.409   5.544   1.775  0.3872  0.2200 -0.1445
14283TIP3    H164264   6.372   5.537   1.687 -0.5536 -0.2526  0.2783
14283TIP3    H264265   6.441   5.456   1.795 -0.1176  0.1342  0.2917
14284TIP3   OH264266   1.014   6.295  13.830 -0.1436 -0.0076  0.1485
14284TIP3    H164267   1.073   6.351  13.780 -0.5002 -0.1216 -0.4075
14284TIP3    H264268   1.061   6.278  13.912  0.3701  0.3206 -0.0716
14285TIP3   OH264269   2.162   4.420  14.136  0.4733 -0.0755  0.3780
14285TIP3    H164270   2.136   4.448  14.224  4.7957  0.1114  1.7287
14285TIP3    H264271   2.199   4.498  14.096 -4.7670  0.8220 -3.1494
14286TIP3   OH264272   6.388   1.319   1.247 -0.2780 -0.1631 -0.3426
14286TIP3    H164273   6.459   1.316   1.183 -0.7919 -0.8808 -0.8764
14286TIP3    H264274   6.308   1.317   1.194 -0.7062 -1.1826  0.3339
14287TIP3   OH264275   0.791   4.837  16.017  0.3868 -0.2930  0.1944
14287TIP3    H164276   0.786   4.849  16.112 -1.1529  1.9309 -0.1309
14287TIP3    H264277   0.849   4.761  16.006 -0.0403 -1.0994  2.9227
14288TIP3   OH264278   4.341   1.118   3.204  0.4566  0.0647 -0.5046
14288TIP3    H164279   4.386   1.094   3.123  0.3898 -0.4901 -0.3775
14288TIP3    H264280   4.404   1.100   3.274  0.6258  0.8280 -0.4506
14289TIP3   OH264281   3.869   4.284   1.766 -0.5594 -0.0014  0.3369
14289TIP3    H164282   3.927   4.360   1.763  0.6111 -0.8837  0.5651
14289TIP3    H264283   3.845   4.275   1.858  1.0083 -1.1772  0.6497
14290TIP3   OH264284   4.800   2.720   2.380 -0.4616  0.7134  0.1565
14290TIP3    H164285   4.865   2.740   2.448 -0.4189 -0.5970  0.5239
14290TIP3    H264286   4.850   2.722   2.298 -0.5329  2.4036  0.1373
14291TIP3   OH264287   2.675   3.806   0.730 -0.4125 -0.4466 -0.1461
14291TIP3    H164288   2.728   3.787   0.652 -1.2280  1.0761 -1.0900
14291TIP3    H264289   2.638   3.721   0.755  0.6153 -1.1199 -0.8512
14292TIP3   OH264290   0.450   2.562  13.127 -0.2274 -0.3305 -0.1381
14292TIP3    H164291   0.526   2.620  13.132 -0.1342 -0.4238 -0.4711
14292TIP3    H264292   0.446   2.522  13.214 -0.3838  0.2854  0.1442
14293TIP3   OH264293   4.856   5.267   1.901  0.4892 -0.4123  0.0034
14293TIP3    H164294   4.870   5.269   1.996  1.3485 -0.9380 -0.1145
14293TIP3    H264295   4.944   5.268   1.864  0.1431  1.5992 -0.8249
14294TIP3   OH264296   3.297   4.746  15.956 -0.2694 -0.2901 -0.5716
14294TIP3    H164297   3.241   4.669  15.951 -2.5969  1.4459 -2.3027
14294TIP3    H264298   3.346   4.745  15.874 -0.9859  0.5538 -1.0182
14295TIP3   OH264299   4.687   1.496  11.625 -0.9500 -0.2974  1.3069
14295TIP3    H164300   4.598   1.472  11.651 -1.6814  0.1357 -0.7023
14295TIP3    H264301   4.677   1.533  11.537  1.5110 -2.3567  0.1036
14296TIP3   OH264302   3.300   1.330   5.647 -0.1883  0.0718  0.1397
14296TIP3    H164303   3.357   1.374   5.710 -0.5405  0.6820  0.0449
14296TIP3    H264304   3.347   1.251   5.621  0.0385 -0.0841  1.0270
14297TIP3   OH264305   4.616   3.040   1.333 -0.0981  0.2056 -0.1393
14297TIP3    H164306   4.596   3.049   1.427 -1.5939  0.3009 -0.4495
14297TIP3    H264307   4.671   2.963   1.328 -0.4051 -0.0890  0.7729
14298TIP3   OH264308   5.820   1.499   5.423  0.0444  0.0824 -0.1112
14298TIP3    H164309   5.829   1.578   5.369  2.3264  0.2519  0.4627
14298TIP3    H264310   5.750   1.520   5.485 -0.8843  0.8134 -1.3905
14299TIP3   OH264311   3.439   5.490  15.204  0.3878 -0.0388  0.2127
14299TIP3    H164312   3.497   5.459  15.274  0.2513 -0.3651  0.1838
14299TIP3    H264313   3.471   5.578  15.183  0.7439 -0.1358  0.3381
14300TIP3   OH264314   2.271   1.299   1.004  0.0361  0.1665  1.0551
14300TIP3    H164315   2.181   1.322   1.022 -0.2380 -0.6112  0.7326
14300TIP3    H264316   2.318   1.314   1.086 -0.3056  0.9462  1.1086
14301TIP3   OH264317   2.736   6.763  17.091 -0.3089  0.0400 -0.4417
14301TIP3    H164318   2.709   6.820  17.163  0.0710  1.8790 -1.7326
14301TIP3    H264319   2.704   6.676  17.116 -1.2688  0.8877  1.3466
14302TIP3   OH264320   0.999   2.075  13.972  0.2847 -0.5300  0.7726
14302TIP3    H164321   0.966   2.035  13.892 -0.3409  0.0384  0.7351
14302TIP3    H264322   0.920   2.098  14.021  0.6693 -2.6506  2.4560
14303TIP3   OH264323   5.562   2.349  13.058  0.6882  0.3845 -0.8140
14303TIP3    H164324   5.548   2.441  13.083 -0.8744  0.1298 -0.7022
14303TIP3    H264325   5.602   2.355  12.971 -0.5897  1.1815 -1.3781
14304TIP3   OH264326   5.598   1.160   3.659 -0.2908 -0.3560 -0.8959
14304TIP3    H164327   5.530   1.223   3.637 -0.4320 -0.2236 -0.0927
14304TIP3    H264328   5.587   1.089   3.595 -1.7875 -0.7784 -0.1738
14305TIP3   OH264329   0.805   1.493   0.393  0.1346  0.0453 -0.4990
14305TIP3    H164330   0.780   1.486   0.301  1.7949  1.0842 -1.0539
14305TIP3    H264331   0.723   1.511   0.439 -0.9623 -2.0773 -1.5592
14306TIP3   OH264332   3.914   3.717  14.786  0.4167 -0.0320  0.7898
14306TIP3    H164333   3.898   3.759  14.871  0.3294  2.6805 -0.5573
14306TIP3    H264334   3.881   3.778  14.721 -0.4020 -2.5083 -1.2152
14307TIP3   OH264335   4.143   4.679   4.995  0.1931 -0.3764  0.1642
14307TIP3    H164336   4.178   4.644   5.077  1.0384  1.3382  0.5680
14307TIP3    H264337   4.221   4.702   4.944 -0.3350 -0.9137 -0.8946
14308TIP3   OH264338   6.139   3.726   5.495 -0.0471 -0.4540  0.5322
14308TIP3    H164339   6.215   3.668   5.488  0.6377  0.6142 -1.1466
14308TIP3    H264340   6.101   3.727   5.407  0.5142  2.3492  0.2723
14309TIP3   OH264341   6.525   5.230  16.065  0.0925 -0.2104  0.2983
14309TIP3    H164342   6.573   5.154  16.097 -0.2820 -0.6039 -0.0807
14309TIP3    H264343   6.562   5.248  15.979 -0.9451 -0.9764 -0.3218
14310TIP3   OH264344   2.680   4.643   4.445 -0.2071  0.4328 -0.8688
14310TIP3    H164345   2.741   4.646   4.518 -1.3396  2.2920  0.0379
14310TIP3    H264346   2.727   4.596   4.376  1.0228 -0.9702  0.8988
14311TIP3   OH264347   2.793   5.191  11.237 -0.1728  0.1701 -0.2060
14311TIP3    H164348   2.713   5.230  11.273 -1.6309 -2.3983 -0.5536
14311TIP3    H264349   2.762   5.132  11.168  1.8616 -2.2932  0.9075
14312TIP3   OH264350   1.089   3.468  13.510  0.4395 -0.0997 -0.0188
14312TIP3    H164351   1.018   3.487  13.449 -0.5432 -1.4140  0.7024
14312TIP3    H264352   1.062   3.509  13.592  0.5006 -0.6476  0.2707
14313TIP3   OH264353   4.980   6.646  11.308  0.3638 -0.3204 -0.1554
14313TIP3    H164354   4.942   6.720  11.356  1.2663 -0.1655  0.3271
14313TIP3    H264355   5.039   6.687  11.244 -0.2142 -0.5621 -0.8428
14314TIP3   OH264356   2.487   3.653   5.624  0.4564  0.1941 -0.7962
14314TIP3    H164357   2.522   3.679   5.709 -2.4831  3.6818 -0.5093
14314TIP3    H264358   2.478   3.558   5.630 -0.1896  0.4094  3.0212
14315TIP3   OH264359   6.517   2.367  16.922  0.1269 -0.0060  0.5180
14315TIP3    H164360   6.461   2.375  16.998  0.3882  1.6523  0.5513
14315TIP3    H264361   6.606   2.368  16.957  0.2479  0.7223  0.2113
14316TIP3   OH264362   3.923   6.015   5.223 -0.2483  0.6406  0.1221
14316TIP3    H164363   3.913   5.924   5.198 -1.3953  0.4273  1.2767
14316TIP3    H264364   3.938   6.013   5.318 -0.6145  1.6519  0.2154
14317TIP3   OH264365   5.626   1.228   3.925 -0.4377  0.1941  0.6022
14317TIP3    H164366   5.538   1.232   3.963 -0.0701 -2.4429  1.7890
14317TIP3    H264367   5.614   1.189   3.839 -0.7742  2.6044 -0.4817
14318TIP3   OH264368   5.391   4.438   4.715 -0.1327 -0.3372  0.0504
14318TIP3    H164369   5.305   4.441   4.755 -0.3744  1.1153 -0.5642
14318TIP3    H264370   5.380   4.382   4.638 -0.5791  0.0266 -0.1508
14319TIP3   OH264371   0.873   0.715  13.437  0.3254 -0.1747 -0.4493
14319TIP3    H164372   0.946   0.762  13.395 -0.1761  0.9550 -0.0641
14319TIP3    H264373   0.822   0.784  13.480 -2.0093 -0.7287 -2.2624
14320TIP3   OH264374   0.862   6.471   2.242  0.3526  0.1440 -0.1247
14320TIP3    H164375   0.931   6.536   2.251  0.0273  0.4184  0.4015
14320TIP3    H264376   0.781   6.520   2.259 -0.1650  0.3551 -2.9346
14321TIP3   OH264377   5.591   5.019  11.717 -0.2705 -0.1162 -0.1650
14321TIP3    H164378   5.672   4.998  11.764  0.2966 -0.6344 -1.3501
14321TIP3    H264379   5.522   5.004  11.781  0.5344 -0.1851  0.7016
14322TIP3   OH264380   0.520   5.346  11.519  0.0066 -0.5709 -0.6148
14322TIP3    H164381   0.436   5.300  11.519 -0.1157 -0.3445 -0.4142
14322TIP3    H264382   0.553   5.336  11.608 -0.2585  0.1686 -0.4288
14323TIP3   OH264383   3.785   3.389  12.442 -0.4087 -0.0245 -0.5345
14323TIP3    H164384   3.798   3.382  12.347  0.0838 -1.7536 -0.3452
14323TIP3    H264385   3.744   3.475  12.454  0.8701  0.8365 -2.1744
14324TIP3   OH264386   4.067   3.901  15.922  0.4735  0.1918 -0.3026
14324TIP3    H164387   4.080   3.908  15.827 -1.5030  2.1197 -0.4596
14324TIP3    H264388   3.998   3.964  15.942  0.4197 -0.6353  2.3444
14325TIP3   OH264389   2.567   3.935  15.148 -0.1828  0.3749 -0.0680
14325TIP3    H164390   2.545   3.899  15.062  1.5416  3.2639 -1.8067
14325TIP3    H264391   2.534   4.025  15.144 -0.8439  0.2719  2.6411
14326TIP3   OH264392   3.184   4.571   5.830  0.1904 -0.2421  0.1167
14326TIP3    H164393   3.097   4.543   5.801  0.6970 -1.7305  0.0309
14326TIP3    H264394   3.174   4.666   5.845 -0.9418 -0.0569 -1.6980
14327TIP3   OH264395   3.896   4.210   4.301 -0.1919 -0.1775  0.6061
14327TIP3    H164396   3.945   4.201   4.383  1.0113  0.7331  0.0113
14327TIP3    H264397   3.938   4.284   4.256 -2.4976  1.0253  0.3265
14328TIP3   OH264398   2.277   2.864   3.656 -0.8041  0.1834 -0.0126
14328TIP3    H164399   2.194   2.905   3.680 -0.9344  0.2697 -0.6034
14328TIP3    H264400   2.300   2.903   3.572  1.1957  2.1379  1.4004
14329TIP3   OH264401   6.709   1.848  16.971  0.3485  0.3486  0.1178
14329TIP3    H164402   6.692   1.899  16.892 -0.6435 -0.5195 -0.2476
14329TIP3    H264403   6.802   1.861  16.988  0.4628  0.9633 -0.8979
14330TIP3   OH264404   1.280   2.430  11.882  0.0532  0.1218 -0.7139
14330TIP3    H164405   1.285   2.509  11.935 -0.6441  0.5868 -1.3314
14330TIP3    H264406   1.285   2.460  11.792  2.8658 -0.8096 -0.9243
14331TIP3   OH264407   0.747   1.164  12.243 -0.6589 -0.1482  0.4596
14331TIP3    H164408   0.805   1.237  12.267 -3.0108  1.9813 -0.0479
14331TIP3    H264409   0.745   1.167  12.147 -2.0468  0.1948  0.4920
14332TIP3   OH264410   1.279   3.524  12.649 -0.1774 -0.2653  0.0294
14332TIP3    H164411   1.302   3.452  12.708 -1.6734 -1.1008 -0.3758
14332TIP3    H264412   1.286   3.487  12.561 -1.5683 -0.1302 -0.1607
14333TIP3   OH264413   2.569   5.414   2.861  0.4811 -0.8132  0.4265
14333TIP3    H164414   2.640   5.351   2.871  1.8115  0.7951  1.4036
14333TIP3    H264415   2.594   5.487   2.917 -2.2069 -0.4187  1.1569
14334TIP3   OH264416   6.252   2.408  15.936 -0.1956 -0.0031 -0.1088
14334TIP3    H164417   6.161   2.425  15.912  0.1278  0.4473 -1.0594
14334TIP3    H264418   6.252   2.317  15.966 -0.7884 -0.3219 -1.0229
14335TIP3   OH264419   5.092   2.070   0.688 -0.1426 -0.2636 -0.1369
14335TIP3    H164420   5.091   2.074   0.784 -1.4287 -3.0192  0.0250
14335TIP3    H264421   5.102   1.976   0.668  0.8945  0.3455 -2.7090
14336TIP3   OH264422   4.265   5.105   5.580 -0.0462  0.2418 -0.5457
14336TIP3    H164423   4.342   5.146   5.541  0.3025  0.8587  0.7577
14336TIP3    H264424   4.292   5.085   5.670 -1.3148  0.1961 -0.1721
14337TIP3   OH264425   0.295   0.038   0.079  0.3361  0.3675 -0.2042
14337TIP3    H164426   0.241   0.116   0.093 -0.5433  0.2380 -2.6729
14337TIP3    H264427   0.271  -0.022   0.150 -0.5690  1.4839  0.4314
14338TIP3   OH264428   0.910   2.272   4.426 -0.5041  0.1514  0.2951
14338TIP3    H164429   0.935   2.283   4.335  1.0997 -1.1954  0.5562
14338TIP3    H264430   0.835   2.330   4.438 -0.1431  1.0189 -1.6274
14339TIP3   OH264431   0.406   3.168   1.128 -0.5082 -0.0899  0.0348
14339TIP3    H164432   0.324   3.185   1.082 -0.5815  0.8874  0.5192
14339TIP3    H264433   0.382   3.106   1.197 -1.0534  1.0501  0.8717
14340TIP3   OH264434   4.100   3.228   6.545 -0.2089 -0.7306 -0.0375
14340TIP3    H164435   4.052   3.239   6.627 -0.7858 -0.1057 -0.4531
14340TIP3    H264436   4.037   3.253   6.477  0.0471 -1.8798 -0.7132
14341TIP3   OH264437   2.596   4.043  14.584 -0.7098  0.3542 -0.2039
14341TIP3    H164438   2.621   4.123  14.537  2.3325  0.0630  0.8397
14341TIP3    H264439   2.602   4.067  14.677 -2.2182 -0.3973  0.1049
14342TIP3   OH264440   2.918   2.098  13.646  0.1164 -0.1370 -0.0544
14342TIP3    H164441   2.919   2.043  13.568 -2.1366 -1.0444  0.5147
14342TIP3    H264442   2.844   2.066  13.697 -0.0775  2.1815  1.1958
14343TIP3   OH264443   3.826   4.735  14.431  0.6726  0.0194  0.3649
14343TIP3    H164444   3.868   4.799  14.373  0.9263 -0.2365  0.2660
14343TIP3    H264445   3.863   4.753  14.517  0.8452 -0.0822  0.3116
14344TIP3   OH264446   4.677   1.055  12.960 -0.1014 -0.3581 -0.3094
14344TIP3    H164447   4.609   1.018  12.904 -0.7603  0.3440  0.0250
14344TIP3    H264448   4.756   1.056  12.905 -0.8468  0.7399 -1.3770
14345TIP3   OH264449   3.850   2.913   3.893  0.1065  0.5665 -0.4625
14345TIP3    H164450   3.814   2.996   3.862  0.7190  0.8286 -0.4841
14345TIP3    H264451   3.827   2.910   3.986 -0.3199  0.5378 -0.5654
14346TIP3   OH264452   6.072   6.633   3.052  0.2673  0.2608  0.5307
14346TIP3    H164453   6.046   6.677   2.971  2.8114  1.4377  0.2989
14346TIP3    H264454   6.091   6.543   3.026  0.9820  0.6097 -0.1980
14347TIP3   OH264455   4.036   4.334  16.494  0.9810  0.3241  0.6770
14347TIP3    H164456   3.940   4.332  16.489  1.0088 -0.4579  0.5110
14347TIP3    H264457   4.057   4.428  16.490  0.2532  0.4782  0.2620
14348TIP3   OH264458   6.431   6.614   5.073 -0.6523  0.4236  0.0831
14348TIP3    H164459   6.439   6.613   4.977 -0.1502 -1.1795  0.1341
14348TIP3    H264460   6.518   6.638   5.104 -0.7871  0.8323  0.1517
14349TIP3   OH264461   2.197   1.472   5.511 -0.1476 -0.5789  0.1116
14349TIP3    H164462   2.255   1.531   5.463  2.1316 -1.2886  1.9189
14349TIP3    H264463   2.183   1.398   5.452  0.0504  0.0147 -0.6814
14350TIP3   OH264464   0.395   3.985  13.560  0.1552 -0.4812  0.8759
14350TIP3    H164465   0.485   4.016  13.552 -0.6817  1.8195  0.1652
14350TIP3    H264466   0.352   4.013  13.480 -0.8467 -2.8449  0.5439
14351TIP3   OH264467   3.821   1.012   0.236  0.4097  0.0478  0.1875
14351TIP3    H164468   3.752   1.043   0.296  1.9372 -1.0103  2.5921
14351TIP3    H264469   3.836   1.085   0.177 -2.1994  0.6063  0.1357
14352TIP3   OH264470   4.532   6.133  14.561 -0.6983  0.4010  0.3636
14352TIP3    H164471   4.508   6.072  14.492 -0.3181  0.8896 -0.2024
14352TIP3    H264472   4.623   6.157  14.542 -0.4488  0.2027  1.2723
14353TIP3   OH264473   4.609   0.596   5.830 -0.7255  0.2672 -0.3930
14353TIP3    H164474   4.594   0.683   5.865  0.7610  0.1648  0.5443
14353TIP3    H264475   4.531   0.577   5.778 -2.5916  0.7943  2.0979
14354TIP3   OH264476   4.509   5.115   3.495  0.0781  0.2320 -0.2750
14354TIP3    H164477   4.441   5.116   3.428  0.7534  1.8023 -0.9853
14354TIP3    H264478   4.477   5.175   3.562 -0.3732 -0.9647  0.5913
14355TIP3   OH264479   4.391   3.113   1.155 -0.1004 -0.4340 -0.1143
14355TIP3    H164480   4.344   3.189   1.190 -0.7091 -0.7316 -0.2911
14355TIP3    H264481   4.458   3.095   1.221 -0.0161  0.1907 -0.0181
14356TIP3   OH264482   4.960   0.755  15.788 -0.0506 -0.0906 -0.2138
14356TIP3    H164483   5.007   0.675  15.811 -0.7400 -0.4846 -0.1331
14356TIP3    H264484   4.986   0.819  15.854 -0.6688 -0.7027  0.6202
14357TIP3   OH264485   4.419   1.915  13.311 -0.3598 -0.2847 -0.8300
14357TIP3    H164486   4.463   1.887  13.392 -0.3327 -1.3220 -1.1939
14357TIP3    H264487   4.365   1.989  13.338  0.7987  0.3271 -0.1667
14358TIP3   OH264488   3.093   3.560  11.665 -0.0955  0.1521  0.3037
14358TIP3    H164489   3.011   3.592  11.627 -0.5205 -1.5221 -0.2513
14358TIP3    H264490   3.123   3.631  11.721 -1.6095  1.0413  0.0199
14359TIP3   OH264491   1.409   5.500   4.921 -0.3731  0.8203 -0.0765
14359TIP3    H164492   1.446   5.485   4.834 -0.1971 -1.7332  0.3850
14359TIP3    H264493   1.323   5.457   4.918  0.8322 -1.8417  1.8659
14360TIP3   OH264494   2.719   1.863   0.030  0.0950 -0.0869 -0.7554
14360TIP3    H164495   2.751   1.798   0.093 -1.9977 -1.3565 -0.9278
14360TIP3    H264496   2.752   1.832  -0.054 -0.2892 -0.5368 -0.7466
14361TIP3   OH264497   4.584   2.691   3.079 -0.2323 -0.1466 -0.1354
14361TIP3    H164498   4.596   2.771   3.131 -0.4287 -0.5343  0.5111
14361TIP3    H264499   4.624   2.712   2.994 -0.7601  0.8202 -0.1541
14362TIP3   OH264500   6.218   2.979   2.309  0.0421  0.3216 -0.1521
14362TIP3    H164501   6.147   3.038   2.283 -0.1796 -0.7595 -2.1591
14362TIP3    H264502   6.297   3.020   2.273  0.2022  0.5735  0.4774
14363TIP3   OH264503   2.714   5.668  11.916  0.2754 -0.1508  0.4387
14363TIP3    H164504   2.789   5.726  11.926  0.5152 -0.1306 -1.2263
14363TIP3    H264505   2.747   5.596  11.861 -1.1222  0.2668 -0.9885
14364TIP3   OH264506   6.642   6.698  11.097  0.3358 -0.0770  0.3482
14364TIP3    H164507   6.721   6.657  11.061 -0.0058  0.4603 -1.0792
14364TIP3    H264508   6.651   6.691  11.192  2.2149  0.1894  0.1978
14365TIP3   OH264509   5.483   4.866   1.700 -0.0703 -0.2578  0.0767
14365TIP3    H164510   5.547   4.797   1.681  0.3135  0.1948 -0.2726
14365TIP3    H264511   5.458   4.900   1.615 -3.1472 -2.5327 -0.0635
14366TIP3   OH264512   4.347   3.227  15.495  0.3764  0.4060  0.1468
14366TIP3    H164513   4.382   3.295  15.552  1.2936  0.8482 -0.9326
14366TIP3    H264514   4.420   3.166  15.483  0.1009  0.1586 -0.3017
14367TIP3   OH264515   5.988   1.924  12.106  0.0229 -0.1614  0.4215
14367TIP3    H164516   5.955   1.937  12.017 -0.2038 -0.8862  0.3996
14367TIP3    H264517   6.033   1.840  12.103  1.6808  0.6982  0.5149
14368TIP3   OH264518   6.579   0.277  12.823  0.2307 -0.8985  0.5991
14368TIP3    H164519   6.669   0.248  12.808  0.1132  0.1059 -2.3750
14368TIP3    H264520   6.585   0.372  12.829 -0.7076 -0.7565 -0.4537
14369TIP3   OH264521   2.445   5.673  14.407 -0.5467 -0.8747 -0.5009
14369TIP3    H164522   2.439   5.600  14.345 -1.3401 -1.3316  0.1075
14369TIP3    H264523   2.355   5.703  14.417 -0.2209  0.2110 -0.7641
14370TIP3   OH264524   6.382   1.206  10.623  0.0510 -0.2878 -0.6128
14370TIP3    H164525   6.397   1.265  10.550 -0.5360  0.3934 -0.1908
14370TIP3    H264526   6.288   1.211  10.639  0.0032 -1.3018 -0.5455
14371TIP3   OH264527   3.577   1.305  14.773 -0.1521 -0.0558  0.4548
14371TIP3    H164528   3.620   1.345  14.849 -0.0423  0.1070  0.3099
14371TIP3    H264529   3.626   1.225  14.757 -0.9130 -0.7020  1.2842
14372TIP3   OH264530   0.813   5.515  13.622 -0.2386 -0.2057  0.3099
14372TIP3    H164531   0.880   5.458  13.659 -0.7489 -1.0892 -0.1118
14372TIP3    H264532   0.856   5.601  13.614  0.2933 -0.3487  1.6402
14373TIP3   OH264533   1.694   5.033  14.533 -0.1645  0.1623 -0.1851
14373TIP3    H164534   1.714   5.113  14.484 -0.4500 -0.5122 -1.4104
14373TIP3    H264535   1.742   4.964  14.488 -2.4798 -0.8896 -1.0921
14374TIP3   OH264536   6.703   0.246  11.967  0.3172  0.0768  0.1170
14374TIP3    H164537   6.744   0.165  11.998 -0.8005 -0.4700  0.1789
14374TIP3    H264538   6.686   0.296  12.046  1.5158  0.6224  0.0384
14375TIP3   OH264539   5.633   4.149   5.573  0.2180  0.1085  0.2037
14375TIP3    H164540   5.562   4.208   5.548  1.0558  0.7970 -0.6229
14375TIP3    H264541   5.710   4.206   5.579  1.3897 -1.1488 -2.2625
14376TIP3   OH264542   4.670   3.337   5.930  0.1674  0.2332  0.6675
14376TIP3    H164543   4.671   3.242   5.942  1.6846  0.1347 -0.0954
14376TIP3    H264544   4.733   3.370   5.994  0.8801  0.5772 -0.2093
14377TIP3   OH264545   3.006   4.006   1.776  0.0152 -0.1004 -0.2035
14377TIP3    H164546   2.989   4.088   1.730 -1.7128  0.2825  1.0543
14377TIP3    H264547   2.980   3.938   1.713 -0.1690  0.3584 -0.6256
14378TIP3   OH264548   6.679   4.458   5.660 -0.1146 -0.4606  0.4981
14378TIP3    H164549   6.669   4.497   5.747 -0.9660  0.7537 -0.1224
14378TIP3    H264550   6.750   4.395   5.670  0.1240  0.0144  1.9627
14379TIP3   OH264551   0.356   5.545   3.934 -0.5234 -0.2791  0.0036
14379TIP3    H164552   0.407   5.468   3.959 -0.1114  0.0127  0.0715
14379TIP3    H264553   0.403   5.581   3.859  0.7814  1.3830  1.5638
14380TIP3   OH264554   1.986   3.168   4.143  0.5061 -0.6703 -0.0900
14380TIP3    H164555   1.961   3.187   4.233  1.7744 -2.5378  0.6848
14380TIP3    H264556   2.047   3.238   4.119 -0.3549  0.2074  0.2407
14381TIP3   OH264557   5.618   2.692   0.249 -0.2539  0.1711 -0.1953
14381TIP3    H164558   5.546   2.717   0.191 -0.0952  1.6075  0.2061
14381TIP3    H264559   5.587   2.714   0.337 -0.3346 -1.6108  0.2537
14382TIP3   OH264560   4.386   0.989   3.809  0.2838  0.1135  0.0279
14382TIP3    H164561   4.431   0.946   3.737  1.4524  1.4993 -0.1175
14382TIP3    H264562   4.391   0.927   3.881  0.5455 -0.6215 -0.6161
14383TIP3   OH264563   1.798   2.566  12.248  0.8286  0.3843  0.2586
14383TIP3    H164564   1.830   2.626  12.316  1.4747  0.4350 -0.0860
14383TIP3    H264565   1.744   2.503  12.296  1.3582  0.3668  0.8482
14384TIP3   OH264566   6.132   3.271  14.840 -0.2286  0.2217  0.0133
14384TIP3    H164567   6.177   3.282  14.924  0.1872  0.0957 -0.1892
14384TIP3    H264568   6.078   3.193  14.851 -0.8075  0.6783  0.4335
14385TIP3   OH264569   0.594   6.413  17.134 -0.3967 -0.3305  0.6322
14385TIP3    H164570   0.544   6.493  17.152 -0.3320 -0.0803 -0.2904
14385TIP3    H264571   0.550   6.346  17.186 -1.4303 -0.0268  0.1523
14386TIP3   OH264572   6.156   3.028   4.663 -0.0327 -0.9936 -0.1484
14386TIP3    H164573   6.111   2.950   4.629  0.9916 -0.9595 -1.6309
14386TIP3    H264574   6.202   2.997   4.741 -1.6076 -1.3129  0.6530
14387TIP3   OH264575   3.943   5.924   1.837 -0.0754  0.0647  0.7248
14387TIP3    H164576   3.983   5.878   1.764 -1.5851 -0.4993  0.2361
14387TIP3    H264577   3.929   5.857   1.904  0.8432  0.4792  1.3427
14388TIP3   OH264578   2.858   4.703  14.209 -0.3068 -0.5221 -0.2713
14388TIP3    H164579   2.829   4.724  14.298  0.3771  0.4472 -0.2734
14388TIP3    H264580   2.877   4.788  14.169  2.9570 -1.1263 -0.1290
14389TIP3   OH264581   1.704   2.552  13.946 -0.0732 -0.3065 -0.3694
14389TIP3    H164582   1.738   2.527  14.031  2.2985  2.1215 -0.5305
14389TIP3    H264583   1.732   2.482  13.887  0.0888 -0.9423  0.4509
14390TIP3   OH264584   1.436   5.817   3.420  0.6593  0.2018  0.0309
14390TIP3    H164585   1.530   5.806   3.411  0.2628 -4.8637  0.7131
14390TIP3    H264586   1.398   5.760   3.352 -1.8853 -0.0103  1.5456
14391TIP3   OH264587   1.088   5.994  15.383  0.2057  0.1941  0.8634
14391TIP3    H164588   1.003   5.977  15.343  0.0110  0.1143  1.3052
14391TIP3    H264589   1.118   6.075  15.343  0.9346 -0.9506 -0.9384
14392TIP3   OH264590   5.922   2.584   4.952 -0.1834 -0.1212 -0.2339
14392TIP3    H164591   5.999   2.578   4.895 -0.0986  0.6168 -0.2097
14392TIP3    H264592   5.957   2.567   5.040  0.2787  1.8719 -0.0037
14393TIP3   OH264593   6.660   4.524  12.333  0.6633  0.2888  0.0149
14393TIP3    H164594   6.564   4.515  12.331  0.5335  1.8973 -1.7218
14393TIP3    H264595   6.677   4.580  12.409  0.2018  0.4477  0.0048
14394TIP3   OH264596   5.020   0.360  10.811 -0.1738 -0.3614 -0.4566
14394TIP3    H164597   4.976   0.281  10.842  0.7316  0.2263  2.4288
14394TIP3    H264598   4.948   0.419  10.787 -0.9559 -0.3922  1.6846
14395TIP3   OH264599   3.083   2.241   0.642 -0.0183 -0.2046 -0.0668
14395TIP3    H164600   3.144   2.167   0.639 -1.1745 -1.2336  1.3088
14395TIP3    H264601   3.008   2.213   0.590 -0.7012 -0.2241  0.9193
14396TIP3   OH264602   6.495   3.293   2.352  1.1326 -0.4755  0.3020
14396TIP3    H164603   6.474   3.377   2.393  0.1081  0.3440 -1.8099
14396TIP3    H264604   6.590   3.288   2.356  1.3378  1.6139 -1.0424
14397TIP3   OH264605   2.921   4.369  15.398 -0.0750  0.2889  0.0932
14397TIP3    H164606   2.941   4.295  15.456 -0.0297  0.3029  0.0948
14397TIP3    H264607   2.907   4.443  15.457  1.5762  0.6843  0.0099
14398TIP3   OH264608   1.886   3.519   6.540  0.2057 -0.2047  0.0309
14398TIP3    H164609   1.813   3.490   6.595 -0.7816 -2.0406 -2.1464
14398TIP3    H264610   1.930   3.438   6.515  2.4752  0.8331  0.5902
14399TIP3   OH264611   3.081   4.634   0.465  0.1990  0.1030 -0.0351
14399TIP3    H164612   2.991   4.667   0.460  0.6486  1.5934  1.0417
14399TIP3    H264613   3.072   4.540   0.480 -1.2082  0.4805  1.6161
14400TIP3   OH264614   5.475   1.693  12.888 -0.0851 -0.0371  0.8238
14400TIP3    H164615   5.382   1.717  12.885 -0.1009 -0.0472  1.2721
14400TIP3    H264616   5.520   1.767  12.848 -0.2909 -0.0492  0.5699
14401TIP3   OH264617   2.273   5.475   4.632  0.0653  0.0538 -0.4414
14401TIP3    H164618   2.251   5.386   4.658  0.6110  0.3858  1.1783
14401TIP3    H264619   2.351   5.497   4.683 -0.3030  1.6020 -0.5167
14402TIP3   OH264620   2.119   3.692   2.404  0.1920  0.4228  1.0737
14402TIP3    H164621   2.187   3.633   2.438 -0.4884 -0.9379  0.1430
14402TIP3    H264622   2.145   3.707   2.313 -2.1688 -2.3498 -0.1455
14403TIP3   OH264623   4.914   1.364  16.214  0.3133 -0.7049 -0.2116
14403TIP3    H164624   4.932   1.343  16.122 -0.3322 -2.8118  0.1102
14403TIP3    H264625   4.935   1.283  16.260 -3.7294 -1.1790  0.9656
14404TIP3   OH264626   4.828   6.721  15.119  0.1726 -0.3896 -0.1383
14404TIP3    H164627   4.879   6.702  15.197  1.8078  0.8294 -0.8630
14404TIP3    H264628   4.869   6.668  15.050  0.2783  0.3591 -0.6624
14405TIP3   OH264629   0.360   3.091   1.697 -0.3070 -0.4647  0.7927
14405TIP3    H164630   0.437   3.119   1.746 -0.4775  0.4518  0.5536
14405TIP3    H264631   0.382   3.003   1.665  1.7746  0.8380 -1.5976
14406TIP3   OH264632   0.094   3.796  15.647  0.2443 -0.2832  0.3532
14406TIP3    H164633   0.086   3.865  15.713 -1.4611 -0.8405  0.7480
14406TIP3    H264634   0.079   3.842  15.564  0.8891  0.1448  0.4697
14407TIP3   OH264635   6.512   5.278   1.836 -0.0436 -0.4208 -0.0694
14407TIP3    H164636   6.512   5.254   1.929  0.3604 -0.2026 -0.0115
14407TIP3    H264637   6.573   5.215   1.796 -1.6025 -1.6829 -0.4957
14408TIP3   OH264638   4.597   5.954   1.439 -0.0707 -0.4358 -0.9541
14408TIP3    H164639   4.589   6.044   1.472 -0.1785 -0.7481 -0.1324
14408TIP3    H264640   4.524   5.944   1.378 -0.2524 -0.0770 -0.7948
14409TIP3   OH264641   1.262   6.390   0.078 -0.0411 -0.0555 -0.4193
14409TIP3    H164642   1.300   6.478   0.076 -1.0989  0.3933 -1.4089
14409TIP3    H264643   1.301   6.345   0.003 -2.2749  0.7652 -2.1011
14410TIP3   OH264644   2.751   5.101   0.637  0.3861 -0.0125  0.1296
14410TIP3    H164645   2.774   5.160   0.709  1.3860 -0.4567  0.1848
14410TIP3    H264646   2.743   5.015   0.678  0.5405 -0.1961 -0.2216
14411TIP3   OH264647   3.907   5.434  12.285 -0.0118  0.0881  0.1002
14411TIP3    H164648   3.843   5.371  12.252  1.8772 -0.4122 -2.8582
14411TIP3    H264649   3.962   5.454  12.208  2.9583  0.9874  2.3705
14412TIP3   OH264650   0.508   3.222   2.893  0.1843  0.1313 -0.5975
14412TIP3    H164651   0.553   3.236   2.977 -0.0012  0.3303 -0.5288
14412TIP3    H264652   0.578   3.199   2.832  0.4503  0.9342 -0.6072
14413TIP3   OH264653   2.842   1.163  13.322  0.1801  0.1982 -0.5553
14413TIP3    H164654   2.856   1.121  13.407 -1.7697  1.2443  0.3409
14413TIP3    H264655   2.766   1.117  13.285 -0.9633  1.8137 -0.2782
14414TIP3   OH264656   4.384   4.908  13.591  0.3470  0.0162  0.2597
14414TIP3    H164657   4.397   4.816  13.569  0.6595  0.0902  0.1402
14414TIP3    H264658   4.427   4.957  13.521  0.2692  0.2525  0.3752
14415TIP3   OH264659   5.774   0.027   0.465  0.5923 -1.2019  0.1804
14415TIP3    H164660   5.855  -0.003   0.506  0.2578  0.7405  2.4286
14415TIP3    H264661   5.712   0.033   0.538 -0.1741  1.8925 -0.6612
14416TIP3   OH264662   4.461   3.897   4.957 -0.1638 -0.3463 -0.2087
14416TIP3    H164663   4.438   3.870   5.046  0.0661  0.7503  0.1886
14416TIP3    H264664   4.502   3.819   4.919 -0.4504 -0.8907  0.5685
14417TIP3   OH264665   0.144   1.043  13.776 -0.0224  0.0790  0.0755
14417TIP3    H164666   0.055   1.075  13.762 -0.3978 -0.3987  1.3294
14417TIP3    H264667   0.168   1.075  13.863  1.0604  0.2563 -0.2743
14418TIP3   OH264668   2.572   6.728  14.318  0.1962  0.5924  0.3510
14418TIP3    H164669   2.535   6.712  14.232 -0.5034  1.6826  0.4478
14418TIP3    H264670   2.666   6.738  14.302  0.1382  0.2841 -0.2053
14419TIP3   OH264671   4.950   1.848  13.096  0.5147  0.2171 -0.3699
14419TIP3    H164672   5.014   1.916  13.116  0.0467  0.2710  1.0028
14419TIP3    H264673   4.867   1.885  13.126 -0.1414  0.0681 -1.9431
14420TIP3   OH264674   2.773   5.835  16.194  0.1543  0.7065 -0.7653
14420TIP3    H164675   2.811   5.760  16.149 -1.3451 -0.5635  0.0299
14420TIP3    H264676   2.681   5.812  16.204 -0.4159  2.8636 -0.9212
14421TIP3   OH264677   1.326   3.860   5.002 -0.0891  0.5441 -1.0249
14421TIP3    H164678   1.327   3.901   5.089  2.2148 -1.1994 -0.1855
14421TIP3    H264679   1.236   3.828   4.991 -0.2481  0.2525  0.9688
14422TIP3   OH264680   2.441   6.291   4.203  0.6978  0.5533 -0.4810
14422TIP3    H164681   2.450   6.320   4.112  0.8070 -0.2745 -0.7412
14422TIP3    H264682   2.354   6.320   4.230  0.6429  0.7464 -0.8748
14423TIP3   OH264683   1.388   0.476  16.575 -0.0651  0.0347  0.0807
14423TIP3    H164684   1.367   0.483  16.482  0.3116  0.5615  0.0275
14423TIP3    H264685   1.337   0.546  16.616  0.1066  0.0822  0.2114
14424TIP3   OH264686   2.679   4.178   5.883  0.0586 -0.0276  0.6557
14424TIP3    H164687   2.653   4.092   5.848 -1.6954  0.9045 -0.4273
14424TIP3    H264688   2.675   4.167   5.978 -0.8634 -0.9427  0.5203
14425TIP3   OH264689   0.036   0.085   2.978  0.0487 -0.3600 -0.7033
14425TIP3    H164690  -0.060   0.088   2.973  0.0286  0.3782 -0.0335
14425TIP3    H264691   0.055   0.075   3.071  0.6498  1.6969 -0.5695
14426TIP3   OH264692   1.209   5.272   0.739  0.4965  0.4262 -0.1763
14426TIP3    H164693   1.207   5.300   0.831 -1.8553 -0.3750  0.0555
14426TIP3    H264694   1.301   5.251   0.722  1.0795  1.3185  1.7675
14427TIP3   OH264695   2.536   3.080  15.966  1.1086 -0.0040  0.2460
14427TIP3    H164696   2.526   3.026  15.887  4.0508 -0.0962 -0.1376
14427TIP3    H264697   2.534   3.170  15.933  1.4932 -0.0199  0.1810
14428TIP3   OH264698   3.011   2.018   5.024  0.3596 -0.1863 -0.1650
14428TIP3    H164699   2.938   2.027   4.962 -1.2333  0.8938  1.8093
14428TIP3    H264700   3.082   2.067   4.983 -0.0873 -1.0020 -1.9900
14429TIP3   OH264701   2.405   0.940   1.174  0.3787  0.3348  0.2570
14429TIP3    H164702   2.355   1.005   1.125  0.3827 -2.3685 -3.5570
14429TIP3    H264703   2.341   0.874   1.199  1.4510 -1.6529 -2.0439
14430TIP3   OH264704   0.160   3.925  13.937 -0.0734 -0.6843 -0.0556
14430TIP3    H164705   0.204   3.840  13.945  1.2228  0.0294  0.4636
14430TIP3    H264706   0.231   3.988  13.927 -1.0750  0.1540 -2.3247
14431TIP3   OH264707   1.100   6.280  11.407 -0.1514 -0.4277 -0.3738
14431TIP3    H164708   1.010   6.305  11.427 -0.4921 -2.3046  0.4756
14431TIP3    H264709   1.140   6.263  11.493  1.5681  2.1393 -0.5942
14432TIP3   OH264710   5.879   1.786  14.020  0.0107  0.2547  0.4705
14432TIP3    H164711   5.795   1.831  14.014  0.3478  0.6965 -0.9079
14432TIP3    H264712   5.880   1.727  13.945  0.3457 -0.7603  1.2545
14433TIP3   OH264713   4.499   1.279   3.940 -0.3927  0.0686  0.4234
14433TIP3    H164714   4.413   1.239   3.953  0.3130 -1.0495  1.7735
14433TIP3    H264715   4.555   1.206   3.912  0.3076  0.6047  0.4238
14434TIP3   OH264716   3.120   5.995  14.523  0.0557  0.0052 -0.4170
14434TIP3    H164717   3.051   6.011  14.459 -1.4106  0.1553  1.1712
14434TIP3    H264718   3.110   6.065  14.588  1.4141 -0.2306  0.0709
14435TIP3   OH264719   1.597   0.429  13.772  0.2556 -0.3397  0.0917
14435TIP3    H164720   1.628   0.346  13.810 -3.5661 -2.0263 -0.2195
14435TIP3    H264721   1.575   0.483  13.848  1.3876 -0.1360  0.2856
14436TIP3   OH264722   2.703   3.150   0.584 -0.1697  0.3346  0.2296
14436TIP3    H164723   2.645   3.106   0.522  1.6174 -0.3972 -0.9599
14436TIP3    H264724   2.692   3.102   0.666 -0.4679 -0.4464 -0.2661
14437TIP3   OH264725   2.507   4.918   6.058  0.5064  0.0638 -0.0532
14437TIP3    H164726   2.512   4.896   6.151 -0.3607 -1.4175 -0.3290
14437TIP3    H264727   2.431   4.869   6.027 -0.2481  1.9111 -1.1798
14438TIP3   OH264728   4.886   2.736   6.293 -0.0884  0.4189  0.3278
14438TIP3    H164729   4.834   2.676   6.347 -0.0038  0.7629  0.7933
14438TIP3    H264730   4.823   2.801   6.261  0.0145  0.7068  0.7094
14439TIP3   OH264731   4.853   3.305  15.797 -0.4400  0.4651  0.2645
14439TIP3    H164732   4.946   3.314  15.817 -0.2021 -0.4953 -0.3866
14439TIP3    H264733   4.810   3.368  15.855  0.5714  0.5859  0.9002
14440TIP3   OH264734   2.917   4.175   4.689 -0.6259  0.0082  0.0867
14440TIP3    H164735   2.953   4.115   4.754  0.0695 -0.4451 -0.7023
14440TIP3    H264736   2.866   4.238   4.740 -1.0118 -0.9969  0.9628
14441TIP3   OH264737   1.381   1.093  16.792  0.0677  0.7349  0.1906
14441TIP3    H164738   1.394   1.006  16.829  0.8793  0.9297  0.3778
14441TIP3    H264739   1.394   1.081  16.697 -0.2566  0.5712  0.1676
14442TIP3   OH264740   2.410   1.170  16.114  0.2242 -0.5955 -0.3927
14442TIP3    H164741   2.443   1.229  16.047 -0.2867  0.8832  0.6516
14442TIP3    H264742   2.316   1.186  16.118  0.3899  0.1103  1.4186
14443TIP3   OH264743   0.911   4.721  10.999  0.3690  0.9339  0.4079
14443TIP3    H164744   0.956   4.700  11.081  1.2225 -1.1726 -0.5592
14443TIP3    H264745   0.840   4.657  10.994  0.6046  0.7472 -0.7054
14444TIP3   OH264746   5.521   3.087   3.371 -0.4787 -0.6102 -0.5200
14444TIP3    H164747   5.578   3.084   3.294  1.5315 -3.4243  1.0018
14444TIP3    H264748   5.581   3.078   3.445 -2.7504 -2.2268  1.1792
14445TIP3   OH264749   1.886   0.160   3.258 -0.4657 -0.4013  0.1710
14445TIP3    H164750   1.964   0.132   3.305  0.4537 -0.8112 -1.5298
14445TIP3    H264751   1.870   0.089   3.195 -1.7316  0.0478 -0.0285
14446TIP3   OH264752   4.382   6.511  11.425 -0.7710 -0.0187 -0.3802
14446TIP3    H164753   4.326   6.570  11.474  0.5253 -0.3736  1.5713
14446TIP3    H264754   4.410   6.562  11.348 -0.5429  1.5334  0.7141
14447TIP3   OH264755   0.612   3.551  16.230  0.1249 -0.0251  0.0318
14447TIP3    H164756   0.633   3.636  16.270 -1.8474 -0.1770  1.4575
14447TIP3    H264757   0.690   3.498  16.247  1.0272  1.2196 -0.0922
14448TIP3   OH264758   6.351   3.859   0.360  0.0174 -0.0669  0.6949
14448TIP3    H164759   6.315   3.945   0.381  0.7468  0.2942  0.4788
14448TIP3    H264760   6.412   3.840   0.431 -0.5387 -0.6458  1.0220
14449TIP3   OH264761   4.687   1.367   4.329 -0.7000 -0.0484 -0.5128
14449TIP3    H164762   4.602   1.390   4.292 -0.1371  1.4609 -0.9122
14449TIP3    H264763   4.673   1.363   4.423 -1.4468 -0.8451 -0.6566
14450TIP3   OH264764   4.848   6.744   2.817  0.4924  0.0071  0.3874
14450TIP3    H164765   4.886   6.735   2.730  0.8322  0.3841  0.4988
14450TIP3    H264766   4.761   6.782   2.801  0.1639 -0.8260  0.1396
14451TIP3   OH264767   0.610   5.679   0.214  0.6902  0.2870  0.2645
14451TIP3    H164768   0.539   5.676   0.278  2.3080  1.1187  2.1655
14451TIP3    H264769   0.576   5.734   0.143 -1.1023 -0.5886  0.4088
14452TIP3   OH264770   3.443   0.663   5.944 -0.8516  0.0902 -0.0455
14452TIP3    H164771   3.367   0.610   5.917 -0.2158 -1.1065  0.5101
14452TIP3    H264772   3.473   0.622   6.025  0.7836  0.1679 -0.6056
14453TIP3   OH264773   1.936   6.400  12.334  0.1013 -0.1031 -0.5324
14453TIP3    H164774   1.927   6.325  12.393 -0.0770 -0.4305 -0.9797
14453TIP3    H264775   2.020   6.440  12.359 -0.5839  0.5299  0.8381
14454TIP3   OH264776   0.571   5.051   5.273  0.2875  0.5484 -0.8274
14454TIP3    H164777   0.651   5.011   5.308  0.0397  0.5445 -0.2555
14454TIP3    H264778   0.601   5.130   5.229  0.5291  0.9742  0.0817
14455TIP3   OH264779   5.338   1.274  16.758  0.6050  0.4880  0.1377
14455TIP3    H164780   5.288   1.343  16.803 -0.6666  0.6430 -1.4380
14455TIP3    H264781   5.301   1.192  16.791 -0.1023  0.6002 -0.3514
14456TIP3   OH264782   4.660   3.452  13.020 -0.2354 -0.2654  0.5749
14456TIP3    H164783   4.674   3.438  13.114  0.2720 -1.6925  0.2977
14456TIP3    H264784   4.579   3.407  13.000 -1.5570  1.9632  0.7518
14457TIP3   OH264785   2.099   4.651   3.387 -0.1184 -0.1429 -0.4285
14457TIP3    H164786   2.082   4.654   3.293  2.2588  2.3286 -0.8459
14457TIP3    H264787   2.167   4.585   3.397 -1.0239 -1.0660 -0.3170
14458TIP3   OH264788   6.786   3.087  14.784  0.4219 -0.1973 -0.3742
14458TIP3    H164789   6.864   3.039  14.755  1.2688 -0.2242  1.8784
14458TIP3    H264790   6.749   3.034  14.854  0.5197  1.6382  1.1161
14459TIP3   OH264791   5.937   6.653  12.059  0.1514  0.8925  0.1247
14459TIP3    H164792   5.943   6.565  12.096  0.9550  0.4184 -1.0958
14459TIP3    H264793   5.857   6.690  12.098 -0.4540 -0.5423  0.2795
14460TIP3   OH264794   0.827   5.758   4.081 -0.1375 -0.5619 -0.1129
14460TIP3    H164795   0.830   5.814   4.004  0.6925  1.0650  1.0442
14460TIP3    H264796   0.763   5.690   4.060 -1.5562  1.1225 -1.3780
14461TIP3   OH264797   5.039   2.393  15.280  0.3687  0.2046  0.1959
14461TIP3    H164798   4.974   2.324  15.295  1.0906 -0.6554 -0.5948
14461TIP3    H264799   5.108   2.375  15.344  0.1360  0.7404  0.6049
14462TIP3   OH264800   1.962   0.975   5.390  0.3854 -0.5181 -0.6401
14462TIP3    H164801   1.881   0.972   5.441  1.2957  1.1210  0.9895
14462TIP3    H264802   2.027   1.010   5.452  2.2617 -1.5505 -1.9987
14463TIP3   OH264803   1.255   1.240   2.706 -0.5489  0.5084  0.2503
14463TIP3    H164804   1.253   1.192   2.789  3.8762  0.2556  0.3231
14463TIP3    H264805   1.216   1.325   2.727  0.3335  0.3787  2.5687
14464TIP3   OH264806   1.336   0.307   5.315  0.7807 -0.0679 -0.1089
14464TIP3    H164807   1.300   0.393   5.292  1.0919 -0.2794 -1.4363
14464TIP3    H264808   1.280   0.276   5.386 -1.4167 -0.1905 -1.8221
14465TIP3   OH264809   3.406   3.284   5.359  0.2835 -0.4206  0.0056
14465TIP3    H164810   3.395   3.189   5.361  0.6743 -0.4553  0.9191
14465TIP3    H264811   3.318   3.318   5.343 -0.3568 -0.8462  2.3415
14466TIP3   OH264812   5.455   5.694   0.195  0.2660 -0.1925 -0.1404
14466TIP3    H164813   5.373   5.705   0.146  0.6820 -0.8419 -1.0090
14466TIP3    H264814   5.427   5.675   0.284 -0.5186  0.3522 -0.2590
14467TIP3   OH264815   4.990   4.293  13.113 -0.6454  0.1686 -0.7133
14467TIP3    H164816   4.907   4.322  13.150  0.6178  0.6333  1.9542
14467TIP3    H264817   4.973   4.204  13.083 -1.5599 -0.5968  1.9088
14468TIP3   OH264818   4.106   1.593   1.695  0.4770 -0.0898 -0.0689
14468TIP3    H164819   4.014   1.598   1.669  1.0510  1.6996 -1.8723
14468TIP3    H264820   4.108   1.628   1.784 -0.7919 -1.6489  0.6041
14469TIP3   OH264821   3.638   4.081   1.945  0.3791  0.4181  0.2692
14469TIP3    H164822   3.571   4.148   1.930  0.3159  0.2431 -0.2476
14469TIP3    H264823   3.718   4.131   1.965  0.5209  0.6756 -0.8869
14470TIP3   OH264824   4.335   3.437  16.746 -0.3430  0.5344 -0.0450
14470TIP3    H164825   4.374   3.507  16.798 -1.2257  0.7055  0.3820
14470TIP3    H264826   4.379   3.357  16.776  0.1128  0.8040  0.0066
14471TIP3   OH264827   1.245   6.225  13.974  0.2460 -0.2253 -0.1392
14471TIP3    H164828   1.328   6.270  13.987 -0.1717  0.1897  1.0744
14471TIP3    H264829   1.267   6.132  13.982  0.7915 -0.1776 -0.9716
14472TIP3   OH264830   1.309   3.104   2.793  0.2327  0.1678  0.0080
14472TIP3    H164831   1.248   3.034   2.773  1.8173 -1.6196  1.2702
14472TIP3    H264832   1.332   3.092   2.885 -0.0045  2.7956  0.4730
14473TIP3   OH264833   2.882   5.555   4.675 -0.2305  0.2622 -0.1082
14473TIP3    H164834   2.969   5.565   4.637 -0.2554  1.0247  0.0138
14473TIP3    H264835   2.828   5.521   4.604  0.3079 -0.8227 -0.0061
14474TIP3   OH264836   1.966   4.016   6.017 -0.9782 -1.1813 -0.1716
14474TIP3    H164837   1.969   3.922   6.035  1.0185 -1.0494  0.2600
14474TIP3    H264838   2.018   4.056   6.087 -3.2018  0.4097  0.6292
14475TIP3   OH264839   2.493   3.806   2.514  0.2533 -0.3038 -0.1033
14475TIP3    H164840   2.554   3.836   2.446  1.2598  0.1529  0.9906
14475TIP3    H264841   2.444   3.885   2.538 -0.1565 -0.4823 -0.3421
14476TIP3   OH264842   3.961   6.722   2.772  0.0177 -0.1629 -0.3040
14476TIP3    H164843   3.976   6.641   2.821  0.6751 -0.6684 -1.3257
14476TIP3    H264844   3.918   6.694   2.691 -0.1823  0.5572 -0.4488
14477TIP3   OH264845   1.919   5.531   3.822  0.0803  0.2730 -0.3026
14477TIP3    H164846   1.914   5.479   3.742  0.0443  2.1230 -1.5237
14477TIP3    H264847   1.828   5.539   3.851 -0.1667  1.6190 -1.4132
14478TIP3   OH264848   1.334   2.100  16.627  0.2176  0.1728  0.5200
14478TIP3    H164849   1.298   2.183  16.597  1.0258  0.8271  1.3691
14478TIP3    H264850   1.420   2.121  16.661  0.5473 -1.0564  0.4949
14479TIP3   OH264851   3.212   3.888  16.952  0.2110  0.3481  0.2825
14479TIP3    H164852   3.209   3.820  17.019  2.1621 -1.2589 -1.2062
14479TIP3    H264853   3.128   3.879  16.906 -0.0902 -0.1590  0.9131
14480TIP3   OH264854   0.772   6.337   1.837  0.2586  0.6889 -0.6682
14480TIP3    H164855   0.692   6.382   1.812 -0.6217 -0.3130  0.2547
14480TIP3    H264856   0.742   6.253   1.872  1.8076 -0.2896 -1.6474
14481TIP3   OH264857   5.909   0.378   5.688 -0.4056  0.1889 -0.4119
14481TIP3    H164858   5.915   0.410   5.778  1.4820 -0.8933 -0.1220
14481TIP3    H264859   5.964   0.437   5.638 -1.6010  0.8978 -0.8897
14482TIP3   OH264860   2.942   0.457  11.051  0.3820 -0.2583 -0.2071
14482TIP3    H164861   2.973   0.367  11.035  0.1909 -0.6717  1.6378
14482TIP3    H264862   2.999   0.512  10.997  2.7475 -1.2144  1.2335
14483TIP3   OH264863   3.633   1.420   3.781  0.1666 -0.2600 -0.0607
14483TIP3    H164864   3.686   1.377   3.714 -0.8166 -1.6810  0.0659
14483TIP3    H264865   3.624   1.356   3.851 -1.3269  0.1297  0.1271
14484TIP3   OH264866   3.861   6.691  14.351  0.3277 -0.2691  0.2988
14484TIP3    H164867   3.804   6.626  14.392  2.2359 -2.0730  0.1422
14484TIP3    H264868   3.900   6.738  14.424  1.0480 -1.1476  0.4823
14485TIP3   OH264869   1.348   3.513   3.005 -0.1158 -0.7586  0.2048
14485TIP3    H164870   1.341   3.509   2.909 -1.2211  0.9541  0.2015
14485TIP3    H264871   1.442   3.528   3.020  0.1855 -1.7424 -0.5636
14486TIP3   OH264872   4.890   0.349  11.787 -0.1646 -0.0371  0.3723
14486TIP3    H164873   4.916   0.393  11.869  1.4878  0.7968 -0.5585
14486TIP3    H264874   4.960   0.372  11.726 -1.0900 -1.1470 -1.1086
14487TIP3   OH264875   1.528   6.690  13.014 -0.0533 -0.2800  0.2994
14487TIP3    H164876   1.560   6.774  13.045 -1.1764 -0.8642  3.2437
14487TIP3    H264877   1.600   6.629  13.029 -0.8346 -0.7012  2.6076
14488TIP3   OH264878   1.874   0.379  12.796 -0.5897  0.3245 -0.1474
14488TIP3    H164879   1.779   0.377  12.785 -0.8103  1.8478  1.1985
14488TIP3    H264880   1.897   0.471  12.785  0.7178 -0.0198 -0.3314
14489TIP3   OH264881   2.592   1.022  13.324  0.2411 -0.1365  0.3630
14489TIP3    H164882   2.563   1.063  13.406  0.9683 -0.4056  0.7613
14489TIP3    H264883   2.559   0.932  13.330  1.3210 -0.5133  0.9246
14490TIP3   OH264884   2.825   5.145   1.631 -0.3696 -0.0429  0.1759
14490TIP3    H164885   2.747   5.093   1.614 -0.9702  1.0671 -0.4622
14490TIP3    H264886   2.857   5.171   1.545  0.8589 -0.7010  0.4163
14491TIP3   OH264887   4.278   1.178  16.192 -0.7613  0.3568 -0.2044
14491TIP3    H164888   4.274   1.182  16.287 -1.5838 -1.8019 -0.1169
14491TIP3    H264889   4.208   1.117  16.168  1.4171 -1.4833 -1.9920
14492TIP3   OH264890   6.685   5.021  16.103 -0.2378 -0.2765 -0.4013
14492TIP3    H164891   6.708   4.961  16.033 -0.7551 -0.0839 -0.7433
14492TIP3    H264892   6.683   4.967  16.182  2.1282 -0.1474 -0.2168
14493TIP3   OH264893   6.441   4.331   5.589  0.4538 -0.3126 -0.4779
14493TIP3    H164894   6.518   4.387   5.581  0.6547 -0.3046  1.3710
14493TIP3    H264895   6.415   4.338   5.681  0.4967 -3.2918 -0.1973
14494TIP3   OH264896   2.595   6.588   3.982  0.3833 -0.1045  0.3832
14494TIP3    H164897   2.505   6.562   4.004 -0.1088  1.1883 -0.0187
14494TIP3    H264898   2.608   6.669   4.031  1.0252  0.1675 -0.2359
14495TIP3   OH264899   6.524   1.470  11.729 -0.1480 -0.0603 -0.3705
14495TIP3    H164900   6.608   1.468  11.685 -1.7956  1.9606 -3.8364
14495TIP3    H264901   6.485   1.384  11.713  0.3970 -0.2706 -0.5544
14496TIP3   OH264902   0.428   3.018  11.461 -0.0918 -0.3400  0.2189
14496TIP3    H164903   0.351   2.998  11.409 -0.0094  2.8161 -1.2362
14496TIP3    H264904   0.502   2.991  11.406 -0.0927 -0.7097  0.3987
14497TIP3   OH264905   0.943   2.629   2.354  0.5667  0.4888 -0.5114
14497TIP3    H164906   0.912   2.539   2.362  0.5086  0.4384 -1.3120
14497TIP3    H264907   0.927   2.668   2.440  0.5738 -0.2579 -0.1744
14498TIP3   OH264908   4.145   6.630  16.777 -0.0474  0.5796  0.1376
14498TIP3    H164909   4.067   6.664  16.820 -0.3720  0.3297 -0.2502
14498TIP3    H264910   4.148   6.676  16.692  0.2553  0.6269  0.1721
14499TIP3   OH264911   2.705   2.532  13.984 -0.7249 -0.2426  0.0312
14499TIP3    H164912   2.718   2.460  13.922 -0.2576  0.3867 -0.6131
14499TIP3    H264913   2.626   2.576  13.953 -0.9170 -0.3843  0.3258
14500TIP3   OH264914   6.735   2.906   4.768 -0.0938 -0.5860  0.0578
14500TIP3    H164915   6.797   2.908   4.695  1.3439 -0.8848  1.2588
14500TIP3    H264916   6.786   2.874   4.842 -1.4524  0.0620  1.2917
14501TIP3   OH264917   3.250   1.529  14.495  0.2175 -0.0742 -0.9817
14501TIP3    H164918   3.307   1.486  14.559  1.2489  1.8552 -0.5480
14501TIP3    H264919   3.165   1.535  14.539  0.2118 -1.1299 -0.8302
14502TIP3   OH264920   2.636   2.111   1.476 -0.5743 -0.2523 -0.1874
14502TIP3    H164921   2.560   2.055   1.491 -0.8323 -0.0176 -0.5963
14502TIP3    H264922   2.711   2.051   1.477 -0.7228 -0.4360  0.5675
14503TIP3   OH264923   2.525   6.225  11.196 -0.1341 -0.0532  0.5394
14503TIP3    H164924   2.486   6.138  11.189 -1.4968  0.6211 -0.6666
14503TIP3    H264925   2.607   6.218  11.148 -1.0801 -0.2160 -1.0920
14504TIP3   OH264926   3.634   6.551   6.547 -0.5117  0.0608 -0.2045
14504TIP3    H164927   3.561   6.609   6.522  0.4689  1.1939 -0.4993
14504TIP3    H264928   3.603   6.463   6.526 -1.8519  0.5087 -0.1895
14505TIP3   OH264929   3.132   1.297   4.422  0.2784 -0.2943  0.2234
14505TIP3    H164930   3.189   1.334   4.354  0.1072 -0.2643  0.0957
14505TIP3    H264931   3.175   1.215   4.447 -0.1368 -0.7615 -0.5766
14506TIP3   OH264932   1.185   5.938   3.934 -0.1799  0.1214  0.1823
14506TIP3    H164933   1.222   5.911   3.850 -1.7059 -0.6506 -0.2616
14506TIP3    H264934   1.236   5.889   3.999  1.8824  1.7132 -0.1726
14507TIP3   OH264935   0.980   3.138   0.171  0.2435  0.0461 -0.0067
14507TIP3    H164936   0.929   3.217   0.151 -0.6177  0.3952  3.2134
14507TIP3    H264937   0.914   3.070   0.186  0.9105 -0.7534 -0.6707
14508TIP3   OH264938   3.585   0.566  13.705  0.1614 -0.1132 -0.5471
14508TIP3    H164939   3.650   0.498  13.725  0.2256  0.0546 -0.1909
14508TIP3    H264940   3.525   0.524  13.643 -0.0171 -0.6121 -0.0360
14509TIP3   OH264941   2.393   1.308  15.877 -0.7236  0.3423  0.3477
14509TIP3    H164942   2.344   1.239  15.834 -1.6500  0.8782  0.5151
14509TIP3    H264943   2.485   1.286  15.863 -1.0165 -0.3207 -0.5405
14510TIP3   OH264944   4.897   4.938  12.136 -0.0072  0.7450  0.3628
14510TIP3    H164945   4.812   4.949  12.095  0.6812  2.7338 -0.6049
14510TIP3    H264946   4.959   4.938  12.063  0.8157 -0.7234  1.0552
14511TIP3   OH264947   6.721   0.915   4.748  0.2256 -0.0676  0.0597
14511TIP3    H164948   6.759   0.958   4.671 -0.3686 -2.0053 -1.3772
14511TIP3    H264949   6.796   0.872   4.791  0.3968  0.1227 -0.0492
14512TIP3   OH264950   2.176   1.563   2.215  0.4694  0.0791 -0.1126
14512TIP3    H164951   2.225   1.631   2.261 -0.2301  0.1760  0.5119
14512TIP3    H264952   2.227   1.483   2.228 -0.9833 -0.4253  3.0521
14513TIP3   OH264953   0.939   2.216   4.134  0.3498 -0.1755  0.2898
14513TIP3    H164954   0.992   2.210   4.054 -0.4762  1.7750 -0.4439
14513TIP3    H264955   0.888   2.135   4.135 -1.3100  0.7749 -2.3957
14514TIP3   OH264956   0.466   5.567  15.670 -0.5134  0.4300 -0.1545
14514TIP3    H164957   0.507   5.595  15.588 -1.2476 -0.4486 -0.8320
14514TIP3    H264958   0.462   5.472  15.664  0.4646  0.2655  1.4090
14515TIP3   OH264959   2.029   3.497  14.416 -0.1551  0.2710  0.0453
14515TIP3    H164960   2.043   3.546  14.334 -0.7899  1.1112  0.4319
14515TIP3    H264961   1.971   3.553  14.468 -0.3906 -0.6203  0.7542
14516TIP3   OH264962   0.575   3.850  15.697  0.1070 -0.2003 -0.0124
14516TIP3    H164963   0.542   3.777  15.750 -0.0092  0.6559  1.1090
14516TIP3    H264964   0.546   3.928  15.744  0.9099  0.5665 -0.7946
14517TIP3   OH264965   2.614   3.638  14.506 -0.0606 -0.0185  0.3721
14517TIP3    H164966   2.625   3.565  14.446 -1.0547 -0.7613  1.0783
14517TIP3    H264967   2.657   3.712  14.462 -0.4072 -0.6467 -1.0439
14518TIP3   OH264968   0.092   3.376  14.646  0.4364 -0.5554  0.5589
14518TIP3    H164969   0.057   3.435  14.580  0.1535 -2.3972 -0.9954
14518TIP3    H264970   0.020   3.361  14.706 -0.0501 -0.7238 -0.0583
14519TIP3   OH264971   0.029   0.633  13.399  0.6239 -0.6997  0.1267
14519TIP3    H164972   0.122   0.623  13.419  0.5013  1.5931  2.0921
14519TIP3    H264973  -0.008   0.545  13.410  2.5768 -1.6434 -0.7938
14520TIP3   OH264974   5.504   5.602  14.355  0.0517  0.7491 -0.4734
14520TIP3    H164975   5.507   5.623  14.449 -0.4199  2.8173 -0.8859
14520TIP3    H264976   5.589   5.562  14.338  0.3382  0.7896  0.7517
14521TIP3   OH264977   2.046   0.574   5.628 -0.1176 -0.0674 -0.0991
14521TIP3    H164978   2.071   0.635   5.697  0.4850 -1.2260  0.7245
14521TIP3    H264979   2.092   0.606   5.550  0.9924 -0.0412  0.5584
14522TIP3   OH264980   1.564   3.913  10.921  0.2634  0.1590 -0.0578
14522TIP3    H164981   1.615   3.872  10.852  0.1610 -0.2344  0.0999
14522TIP3    H264982   1.554   4.004  10.893 -0.9034 -0.3167 -1.1927
14523TIP3   OH264983   4.068   2.751   2.080  0.0811  0.4623  0.0158
14523TIP3    H164984   4.136   2.819   2.076 -0.8797  1.5107  0.9379
14523TIP3    H264985   3.987   2.800   2.096 -0.7917 -0.8281 -0.3851
14524TIP3   OH264986   5.549   1.528  12.097  0.6241  0.3294  0.6775
14524TIP3    H164987   5.547   1.446  12.147  0.1733 -0.0734 -0.0016
14524TIP3    H264988   5.610   1.511  12.026 -0.7660  0.0026 -0.4593
14525TIP3   OH264989   2.385   1.749   1.955  0.0233  0.2309 -0.7186
14525TIP3    H164990   2.351   1.833   1.924  2.8916  0.8620 -2.3623
14525TIP3    H264991   2.430   1.770   2.037 -1.7379 -0.2428  0.3888
14526TIP3   OH264992   0.254   6.196  14.885  0.0073  0.5652 -0.0762
14526TIP3    H164993   0.170   6.202  14.932  0.6143  1.7153  0.8960
14526TIP3    H264994   0.287   6.109  14.907  0.1358  0.9689  1.4136
14527TIP3   OH264995   0.033   2.105   2.476 -0.4544 -0.1247  0.4054
14527TIP3    H164996   0.014   2.088   2.383 -1.9610 -0.6781  0.7894
14527TIP3    H264997   0.117   2.062   2.492  0.3554  0.9213 -0.9742
14528TIP3   OH264998   6.190   5.909   3.924 -0.1222 -0.5024 -0.1479
14528TIP3    H164999   6.147   5.988   3.958  1.4162  1.1648 -1.9807
14528TIP3    H265000   6.238   5.874   3.999 -0.3829  0.6155  0.5484
14529TIP3   OH265001   0.012   1.269  14.457  0.0636 -0.3150  0.5206
14529TIP3    H165002   0.080   1.324  14.495 -0.0568  0.0143  0.2663
14529TIP3    H265003   0.021   1.281  14.362 -1.5438  1.2058  0.5261
14530TIP3   OH265004   5.783   3.338  12.919 -0.1318 -0.4031 -0.3444
14530TIP3    H165005   5.733   3.257  12.916 -2.3089  0.8732  0.5259
14530TIP3    H265006   5.742   3.395  12.854 -1.2971  1.4309  1.8998
14531TIP3   OH265007   6.687   1.409   3.972  0.0467 -0.2767  0.0049
14531TIP3    H165008   6.696   1.329   3.921  0.5715 -0.8410  0.9802
14531TIP3    H265009   6.776   1.429   4.002  0.3742  2.0511 -2.2907
14532TIP3   OH265010   0.268   0.689   5.802 -0.4417 -0.1500 -0.1033
14532TIP3    H165011   0.338   0.749   5.829 -2.0565  0.7658  2.2048
14532TIP3    H265012   0.192   0.745   5.790 -0.9727 -1.2319 -1.9673
14533TIP3   OH265013   6.506   6.390   1.419 -0.3481 -0.3811 -0.1351
14533TIP3    H165014   6.514   6.442   1.499 -1.2040 -0.1383 -0.2041
14533TIP3    H265015   6.486   6.301   1.450 -1.3643 -0.1424 -0.0995
14534TIP3   OH265016   3.036   2.242  13.435  0.2598  0.2507  0.4442
14534TIP3    H165017   3.097   2.289  13.493 -1.5636  0.5749  2.1368
14534TIP3    H265018   2.968   2.208  13.494  0.1009 -2.2242 -1.1063
14535TIP3   OH265019   2.485   3.476  13.572 -0.1402 -0.0476  0.1444
14535TIP3    H165020   2.567   3.487  13.621 -0.1806 -0.0673  0.2149
14535TIP3    H265021   2.508   3.499  13.482  0.0119 -0.3182  0.1120
14536TIP3   OH265022   0.003   5.495  14.575  0.1001 -0.1732 -0.2059
14536TIP3    H165023  -0.014   5.401  14.561 -0.2767 -0.1475  0.0547
14536TIP3    H265024   0.074   5.516  14.515 -0.5678 -0.3713 -1.0816
14537TIP3   OH265025   0.397   6.318  11.889 -0.0664 -0.2316 -0.1229
14537TIP3    H165026   0.446   6.290  11.812 -0.7944 -1.0524 -0.2979
14537TIP3    H265027   0.461   6.318  11.960  0.4857  0.0077 -0.6194
14538TIP3   OH265028   1.260   0.151   2.484  0.1224  0.5626  0.5571
14538TIP3    H165029   1.203   0.131   2.558  0.5019  0.9173  0.9490
14538TIP3    H265030   1.337   0.191   2.524 -0.1231  1.7098 -0.1259
14539TIP3   OH265031   1.636   3.139   5.981 -0.3596 -0.0278 -0.3516
14539TIP3    H165032   1.702   3.070   5.977  0.0746  0.5000 -3.4666
14539TIP3    H265033   1.558   3.099   5.942 -1.4683 -0.1670  1.9398
14540TIP3   OH265034   2.398   3.936   1.950 -0.4059  0.0678  0.1155
14540TIP3    H165035   2.380   3.982   2.033  0.7048  0.2028  0.2854
14540TIP3    H265036   2.418   4.006   1.888 -1.6824 -0.0028 -0.3929
14541TIP3   OH265037   4.655   0.646   5.176  0.4040 -0.3798  0.4987
14541TIP3    H165038   4.605   0.633   5.096  1.8964  1.1068 -0.7035
14541TIP3    H265039   4.597   0.616   5.246 -0.2945 -3.2253 -1.2503
14542TIP3   OH265040   3.410   4.276   2.430  0.3450 -0.2458  0.3987
14542TIP3    H165041   3.449   4.190   2.417  2.2382  0.6431  0.0438
14542TIP3    H265042   3.478   4.326   2.476 -0.0640  1.5666 -0.9322
14543TIP3   OH265043   3.033   2.966   1.284  0.1007 -0.8087 -0.2429
14543TIP3    H165044   2.945   2.958   1.248 -0.1931 -1.7778  0.6468
14543TIP3    H265045   3.026   2.927   1.371  1.9761 -3.1836 -1.0868
14544TIP3   OH265046   0.372   5.596   1.152 -0.3743 -0.2451  0.5247
14544TIP3    H165047   0.298   5.630   1.202 -0.6096  0.0236 -0.0025
14544TIP3    H265048   0.439   5.664   1.160 -0.8361  0.3416 -0.5084
14545TIP3   OH265049   2.996   1.511   3.370  0.0304 -0.3202 -0.1190
14545TIP3    H165050   2.960   1.485   3.284 -0.9310 -0.7476  0.3980
14545TIP3    H265051   3.086   1.480   3.368 -0.8109 -2.9164  0.0999
14546TIP3   OH265052   0.237   1.214   5.219 -0.6183 -0.0452  0.2710
14546TIP3    H165053   0.262   1.297   5.178  4.9114 -1.9191 -0.5742
14546TIP3    H265054   0.309   1.194   5.278 -2.3685 -3.7506  1.2692
14547TIP3   OH265055   1.552   5.557   0.590  0.5283  0.0451  0.1518
14547TIP3    H165056   1.574   5.637   0.638  0.1249 -0.3244  0.9550
14547TIP3    H265057   1.622   5.495   0.612  2.3663  0.9968 -2.5972
14548TIP3   OH265058   2.580   1.293   4.198 -0.1391  0.0069 -0.3334
14548TIP3    H165059   2.582   1.223   4.133  0.8730  0.7446 -1.1188
14548TIP3    H265060   2.597   1.250   4.281 -1.3538 -0.9336 -0.5652
14549TIP3   OH265061   4.777   1.746   5.547 -0.1416 -0.5479 -0.1195
14549TIP3    H165062   4.715   1.749   5.474 -0.5548  0.5681  0.2631
14549TIP3    H265063   4.834   1.671   5.528  2.1845  1.9574 -3.5596
14550TIP3   OH265064   6.148   2.250   4.021  0.0048  0.1994 -0.3861
14550TIP3    H165065   6.148   2.221   3.930 -0.2104  0.2845 -0.4139
14550TIP3    H265066   6.126   2.343   4.017  0.9656  0.4394 -0.3192
14551TIP3   OH265067   2.087   4.568   2.841  0.1688 -0.2096  0.3063
14551TIP3    H165068   2.155   4.509   2.809 -2.1835 -1.7894 -2.0748
14551TIP3    H265069   2.069   4.626   2.767 -2.4871 -1.2038  0.1181
14552TIP3   OH265070   2.433   6.508   5.248 -0.4037 -0.3257  0.2688
14552TIP3    H165071   2.518   6.551   5.243 -0.5736  0.0791  0.8969
14552TIP3    H265072   2.414   6.483   5.157  0.6145 -0.8809  0.1966
14553TIP3   OH265073   6.435   6.492  12.926  0.3608  0.4740  0.3686
14553TIP3    H165074   6.501   6.562  12.922 -0.4351  1.1884 -0.4166
14553TIP3    H265075   6.405   6.493  13.017 -0.0879  1.5891  0.2231
14554TIP3   OH265076   2.609   6.398  16.935  0.4900 -0.1635  0.4587
14554TIP3    H165077   2.631   6.411  17.027  1.3119  1.5202  0.0277
14554TIP3    H265078   2.542   6.465  16.916 -1.0920 -1.7321  0.3206
14555TIP3   OH265079   6.111   2.453  12.617  0.2081  0.1870  0.0771
14555TIP3    H165080   6.058   2.533  12.617  0.3192  0.2612 -0.0935
14555TIP3    H265081   6.154   2.452  12.703  1.5007  1.1757 -0.5317
14556TIP3   OH265082   3.940   3.128   2.333 -0.5393  0.0398 -0.0775
14556TIP3    H165083   3.981   3.189   2.272  2.0188 -1.0098  0.4797
14556TIP3    H265084   3.890   3.183   2.393  1.3364  1.5633  0.1317
14557TIP3   OH265085   4.715   4.457  12.216  0.0782  0.0052 -0.0637
14557TIP3    H165086   4.770   4.379  12.215 -1.1948 -0.9223  0.2265
14557TIP3    H265087   4.764   4.522  12.167 -0.2621 -1.9650 -3.1406
14558TIP3   OH265088   1.422   1.198  13.671  0.5809 -0.7148 -0.5225
14558TIP3    H165089   1.365   1.123  13.649 -0.4888 -0.3633  0.9940
14558TIP3    H265090   1.482   1.205  13.596 -0.9513 -1.4998 -1.8540
14559TIP3   OH265091   6.686   5.677  13.513  0.6369  0.2963  0.3556
14559TIP3    H165092   6.628   5.749  13.489 -0.0264 -0.3864 -0.1057
14559TIP3    H265093   6.772   5.718  13.523  0.2786  1.1388  0.0325
14560TIP3   OH265094   4.912   0.996  11.225 -0.4373 -0.2074  0.3578
14560TIP3    H165095   4.984   0.959  11.174 -0.1888  0.5939  0.1159
14560TIP3    H265096   4.898   1.083  11.187 -1.1508 -0.1334  0.7770
14561TIP3   OH265097   1.383   2.180  11.992 -0.0075 -0.0274  0.0215
14561TIP3    H165098   1.321   2.245  11.960 -0.0706 -0.3314 -0.4878
14561TIP3    H265099   1.410   2.212  12.078  0.5903  1.1099 -0.5672
14562TIP3   OH265100   2.551   0.392   3.656 -0.4671 -0.3077 -0.2055
14562TIP3    H165101   2.538   0.433   3.570 -1.7001 -1.8689 -0.7936
14562TIP3    H265102   2.507   0.307   3.648  2.3959 -1.9355  0.8154
14563TIP3   OH265103   2.839   0.007   3.147 -0.0355 -0.2595 -1.2788
14563TIP3    H165104   2.775  -0.013   3.079 -1.2255  0.5094 -0.4120
14563TIP3    H265105   2.923   0.011   3.101 -0.6214 -1.1059 -2.4610
14564TIP3   OH265106   2.119   1.692   5.895 -0.0636  0.4374  0.2578
14564TIP3    H165107   2.109   1.602   5.927 -0.7635  0.3197 -0.2830
14564TIP3    H265108   2.204   1.720   5.930 -0.2298 -0.1301  1.1521
14565TIP3   OH265109   6.048   4.232   3.094  0.7691 -0.7245 -0.2604
14565TIP3    H165110   5.962   4.249   3.134  1.0581  0.1682 -0.0156
14565TIP3    H265111   6.028   4.187   3.012  0.1629 -2.7923  0.9579
14566TIP3   OH265112   0.023   5.203   2.184  0.2955 -0.1712  0.7021
14566TIP3    H165113   0.066   5.257   2.251 -0.1015 -0.0265  0.8358
14566TIP3    H265114   0.057   5.237   2.102  0.0350  0.2964  0.7844
14567TIP3   OH265115   0.350   3.222  13.388 -0.6340 -0.7731 -0.1314
14567TIP3    H165116   0.279   3.274  13.425  0.0944 -0.2308  0.5199
14567TIP3    H265117   0.425   3.239  13.445  0.4154 -0.2034 -1.6579
14568TIP3   OH265118   3.661   0.159  17.152 -0.1555 -0.5666  0.1175
14568TIP3    H165119   3.636   0.113  17.232 -2.3690 -0.8996 -0.7334
14568TIP3    H265120   3.664   0.091  17.084 -0.1239  0.0027 -0.4651
14569TIP3   OH265121   6.743   4.971  10.973  0.3694 -0.3855 -0.0312
14569TIP3    H165122   6.803   4.956  10.900  0.1112  1.8562 -0.7343
14569TIP3    H265123   6.662   4.999  10.932 -0.6092 -1.6499  1.0122
14570TIP3   OH265124   6.599   3.291   0.966  1.0596 -0.6810  0.0093
14570TIP3    H165125   6.679   3.241   0.949  0.8155 -0.7214 -1.0549
14570TIP3    H265126   6.573   3.324   0.880  0.0143 -0.5425  0.3762
14571TIP3   OH265127   2.201   4.759   1.864  0.5182  0.5442 -0.5605
14571TIP3    H165128   2.292   4.763   1.894  0.7749 -0.3317 -1.2110
14571TIP3    H265129   2.188   4.842   1.817  0.9895  0.6501 -0.5134
14572TIP3   OH265130   3.730   5.523  14.669 -0.0252  0.1085 -0.5985
14572TIP3    H165131   3.655   5.573  14.699  0.7240  0.3217  0.9598
14572TIP3    H265132   3.694   5.437  14.644 -0.8930  0.4985 -0.7051
14573TIP3   OH265133   5.628   5.680  12.599  0.0747 -0.0690  0.3610
14573TIP3    H165134   5.710   5.636  12.575 -0.5431 -0.9212 -0.2287
14573TIP3    H265135   5.604   5.641  12.683 -1.5960 -2.4976 -1.1643
14574TIP3   OH265136   3.029   1.330  14.131 -0.2700 -0.2356 -0.3386
14574TIP3    H165137   2.951   1.335  14.076 -1.2646 -0.1248  1.0511
14574TIP3    H265138   2.996   1.310  14.219  1.3484 -1.3711  0.0518
14575TIP3   OH265139   3.462   1.189   5.932  0.6740  0.2482 -0.5152
14575TIP3    H165140   3.556   1.193   5.912  1.1854 -2.1849  1.2127
14575TIP3    H265141   3.435   1.103   5.900 -0.6081  0.2512  0.5477
14576TIP3   OH265142   1.521   5.331  12.492 -0.4928  0.4276  0.2745
14576TIP3    H165143   1.558   5.245  12.475 -1.4846  0.2838 -1.3117
14576TIP3    H265144   1.549   5.353  12.581  2.5312 -0.0807 -0.4913
14577TIP3   OH265145   0.118   3.889  11.388 -0.4713  0.0416  0.8614
14577TIP3    H165146   0.046   3.894  11.450  1.0708 -0.9769  2.8112
14577TIP3    H265147   0.194   3.924  11.436  1.1077 -2.2856  0.1596
14578TIP3   OH265148   2.883   1.779  17.028  0.2053 -0.1776  0.0465
14578TIP3    H165149   2.909   1.800  16.938 -1.4974 -1.3159 -0.7356
14578TIP3    H265150   2.948   1.716  17.057  0.9951  0.4898 -0.2255
14579TIP3   OH265151   0.151   1.387  15.830 -0.1662 -0.3730  0.0256
14579TIP3    H165152   0.132   1.470  15.873  0.3151  0.3699 -1.1703
14579TIP3    H265153   0.244   1.392  15.808  0.3888 -2.0921  1.7712
14580TIP3   OH265154   4.047   3.417   1.109 -0.5011  0.0628 -0.5255
14580TIP3    H165155   4.028   3.489   1.049  0.5743  1.8082  1.1570
14580TIP3    H265156   3.961   3.392   1.143 -0.9983 -0.2138 -1.9383
14581TIP3   OH265157   0.200   0.978   4.654 -0.0522  0.4222 -0.3896
14581TIP3    H165158   0.286   0.943   4.632 -0.9263 -1.7353 -0.4822
14581TIP3    H265159   0.203   0.991   4.749  1.1987  2.7468 -0.7063
14582TIP3   OH265160   0.971   6.303   1.505  0.4859  0.0238  0.1563
14582TIP3    H165161   1.052   6.319   1.553 -1.2941  1.8355  2.7464
14582TIP3    H265162   0.938   6.391   1.485 -1.1340 -0.6730 -0.3057
14583TIP3   OH265163   1.527   2.995  12.801  0.0945 -0.6014 -0.1207
14583TIP3    H165164   1.499   2.907  12.777 -1.3536 -0.5083  1.1600
14583TIP3    H265165   1.586   2.983  12.874  0.4274 -0.5545 -0.3828
14584TIP3   OH265166   2.391   1.198  15.369 -0.5572 -0.0926 -0.3628
14584TIP3    H165167   2.417   1.163  15.284  0.6239  2.6974 -1.1801
14584TIP3    H265168   2.458   1.263  15.391 -0.4650 -1.2002  3.0307
14585TIP3   OH265169   0.982   2.993  17.081 -0.4650 -0.6038 -0.0366
14585TIP3    H165170   1.004   3.051  17.009  0.0067  0.0760  0.6425
14585TIP3    H265171   1.055   3.003  17.143  1.0725 -4.0460 -1.1618
14586TIP3   OH265172   3.618   6.005   4.383 -0.0380  0.0128  0.0841
14586TIP3    H165173   3.635   6.042   4.470  0.0131 -0.0067  0.0821
14586TIP3    H265174   3.619   5.910   4.396 -2.2197  0.0105  0.4897
14587TIP3   OH265175   1.449   6.078  16.179 -0.1227  0.5881  0.3783
14587TIP3    H165176   1.524   6.132  16.205  0.9570 -0.5380 -0.2960
14587TIP3    H265177   1.466   6.057  16.087 -2.0596  1.5685 -0.2350
14588TIP3   OH265178   2.656   3.993  14.014  0.3011 -0.2660  0.1893
14588TIP3    H165179   2.718   4.066  14.008  1.1236 -0.9387  0.5757
14588TIP3    H265180   2.572   4.036  14.034  0.1486  0.8560 -2.6022
14589TIP3   OH265181   2.998   4.020  13.471 -0.9397 -0.5105  0.0102
14589TIP3    H165182   3.041   4.082  13.412 -0.3325 -2.0488 -1.1969
14589TIP3    H265183   2.979   3.944  13.415 -1.0423 -1.6874  1.6308
14590TIP3   OH265184   1.164   2.844   4.784 -0.1125 -0.1081 -0.2266
14590TIP3    H165185   1.185   2.903   4.712  0.8953 -0.7600 -0.4727
14590TIP3    H265186   1.074   2.815   4.765  0.6813 -1.4767 -2.0735
14591TIP3   OH265187   6.633   6.376   3.990 -0.6462 -0.3459 -0.5800
14591TIP3    H165188   6.634   6.468   3.964  0.9484  0.5138  2.1968
14591TIP3    H265189   6.549   6.365   4.034 -0.1284  0.3145  0.6285
14592TIP3   OH265190   4.004   0.240   4.343  0.3270  0.2424  0.2066
14592TIP3    H165191   4.075   0.176   4.333 -1.5422 -1.9612  0.5421
14592TIP3    H265192   3.947   0.224   4.268 -1.8977 -0.7952  2.0562
14593TIP3   OH265193   0.678   0.888  13.291  0.3708 -0.2698  0.5053
14593TIP3    H165194   0.697   0.795  13.278 -0.7541 -0.3951 -0.2965
14593TIP3    H265195   0.593   0.890  13.334  0.1447  0.3980  0.0454
14594TIP3   OH265196   6.051   1.424  15.100  0.1332  0.6645  0.0816
14594TIP3    H165197   6.128   1.392  15.149  0.9499  1.9635 -0.3340
14594TIP3    H265198   6.066   1.393  15.011 -0.5264 -0.2748  0.2943
14595TIP3   OH265199   6.624   4.900  15.790  0.0824 -0.5564  0.4241
14595TIP3    H165200   6.693   4.952  15.832 -1.4110  1.7699  0.0560
14595TIP3    H265201   6.649   4.810  15.808  1.8605  0.2928  2.4969
14596TIP3   OH265202   1.785   0.365  12.088 -0.1031 -0.2545 -0.1499
14596TIP3    H165203   1.742   0.424  12.150 -0.7729 -1.3636  0.4661
14596TIP3    H265204   1.720   0.295  12.073 -0.2606  0.3913 -2.6885
14597TIP3   OH265205   5.520   0.521   1.515  0.1199  0.2297 -0.1481
14597TIP3    H165206   5.485   0.589   1.574  2.8787  0.5878  1.1625
14597TIP3    H265207   5.443   0.473   1.486 -1.3749 -0.3279  4.2572
14598TIP3   OH265208   0.735   2.403  13.557  1.0504 -0.7954 -0.2090
14598TIP3    H165209   0.652   2.364  13.529  0.9841 -0.8073  0.0066
14598TIP3    H265210   0.801   2.357  13.504  0.7018  1.1347 -2.3803
14599TIP3   OH265211   3.741   3.502   0.948  0.2261  0.1362 -0.0380
14599TIP3    H165212   3.694   3.586   0.942  0.0414 -0.1279 -4.9777
14599TIP3    H265213   3.795   3.510   1.026 -0.8416  4.3416  0.4066
14600TIP3   OH265214   5.174   5.095  11.260  0.3172 -0.6374 -0.7586
14600TIP3    H165215   5.118   5.168  11.233  1.8450  0.7831 -0.2031
14600TIP3    H265216   5.189   5.046  11.180 -0.5869 -0.2401 -1.1834
14601TIP3   OH265217   2.360   6.353  13.755 -0.1270 -0.9746  0.5037
14601TIP3    H165218   2.406   6.359  13.671  0.7896  2.4256  1.2010
14601TIP3    H265219   2.362   6.259  13.775  3.5193 -1.3765 -1.1408
14602TIP3   OH265220   1.883   3.616  15.183  0.2570 -0.1649  0.8693
14602TIP3    H165221   1.930   3.596  15.264  1.1617 -1.4768  0.0423
14602TIP3    H265222   1.927   3.564  15.116 -2.2735 -1.3119  0.0151
14603TIP3   OH265223   6.597   4.912   2.725  0.7788 -0.2214 -0.4647
14603TIP3    H165224   6.629   4.915   2.816  0.3295  0.6348 -0.3241
14603TIP3    H265225   6.619   4.824   2.694 -2.1724 -1.8169  1.6368
14604TIP3   OH265226   6.768   3.686  12.347 -0.5328 -0.0037  0.3192
14604TIP3    H165227   6.813   3.610  12.310  1.3329  1.3693 -0.2770
14604TIP3    H265228   6.767   3.669  12.442  0.6153 -0.3588  0.2697
14605TIP3   OH265229   4.712   4.078  13.866  0.5641  0.2487  0.0224
14605TIP3    H165230   4.797   4.107  13.835 -0.8461  1.6893 -2.6597
14605TIP3    H265231   4.710   4.102  13.959  2.7210  0.9843 -0.1150
14606TIP3   OH265232   1.920   0.534   1.659 -0.0355 -0.3558  0.1278
14606TIP3    H165233   1.964   0.613   1.690 -0.0653  0.0791 -0.9260
14606TIP3    H265234   1.983   0.492   1.600  0.6421 -2.0109  1.9642
14607TIP3   OH265235   4.335   5.504   2.757  0.0535 -0.3818  0.3601
14607TIP3    H165236   4.409   5.559   2.733  1.3627 -1.3897  2.0323
14607TIP3    H265237   4.267   5.528   2.694  1.5628  1.0107 -0.7951
14608TIP3   OH265238   4.292   4.088  14.831 -0.2128  0.0147 -0.3840
14608TIP3    H165239   4.304   4.045  14.915  2.1886 -0.2635 -0.8311
14608TIP3    H265240   4.261   4.176  14.853  0.2144 -0.1188  0.7925
14609TIP3   OH265241   2.992   3.474  14.851  0.3134 -0.1182 -0.5789
14609TIP3    H165242   3.077   3.514  14.834  0.0223  0.3958 -0.8541
14609TIP3    H265243   2.939   3.544  14.888  0.2434 -0.6411  0.3252
14610TIP3   OH265244   2.291   4.426   3.365  0.3572 -0.0615  0.1460
14610TIP3    H165245   2.336   4.355   3.410  0.3394  0.5462  1.1189
14610TIP3    H265246   2.355   4.460   3.303  0.9098  0.1406  0.8250
14611TIP3   OH265247   4.268   3.671   1.477  0.2433 -0.0147  0.1854
14611TIP3    H165248   4.363   3.657   1.480  0.5804  1.9687 -0.5406
14611TIP3    H265249   4.237   3.612   1.408  0.7410 -1.6825  1.3656
14612TIP3   OH265250   3.214   5.360  12.653 -0.0140 -0.3483 -0.0095
14612TIP3    H165251   3.168   5.406  12.723 -0.5672 -2.1400  0.8534
14612TIP3    H265252   3.287   5.315  12.697  0.3215 -0.5563 -0.7646
14613TIP3   OH265253   2.529   3.170   5.568 -0.2626  0.0347 -0.2619
14613TIP3    H165254   2.589   3.229   5.521 -0.8989  0.4304 -0.5890
14613TIP3    H265255   2.585   3.101   5.603  0.3934  0.4434 -0.5047
14614TIP3   OH265256   1.165   4.017  14.280 -0.2249 -0.0858 -0.4960
14614TIP3    H165257   1.221   4.044  14.352  1.4344 -1.1662 -1.3477
14614TIP3    H265258   1.088   4.074  14.286  0.1409  0.1862  1.7777
14615TIP3   OH265259   5.138   3.624   2.526 -0.0654  0.2616  0.3532
14615TIP3    H165260   5.185   3.704   2.549 -2.2128  1.9708 -1.0147
14615TIP3    H265261   5.083   3.605   2.601  2.3947 -1.5009  1.7812
14616TIP3   OH265262   6.771   3.413   5.651 -0.6081  0.4012 -0.0391
14616TIP3    H165263   6.838   3.347   5.630 -2.2249 -1.5926  0.8581
14616TIP3    H265264   6.791   3.438   5.741  0.5067  1.7977 -0.6526
14617TIP3   OH265265   2.057   0.206  12.690  0.3790  0.0514 -0.2859
14617TIP3    H165266   2.052   0.236  12.599  1.9102  2.1498  0.2757
14617TIP3    H265267   1.999   0.266  12.738 -1.4467 -1.8480 -0.0148
14618TIP3   OH265268   3.834   3.120  12.573  0.1870  0.2515 -0.2211
14618TIP3    H165269   3.815   3.174  12.496 -0.2618 -0.3211 -0.5195
14618TIP3    H265270   3.800   3.033  12.550 -2.1359  0.6501  1.5746
14619TIP3   OH265271   6.351   2.631   4.057 -0.7269 -0.1274 -0.5637
14619TIP3    H165272   6.326   2.656   4.146  0.0390 -1.0449 -0.0895
14619TIP3    H265273   6.405   2.553   4.068  3.1476  2.3116 -1.5213
14620TIP3   OH265274   5.198   4.310   3.405  0.2684  0.2265 -0.3236
14620TIP3    H165275   5.289   4.304   3.435 -0.1144  0.9030  0.9993
14620TIP3    H265276   5.160   4.380   3.457 -0.5628  1.1368 -2.0871
14621TIP3   OH265277   1.511   5.766   4.917 -0.2406  0.4530  0.0039
14621TIP3    H165278   1.451   5.800   4.983  0.5230  1.4494  0.1946
14621TIP3    H265279   1.501   5.671   4.922 -1.7934  0.6075  0.0352
14622TIP3   OH265280   2.212   3.605   0.452  0.1544  0.4416 -0.3493
14622TIP3    H165281   2.301   3.636   0.435 -0.0742  1.1014 -0.3282
14622TIP3    H265282   2.211   3.516   0.415  0.2101  1.1945 -2.2106
14623TIP3   OH265283   1.117   3.474  15.688 -0.3668  0.5503  0.0114
14623TIP3    H165284   1.144   3.432  15.770  1.4291 -2.5453 -2.0639
14623TIP3    H265285   1.021   3.482  15.696 -0.7877 -3.8972  0.5879
14624TIP3   OH265286   5.869   0.294   4.175 -0.4459 -0.0527 -0.7436
14624TIP3    H165287   5.803   0.324   4.238 -0.5915 -1.4847 -0.1988
14624TIP3    H265288   5.836   0.322   4.090 -0.2358  1.9408 -0.2002
14625TIP3   OH265289   5.176   6.164   3.934 -0.6359 -0.3686 -0.3665
14625TIP3    H165290   5.200   6.073   3.917 -1.5505 -1.3404  3.0674
14625TIP3    H265291   5.257   6.204   3.965 -0.4908 -0.3053 -0.8270
14626TIP3   OH265292   6.368   1.668   3.579  0.1737 -0.2150 -0.1633
14626TIP3    H165293   6.460   1.646   3.594  0.6199  1.6835  0.0058
14626TIP3    H265294   6.330   1.673   3.667 -0.0985 -0.9966 -0.2333
14627TIP3   OH265295   6.474   5.519  15.698 -0.4162  0.1090 -0.3849
14627TIP3    H165296   6.448   5.493  15.786 -1.5556 -1.2791 -1.1232
14627TIP3    H265297   6.563   5.553  15.709 -0.8271  0.6780  1.4130
14628TIP3   OH265298   3.560   6.412   3.676 -0.5513 -0.5000 -0.2967
14628TIP3    H165299   3.483   6.438   3.728 -0.0750  1.2125 -0.4013
14628TIP3    H265300   3.633   6.420   3.737 -0.5669 -3.1522  0.0961
14629TIP3   OH265301   6.605   2.283   0.690  0.0200  0.1222 -0.0625
14629TIP3    H165302   6.631   2.199   0.653  0.2316 -0.1217  0.6279
14629TIP3    H265303   6.522   2.304   0.648 -0.3148 -0.7041  0.1832
14630TIP3   OH265304   5.429   3.050  12.676  0.5486  0.7850  0.0189
14630TIP3    H165305   5.424   3.045  12.771  0.5550 -0.6005 -0.0366
14630TIP3    H265306   5.475   2.970  12.650  1.0998  1.4532 -1.1079
14631TIP3   OH265307   3.882   5.725   5.985  0.3492 -0.0037 -0.8254
14631TIP3    H165308   3.812   5.787   6.007 -0.0775 -0.1008 -1.8957
14631TIP3    H265309   3.847   5.639   6.008 -0.9208 -0.3258 -3.7912
14632TIP3   OH265310   4.422   3.956   1.812  0.4787 -0.3015 -0.1047
14632TIP3    H165311   4.360   4.024   1.783 -2.0886 -0.7697  3.8183
14632TIP3    H265312   4.502   4.004   1.834  0.0032  0.9374 -1.0229
14633TIP3   OH265313   6.206   2.155  11.547 -0.1063  0.1968  0.2654
14633TIP3    H165314   6.125   2.202  11.525 -1.1016 -0.2293  2.8589
14633TIP3    H265315   6.183   2.063  11.540  0.4803  0.0763 -0.0705
14634TIP3   OH265316   3.350   4.748   3.963  0.7536 -0.2202 -0.0437
14634TIP3    H165317   3.333   4.655   3.973 -0.4699 -0.0301 -0.2416
14634TIP3    H265318   3.407   4.771   4.036  0.3064 -0.9361  0.5289
14635TIP3   OH265319   4.348   2.694  15.234 -0.3657 -0.0666  0.1865
14635TIP3    H165320   4.417   2.747  15.195  1.8256 -0.1775  3.7493
14635TIP3    H265321   4.377   2.603  15.221 -0.1510 -0.1336  1.1181
14636TIP3   OH265322   6.037   0.117   3.457  0.0929  0.5171  0.1765
14636TIP3    H165323   5.961   0.127   3.400 -0.8220 -1.5813  0.9687
14636TIP3    H265324   6.112   0.126   3.399 -0.8008 -0.1367 -1.1066
14637TIP3   OH265325   2.803   4.613  15.929 -0.2341 -0.4189 -0.1720
14637TIP3    H165326   2.730   4.636  15.986 -0.2897 -2.2818  0.5692
14637TIP3    H265327   2.794   4.669  15.853 -0.5875  1.6103  1.3305
14638TIP3   OH265328   0.417   5.944  15.604 -0.1326  0.5396 -0.0254
14638TIP3    H165329   0.379   5.867  15.644  1.8296  0.1401  1.1757
14638TIP3    H265330   0.498   5.959  15.653 -0.1607  2.9935 -0.6231
14639TIP3   OH265331   5.641   2.640   4.983 -0.4606  0.1184  0.4523
14639TIP3    H165332   5.640   2.657   4.889 -0.4915  0.0038  0.4314
14639TIP3    H265333   5.720   2.587   4.997  1.4774  3.0055  0.9884
14640TIP3   OH265334   4.574   0.751   4.335  0.4369  0.1626  0.2888
14640TIP3    H165335   4.540   0.748   4.425  0.0723  0.3409  0.1565
14640TIP3    H265336   4.500   0.729   4.280  0.7747 -0.4008  0.0520
14641TIP3   OH265337   0.163   0.905   4.938 -0.0327  0.0578  0.2255
14641TIP3    H165338   0.113   0.908   5.020  0.1319 -0.8777  0.3692
14641TIP3    H265339   0.224   0.832   4.950 -0.5790 -0.6354 -1.0518
14642TIP3   OH265340   4.876   4.626  12.030  0.2280  0.2779  0.9247
14642TIP3    H165341   4.876   4.720  12.012  2.3143  0.6060  2.4075
14642TIP3    H265342   4.969   4.602  12.029 -0.2970 -1.8176  0.3612
14643TIP3   OH265343   0.864   4.817  14.082 -0.7285  0.1153 -0.1269
14643TIP3    H165344   0.787   4.765  14.106  0.9015 -2.6574 -0.6933
14643TIP3    H265345   0.933   4.786  14.140  0.4317  1.3387 -0.8170
14644TIP3   OH265346   1.592   1.704   5.103  0.2127  0.5909 -0.2600
14644TIP3    H165347   1.680   1.742   5.103 -0.7888  3.1205  2.5487
14644TIP3    H265348   1.603   1.618   5.145  1.0774  1.6898  1.8410
14645TIP3   OH265349   0.487   0.263  13.415  0.2244  0.2024  0.4613
14645TIP3    H165350   0.507   0.294  13.327  0.1351 -0.0858  0.3375
14645TIP3    H265351   0.401   0.299  13.434  0.8595  1.4667  1.0039
14646TIP3   OH265352   2.018   4.039  17.037  0.1890  0.3286 -0.2454
14646TIP3    H165353   1.947   4.099  17.059  0.6267  0.2983  1.3392
14646TIP3    H265354   2.086   4.059  17.102  0.5382 -1.5233 -0.0247
14647TIP3   OH265355   6.215   5.350   5.647 -0.7156 -0.2601 -0.0336
14647TIP3    H165356   6.222   5.440   5.677 -0.6879 -1.3846  3.5666
14647TIP3    H265357   6.268   5.300   5.709 -1.7734 -2.9072 -1.1976
14648TIP3   OH265358   3.558   0.553   0.590  0.3909  0.4193 -0.9181
14648TIP3    H165359   3.501   0.628   0.574 -0.8486 -0.6130 -1.4678
14648TIP3    H265360   3.604   0.540   0.507  0.7346  0.6844 -0.7676
14649TIP3   OH265361   0.032   0.290   4.157  0.1716  0.0164  0.2599
14649TIP3    H165362   0.035   0.358   4.224  1.4780  0.2922 -0.0634
14649TIP3    H265363  -0.046   0.310   4.106 -0.2620  0.4115  1.0750
14650TIP3   OH265364   6.298   6.182  14.825  0.2865  0.2191  0.1288
14650TIP3    H165365   6.224   6.144  14.872  1.4783 -1.7150  0.4977
14650TIP3    H265366   6.281   6.159  14.733  0.5419 -0.4439  0.2417
14651TIP3   OH265367   5.110   3.779  12.393 -0.4655  0.0114  0.1831
14651TIP3    H165368   5.074   3.712  12.336  0.2273 -1.2558  1.2203
14651TIP3    H265369   5.092   3.748  12.482 -1.3436  1.8595  0.6806
14652TIP3   OH265370   4.466   2.173   3.581  0.3374  0.1152 -0.1956
14652TIP3    H165371   4.517   2.108   3.533  0.5986  0.9110 -1.0018
14652TIP3    H265372   4.441   2.128   3.662  2.1759 -0.3521  0.1518
14653TIP3   OH265373   5.772   5.878  15.800 -0.3032 -0.4773 -0.7292
14653TIP3    H165374   5.724   5.957  15.779 -1.8059 -0.4804  2.4485
14653TIP3    H265375   5.863   5.906  15.807 -0.5417  0.5415 -1.6850
14654TIP3   OH265376   0.815   5.787  12.711 -0.1160 -0.2208  0.0373
14654TIP3    H165377   0.725   5.790  12.743 -0.8784 -1.3522 -1.9293
14654TIP3    H265378   0.817   5.850  12.639  0.1766 -1.4761 -1.0716
14655TIP3   OH265379   5.178   3.914  14.123 -0.1602  0.5127  0.4459
14655TIP3    H165380   5.087   3.935  14.104 -0.3518 -0.0278  0.7612
14655TIP3    H265381   5.182   3.909  14.218 -0.5518 -2.7291  0.3336
14656TIP3   OH265382   2.572   0.383  13.442 -0.2425  0.7127 -0.0586
14656TIP3    H165383   2.546   0.359  13.353  0.4122  1.0977 -0.3558
14656TIP3    H265384   2.592   0.299  13.485 -0.9243  0.4990 -0.1563
14657TIP3   OH265385   0.682   3.807  10.942 -0.1000 -0.1972  0.2201
14657TIP3    H165386   0.609   3.803  10.880 -1.8488  3.4666  1.8793
14657TIP3    H265387   0.760   3.793  10.888 -1.8348 -1.2719 -2.0892
14658TIP3   OH265388   6.524   6.511   3.158 -0.1224 -0.2848  0.3132
14658TIP3    H165389   6.476   6.576   3.209  0.3335  0.1907  0.1373
14658TIP3    H265390   6.503   6.428   3.200 -1.5454 -0.1454 -0.0944
14659TIP3   OH265391   0.874   0.240  10.872  0.7438  0.3234 -0.5479
14659TIP3    H165392   0.814   0.287  10.815  0.2942 -0.8544 -1.0508
14659TIP3    H265393   0.851   0.269  10.960 -0.6701 -0.2293 -0.7184
14660TIP3   OH265394   1.212   3.003   4.570 -0.2064  0.3811 -0.0245
14660TIP3    H165395   1.209   3.090   4.611  2.1416  0.1977  0.5915
14660TIP3    H265396   1.214   3.021   4.476  0.2346  0.9921  0.1002
14661TIP3   OH265397   3.823   4.325   2.517  0.0778  0.2353  0.7009
14661TIP3    H165398   3.812   4.241   2.472  0.6997 -1.0248  2.7868
14661TIP3    H265399   3.753   4.326   2.583  0.2733  1.2089  0.9042
14662TIP3   OH265400   0.389   2.627   5.823 -0.1775  0.3986 -0.9489
14662TIP3    H165401   0.362   2.667   5.740 -2.2772 -1.1096 -1.0412
14662TIP3    H265402   0.322   2.560   5.840  2.3813 -2.0253 -0.0323
14663TIP3   OH265403   5.667   0.339  11.372 -0.4716  0.0497  0.3254
14663TIP3    H165404   5.666   0.414  11.313  0.2056  0.4562  0.8225
14663TIP3    H265405   5.636   0.374  11.456 -0.0463 -0.1972  0.5906
14664TIP3   OH265406   5.692   1.475   0.151 -0.6022 -0.7779 -0.0742
14664TIP3    H165407   5.711   1.557   0.105 -1.3234 -0.2205  0.5898
14664TIP3    H265408   5.741   1.482   0.233 -1.8476 -0.3177  0.6598
14665TIP3   OH265409   5.276   4.363  15.450 -0.3637 -0.5039 -0.5623
14665TIP3    H165410   5.183   4.381  15.462 -0.1784 -0.8139  1.4581
14665TIP3    H265411   5.318   4.449  15.451 -0.4445 -0.4768  0.1324
14666TIP3   OH265412   1.424   4.677  14.061  0.6127 -0.4724  0.6081
14666TIP3    H165413   1.443   4.604  14.002  2.8326 -0.3970  1.1996
14666TIP3    H265414   1.423   4.639  14.148  0.4155 -0.0450  0.7961
14667TIP3   OH265415   0.288   5.015   3.639 -0.2099  0.2458  0.1597
14667TIP3    H165416   0.265   4.923   3.653 -1.5625  0.4332 -0.6933
14667TIP3    H265417   0.205   5.057   3.619  0.4346  1.6204  0.3350
14668TIP3   OH265418   3.095   1.480  15.275  0.3317  0.5954  0.2731
14668TIP3    H165419   3.009   1.521  15.288  0.4249  1.5557 -1.8284
14668TIP3    H265420   3.153   1.553  15.252  0.7983 -0.4873 -2.1962
14669TIP3   OH265421   6.111   0.944  16.093  0.5597  0.1467  0.5684
14669TIP3    H165422   6.181   0.939  16.028  1.1324 -1.1331  1.2559
14669TIP3    H265423   6.030   0.936  16.043  0.9712 -0.0156 -0.0754
14670TIP3   OH265424   6.471   3.361  14.513  0.0055  0.0009 -0.1859
14670TIP3    H165425   6.437   3.295  14.574  0.4832 -1.5937 -1.5956
14670TIP3    H265426   6.484   3.439  14.567 -0.2473 -1.1538  1.5988
14671TIP3   OH265427   6.563   3.228  15.945 -0.4853 -0.0992 -0.8453
14671TIP3    H165428   6.529   3.174  16.018 -0.0962  1.4236  0.4892
14671TIP3    H265429   6.657   3.209  15.944 -0.4517  0.0596 -0.7887
14672TIP3   OH265430   1.865   4.972  15.151  0.2852  0.2034  0.1373
14672TIP3    H165431   1.808   5.041  15.117  0.3678  0.4945  0.5801
14672TIP3    H265432   1.947   5.017  15.171  0.6732 -0.2149 -0.5110
14673TIP3   OH265433   3.222   3.068  17.169  0.0153  0.1737 -0.1492
14673TIP3    H165434   3.236   3.048  17.261  2.3221  0.5439 -0.3993
14673TIP3    H265435   3.256   2.991  17.122  0.2535  0.6375 -0.7386
14674TIP3   OH265436   1.575   3.394   4.196 -0.4703  0.4041  0.8602
14674TIP3    H165437   1.666   3.387   4.166 -0.7662 -2.0331  0.4530
14674TIP3    H265438   1.553   3.487   4.184  1.3385  0.6373 -0.8482
14675TIP3   OH265439   0.753   2.527  12.132  0.5775  0.0011  0.2983
14675TIP3    H165440   0.675   2.473  12.150  0.7701 -0.2808  0.2862
14675TIP3    H265441   0.724   2.616  12.150  0.4663 -0.1726  1.0149
14676TIP3   OH265442   4.184   3.250   0.905 -0.0497 -0.5179 -0.8468
14676TIP3    H165443   4.113   3.190   0.929 -0.4591  0.1894 -0.2508
14676TIP3    H265444   4.181   3.318   0.973  1.6236 -0.8252 -0.4536
14677TIP3   OH265445   6.461   3.818   3.738 -0.1056 -0.1467  0.2697
14677TIP3    H165446   6.472   3.910   3.764 -0.3232 -0.4751  1.5494
14677TIP3    H265447   6.546   3.794   3.702 -0.4272  0.9228 -1.2490
14678TIP3   OH265448   0.251   1.813  11.527 -0.1342  0.3489  0.1434
14678TIP3    H165449   0.343   1.786  11.526  0.2500  1.6621 -1.8389
14678TIP3    H265450   0.251   1.893  11.580  0.0002  0.7601 -0.4697
14679TIP3   OH265451   1.626   1.959   4.056  0.3629  0.6348  0.6226
14679TIP3    H165452   1.547   1.998   4.020 -0.0765  0.3935  1.3052
14679TIP3    H265453   1.690   1.963   3.985 -0.8895 -1.1507 -0.6658
14680TIP3   OH265454   6.568   1.143   2.341  0.3903  0.5412 -0.4532
14680TIP3    H165455   6.474   1.156   2.326  0.3158 -0.4412 -0.8532
14680TIP3    H265456   6.609   1.166   2.257  0.5178  1.0623 -0.2494
14681TIP3   OH265457   6.232   2.778  12.624  0.1645  1.1410 -0.3242
14681TIP3    H165458   6.187   2.796  12.542  1.3471  0.9672 -1.0285
14681TIP3    H265459   6.247   2.865  12.662  0.2957  1.2699 -0.6685
14682TIP3   OH265460   0.142   5.041   5.716  0.3841 -0.0489 -0.3401
14682TIP3    H165461   0.064   4.992   5.688 -0.0047 -1.0496  2.3682
14682TIP3    H265462   0.211   5.012   5.656 -0.6412 -1.3167 -0.9433
14683TIP3   OH265463   5.225   0.585   0.130  0.0824  0.0467 -0.6104
14683TIP3    H165464   5.140   0.586   0.174  0.4665  0.2864  0.1364
14683TIP3    H265465   5.209   0.627   0.046 -0.2893  1.1215 -0.0049
14684TIP3   OH265466   2.510   1.703  11.381  0.0687  0.7502 -0.1360
14684TIP3    H165467   2.509   1.790  11.422 -1.8193  1.2642 -1.1973
14684TIP3    H265468   2.555   1.717  11.298  1.6108  0.2546  0.6029
14685TIP3   OH265469   3.114   2.832   3.890 -0.3131 -0.8285  0.1389
14685TIP3    H165470   3.101   2.784   3.808  1.6593 -1.4479  0.1666
14685TIP3    H265471   3.137   2.921   3.863  1.1286 -1.2332 -0.0205
14686TIP3   OH265472   4.734   1.063   6.067  0.5164 -0.3395  0.2987
14686TIP3    H165473   4.705   1.136   6.122  1.8672 -1.3357  2.3902
14686TIP3    H265474   4.824   1.085   6.043  0.2855 -0.4124 -0.6257
14687TIP3   OH265475   3.755   5.801  17.116 -0.2047 -0.1329  0.2138
14687TIP3    H165476   3.784   5.883  17.075  1.1051 -0.8570 -0.3480
14687TIP3    H265477   3.661   5.798  17.102  0.2539 -0.5514 -3.0990
14688TIP3   OH265478   2.654   0.384  15.831  0.1205 -0.2356 -0.3838
14688TIP3    H165479   2.725   0.321  15.836 -0.4963 -0.9094 -0.0531
14688TIP3    H265480   2.688   0.454  15.775  1.4011 -0.0757  0.5634
14689TIP3   OH265481   3.875   6.657   4.306 -1.1270  0.1660 -0.1139
14689TIP3    H165482   3.887   6.626   4.216 -0.8479 -0.1804  0.0397
14689TIP3    H265483   3.910   6.746   4.306  1.0474 -0.6653  0.2174
14690TIP3   OH265484   4.045   3.582  12.009  0.2400 -0.1409 -0.1506
14690TIP3    H165485   4.074   3.539  11.928  0.7278  0.2200 -0.1666
14690TIP3    H265486   4.107   3.552  12.075  0.0938 -0.0965  0.0059
14691TIP3   OH265487   4.041   1.758   3.623 -0.4869  0.4310 -0.4673
14691TIP3    H165488   4.069   1.848   3.606 -0.3721  0.2105 -1.4598
14691TIP3    H265489   4.101   1.704   3.573 -0.5274 -0.2066  0.1633
14692TIP3   OH265490   2.175   1.905  16.493  0.2474 -0.8950  0.5278
14692TIP3    H165491   2.219   1.951  16.565 -0.7996  1.9928 -0.6135
14692TIP3    H265492   2.245   1.883  16.432  0.3166  3.2154 -1.0356
14693TIP3   OH265493   5.040   2.650  13.775 -0.0402 -0.0126  0.2621
14693TIP3    H165494   4.957   2.603  13.764  0.7157 -1.1635 -0.6335
14693TIP3    H265495   5.070   2.667  13.685 -0.4111  2.3928  0.5787
14694TIP3   OH265496   0.386   4.188  13.379 -0.2768 -0.3956  0.2827
14694TIP3    H165497   0.349   4.167  13.294  0.5606 -0.2401 -0.1304
14694TIP3    H265498   0.344   4.270  13.405 -0.1836 -0.1964 -0.1985
14695TIP3   OH265499   5.454   6.223   6.140  0.1655 -0.2878 -0.4634
14695TIP3    H165500   5.369   6.253   6.174 -0.8021 -1.4535 -1.8045
14695TIP3    H265501   5.518   6.260   6.201 -1.2048  1.6914 -0.1710
14696TIP3   OH265502   6.012   4.442   0.664  0.0489 -0.1887  0.0123
14696TIP3    H165503   6.049   4.514   0.716  2.2479 -1.7145  0.6370
14696TIP3    H265504   5.933   4.417   0.711 -2.2555  3.5118 -1.6403
14697TIP3   OH265505   2.993   4.686   5.479 -0.7383  0.0942 -0.2554
14697TIP3    H165506   2.959   4.723   5.398 -1.9328 -1.2503 -0.3918
14697TIP3    H265507   2.947   4.732   5.549 -0.1282  0.8535 -0.3536
14698TIP3   OH265508   5.990   4.731   1.897  0.2172  0.0015 -0.1781
14698TIP3    H165509   5.930   4.781   1.953 -2.3095 -1.1072 -1.7938
14698TIP3    H265510   6.077   4.767   1.916 -0.8526  1.2174  2.7184
14699TIP3   OH265511   0.043   0.272  14.276 -0.5545 -0.3186 -0.0682
14699TIP3    H165512  -0.005   0.271  14.359 -0.5306  0.9371 -0.0273
14699TIP3    H265513   0.069   0.363  14.265 -0.0322 -0.5957 -1.1611
14700TIP3   OH265514   4.055   4.057   2.191 -0.7902  0.3146  0.1244
14700TIP3    H165515   3.975   4.058   2.245  0.2398  0.8392  1.6700
14700TIP3    H265516   4.059   4.145   2.153 -1.3084  0.0699 -0.5009
14701TIP3   OH265517   3.083   4.821   3.482  0.2010 -0.7022 -0.6322
14701TIP3    H165518   3.172   4.809   3.450 -0.4008  1.2617 -3.2393
14701TIP3    H265519   3.044   4.733   3.479  1.5688 -1.3026 -0.9842
14702TIP3   OH265520   5.622   0.326  12.658 -0.1357  0.0273  0.1539
14702TIP3    H165521   5.566   0.257  12.694  0.6938  0.2447  1.8963
14702TIP3    H265522   5.694   0.279  12.617  0.1055 -0.1634  0.7946
14703TIP3   OH265523   4.583   4.423  14.279 -1.0908  0.5260 -0.8205
14703TIP3    H165524   4.558   4.332  14.261  1.5476 -0.8901  2.0801
14703TIP3    H265525   4.521   4.452  14.346 -1.4013  0.5788 -1.1284
14704TIP3   OH265526   5.032   0.109  14.550  0.0804  0.0721 -0.0975
14704TIP3    H165527   5.094   0.094  14.478  1.8237  1.0635  1.1606
14704TIP3    H265528   5.031   0.026  14.598 -0.7274 -0.4365 -0.9798
14705TIP3   OH265529   2.724   4.988   5.445 -0.0160  0.9058 -0.3227
14705TIP3    H165530   2.706   4.936   5.523 -1.7961  1.1421 -0.5437
14705TIP3    H265531   2.758   5.071   5.478  1.6209  0.0864  0.0807
14706TIP3   OH265532   3.465   1.463   2.574  0.6473  0.5817  0.5316
14706TIP3    H165533   3.439   1.546   2.533  2.7929  0.9857 -0.0746
14706TIP3    H265534   3.500   1.489   2.659  1.0970  0.2738  0.4411
14707TIP3   OH265535   3.815   2.240  12.032 -0.1475  0.2736  0.2197
14707TIP3    H165536   3.875   2.206  11.965 -0.7574  1.8968 -1.2168
14707TIP3    H265537   3.811   2.172  12.098  1.3001 -0.9465 -0.9088
14708TIP3   OH265538   4.235   6.739   5.538  0.3779 -0.0837  0.5014
14708TIP3    H165539   4.164   6.801   5.525 -0.8703 -1.7493 -0.8453
14708TIP3    H265540   4.311   6.781   5.498 -0.5481  0.3960 -0.7982
14709TIP3   OH265541   4.852   0.376   1.977 -0.2756 -0.3798  0.2006
14709TIP3    H165542   4.765   0.360   2.014  0.2795 -1.9481  0.8851
14709TIP3    H265543   4.906   0.399   2.053 -0.0203  0.3203 -0.1858
14710TIP3   OH265544   3.227   0.727  14.727 -0.1389  0.7038  0.5174
14710TIP3    H165545   3.232   0.660  14.658 -0.8760  1.2098 -0.0403
14710TIP3    H265546   3.314   0.728  14.766 -0.1976 -0.7557  0.6938
14711TIP3   OH265547   3.913   6.095  11.047  0.0768  0.4957  0.0938
14711TIP3    H165548   4.003   6.110  11.018 -0.5720  3.9040 -0.3766
14711TIP3    H265549   3.887   6.013  11.005  2.7666 -0.2544 -0.1858
14712TIP3   OH265550   5.181   4.532   2.207 -0.2077 -0.1658 -0.2131
14712TIP3    H165551   5.221   4.608   2.165  0.4240 -0.1325  0.4390
14712TIP3    H265552   5.135   4.487   2.136  0.7413 -0.0408 -0.9145
14713TIP3   OH265553   1.481   2.356  12.807 -0.3217 -0.1183  0.1562
14713TIP3    H165554   1.519   2.423  12.751 -0.7914 -0.1291 -0.1768
14713TIP3    H265555   1.548   2.339  12.873 -0.7950  1.7352  1.1251
14714TIP3   OH265556   4.657   4.779  17.132  0.3277 -0.5442 -0.5544
14714TIP3    H165557   4.596   4.769  17.059  1.2921  2.2531 -1.7963
14714TIP3    H265558   4.618   4.847  17.187  0.8661 -0.8392  0.2074
14715TIP3   OH265559   5.550   0.926  12.141  0.9115  0.4169  0.2617
14715TIP3    H165560   5.560   0.944  12.048  0.6650  1.0276  0.3497
14715TIP3    H265561   5.480   0.861  12.146  1.2447  0.0419 -0.0120
14716TIP3   OH265562   5.875   2.268  16.364  0.3557  0.1355 -0.1616
14716TIP3    H165563   5.945   2.252  16.301 -0.2832  0.3461 -0.9292
14716TIP3    H265564   5.863   2.184  16.408 -0.8264 -0.6884 -1.9850
14717TIP3   OH265565   3.729   5.199   2.544  0.0303  0.0858  0.2776
14717TIP3    H165566   3.735   5.246   2.627 -0.4145  0.0757  0.3174
14717TIP3    H265567   3.724   5.267   2.478  0.2284  0.0939  0.2717
14718TIP3   OH265568   5.508   3.460  15.737  0.4868  0.1883  0.3380
14718TIP3    H165569   5.506   3.554  15.717  0.3018  0.2908  0.8461
14718TIP3    H265570   5.560   3.422  15.666  0.4305  0.6531  0.0448
14719TIP3   OH265571   1.006   0.087  11.978 -0.1739 -0.4796  0.0244
14719TIP3    H165572   0.980   0.061  11.889 -2.0430 -0.5285  0.5491
14719TIP3    H265573   1.053   0.012  12.012  0.1882 -0.6274 -0.7794
14720TIP3   OH265574   1.223   2.062  11.632  0.1939  0.1520 -0.2542
14720TIP3    H165575   1.276   2.031  11.558  0.9028  0.1600  0.2433
14720TIP3    H265576   1.162   1.989  11.650  1.4097 -0.7042  0.4817
14721TIP3   OH265577   6.114   5.517  17.126 -0.4548 -0.3093  0.2686
14721TIP3    H165578   6.131   5.519  17.220  2.3032 -0.7193 -0.2053
14721TIP3    H265579   6.115   5.425  17.103 -1.0553 -0.2037 -0.1866
14722TIP3   OH265580   4.610   0.480   0.268 -0.5238 -0.2265 -0.8546
14722TIP3    H165581   4.603   0.550   0.332  2.0774  0.2053 -1.0131
14722TIP3    H265582   4.601   0.399   0.319 -3.9566  0.1274 -0.7231
14723TIP3   OH265583   1.682   4.097   2.844 -0.3716 -0.3285 -0.3584
14723TIP3    H165584   1.681   4.064   2.754  1.7130  1.3033 -1.0327
14723TIP3    H265585   1.758   4.055   2.884 -0.3749  0.1527  0.1596
14724TIP3   OH265586   6.452   4.139   0.930 -0.2220  0.6578 -0.1563
14724TIP3    H165587   6.357   4.129   0.918 -0.2642  2.0379 -1.1292
14724TIP3    H265588   6.464   4.139   1.025 -0.9310 -1.6830 -0.0289
14725TIP3   OH265589   1.744   4.531  13.555 -0.1201  0.1141  0.2210
14725TIP3    H165590   1.826   4.482  13.557  0.9772  1.7571 -2.4076
14725TIP3    H265591   1.716   4.528  13.464 -1.5293  1.9102  0.5674
14726TIP3   OH265592   0.144   4.068   5.673  0.4730  0.1910 -0.5672
14726TIP3    H165593   0.147   4.157   5.708  0.5141 -0.1228  0.2364
14726TIP3    H265594   0.154   4.079   5.579  0.7099  1.0225 -0.4482
14727TIP3   OH265595   4.219   1.487   2.470 -0.2121  0.4181 -0.1347
14727TIP3    H165596   4.240   1.490   2.377  0.7501  0.7001  0.0924
14727TIP3    H265597   4.154   1.417   2.477 -0.8720  0.9041 -1.1269
14728TIP3   OH265598   0.484   4.692  10.663  0.1237 -0.2673  0.4398
14728TIP3    H165599   0.435   4.646  10.731  0.9077  0.0450  1.2199
14728TIP3    H265600   0.464   4.784  10.676  0.8043 -0.1485  0.6755
14729TIP3   OH265601   1.689   1.938  11.688  0.2367  0.8969  0.0098
14729TIP3    H165602   1.626   1.982  11.631  1.0956  0.6139 -1.1971
14729TIP3    H265603   1.751   2.007  11.713 -0.1573  1.0275  0.6314
14730TIP3   OH265604   4.491   3.295   0.516  0.4177  0.0833  0.0474
14730TIP3    H165605   4.507   3.261   0.428  1.2859  0.2185  0.1425
14730TIP3    H265606   4.413   3.249   0.546  0.6723 -0.6719 -0.4300
14731TIP3   OH265607   4.294   3.174   0.642 -0.3125  0.4822  0.4718
14731TIP3    H165608   4.275   3.213   0.728 -2.7529 -1.1298  0.7249
14731TIP3    H265609   4.252   3.088   0.645 -0.2608  0.3239 -2.2653
14732TIP3   OH265610   4.952   0.097  12.544 -0.0378  0.0939 -0.2716
14732TIP3    H165611   4.872   0.091  12.597 -1.1706  0.8013 -1.8646
14732TIP3    H265612   5.013   0.036  12.586 -0.3041  1.8661  2.8397
14733TIP3   OH265613   5.036   0.452   4.553 -0.7279  0.2820 -0.7214
14733TIP3    H165614   5.006   0.413   4.471 -2.5565  1.9488 -0.8728
14733TIP3    H265615   4.958   0.455   4.608  0.7281 -2.0425  1.6163
14734TIP3   OH265616   2.562   5.359  11.312 -0.2855 -0.4459 -0.1925
14734TIP3    H165617   2.504   5.385  11.241 -0.2905  1.5018  0.5018
14734TIP3    H265618   2.573   5.438  11.365 -1.0746 -2.1056  2.5333
14735TIP3   OH265619   3.355   0.399   3.485 -0.2724  0.0608 -0.5755
14735TIP3    H165620   3.327   0.382   3.395 -0.4340 -1.0323 -0.3219
14735TIP3    H265621   3.348   0.494   3.495  1.4828  0.3962 -2.2961
14736TIP3   OH265622   2.852   1.023   2.479 -0.4515 -0.7561  0.7475
14736TIP3    H165623   2.854   0.931   2.452 -0.6638 -0.2833 -0.9185
14736TIP3    H265624   2.865   1.072   2.398  0.2891  0.6759  1.7190
14737TIP3   OH265625   2.928   4.532  11.132 -0.1467  0.1102  0.4785
14737TIP3    H165626   2.847   4.495  11.095 -0.0098 -0.7632  1.0270
14737TIP3    H265627   2.938   4.488  11.216 -0.2380  1.7944  1.3799
14738TIP3   OH265628   4.241   6.366   5.263 -0.2370 -0.1471 -0.0347
14738TIP3    H165629   4.264   6.414   5.183  1.3215 -0.5553  0.1486
14738TIP3    H265630   4.218   6.278   5.232 -1.9923  0.3791 -0.2600
14739TIP3   OH265631   5.243   3.085   0.480 -0.5005 -0.0883  0.0594
14739TIP3    H165632   5.204   3.170   0.499 -0.0277  0.5220 -1.5779
14739TIP3    H265633   5.336   3.097   0.498 -0.7730 -1.0335  2.2898
14740TIP3   OH265634   3.466   2.636  13.409  0.3450 -0.5080 -0.3069
14740TIP3    H165635   3.539   2.627  13.470  0.2607  2.0132  0.2322
14740TIP3    H265636   3.506   2.625  13.322  1.3702  0.8171 -0.0140
14741TIP3   OH265637   1.774   2.186   2.541 -0.6626  0.2741 -0.2662
14741TIP3    H165638   1.787   2.264   2.593 -0.2762 -0.2031  0.3536
14741TIP3    H265639   1.680   2.187   2.519 -0.6947  0.8061 -0.1099
14742TIP3   OH265640   6.623   3.984  17.219 -0.2843  0.4068 -0.3828
14742TIP3    H165641   6.564   3.972  17.145  0.6934  0.0733 -1.1154
14742TIP3    H265642   6.570   4.028  17.285 -1.6491 -0.8259 -0.6437
14743TIP3   OH265643   4.223   3.572   2.310 -0.2754  0.3734  0.6157
14743TIP3    H165644   4.172   3.589   2.231 -0.6352  0.0908  0.7879
14743TIP3    H265645   4.299   3.522   2.279 -1.0987 -0.9128  0.6342
14744TIP3   OH265646   4.033   0.884  15.204  0.3228  0.0738  0.3526
14744TIP3    H165647   4.107   0.883  15.143  2.0241 -0.7348  2.3527
14744TIP3    H265648   4.074   0.888  15.291 -2.0095  0.1880  1.4864
14745TIP3   OH265649   2.026   3.920   6.595 -0.2256  0.1945 -0.8247
14745TIP3    H165650   2.023   4.003   6.549 -0.8190  2.5946  3.2750
14745TIP3    H265651   1.949   3.921   6.652  2.0200 -1.1253  2.4541
14746TIP3   OH265652   0.819   4.189   3.169  0.3261 -0.0726 -0.0537
14746TIP3    H165653   0.860   4.117   3.122 -1.2925  0.0110 -1.6362
14746TIP3    H265654   0.785   4.247   3.101  1.2178  1.9791  1.1869
14747TIP3   OH265655   5.762   0.223  17.141  0.3191  0.7715  0.1823
14747TIP3    H165656   5.713   0.251  17.064 -0.3012  1.0164  0.6625
14747TIP3    H265657   5.810   0.145  17.113  0.0387  0.8204 -0.4239
14748TIP3   OH265658   5.989   1.545   6.650  0.0983 -0.8167 -0.0868
14748TIP3    H165659   5.950   1.581   6.571  0.7689  1.2641  0.5060
14748TIP3    H265660   6.059   1.488   6.619  1.0558  0.8325 -0.9489
14749TIP3   OH265661   6.650   3.656  13.395 -0.2206  0.7064  0.2452
14749TIP3    H165662   6.588   3.596  13.435  0.5142  0.3083  0.8065
14749TIP3    H265663   6.597   3.727  13.360 -0.8941  0.8976  1.6693
14750TIP3   OH265664   1.515   4.626  11.941 -0.3558 -0.2205 -0.0271
14750TIP3    H165665   1.452   4.602  12.009 -1.3362 -1.2046 -1.2552
14750TIP3    H265666   1.462   4.664  11.871  0.4045 -1.0520 -1.0810
14751TIP3   OH265667   3.665   3.313  13.586  0.0977 -0.5592 -0.4162
14751TIP3    H165668   3.656   3.396  13.633 -0.1846  0.6270 -2.4887
14751TIP3    H265669   3.729   3.330  13.517  0.1461 -2.1117 -0.7882
14752TIP3   OH265670   2.884   3.521  15.511  0.0266  0.2912  0.1652
14752TIP3    H165671   2.920   3.516  15.423  1.8628 -0.1333  0.9205
14752TIP3    H265672   2.942   3.581  15.558 -1.5044  1.2959  0.8410
14753TIP3   OH265673   6.455   6.685   2.052 -0.3864 -0.3158  0.1248
14753TIP3    H165674   6.492   6.742   1.985 -0.6508  0.7035  0.8257
14753TIP3    H265675   6.530   6.657   2.104 -0.1307 -1.4535 -0.8543
14754TIP3   OH265676   0.233   4.369   2.476  0.0900  1.1539 -0.0125
14754TIP3    H165677   0.274   4.298   2.426  0.1227 -0.8627  2.7090
14754TIP3    H265678   0.285   4.447   2.455  1.6989 -0.1773 -1.0946
14755TIP3   OH265679   3.942   6.326  10.784  0.3215  0.2729  0.4318
14755TIP3    H165680   4.009   6.394  10.776  0.4955  0.0078 -0.3790
14755TIP3    H265681   3.947   6.278  10.702  1.2342 -1.6725  1.5915
14756TIP3   OH265682   5.713   1.991   2.332 -0.0847 -0.2587 -0.4729
14756TIP3    H165683   5.750   1.904   2.319  0.4520 -0.2644  0.9936
14756TIP3    H265684   5.760   2.026   2.408  2.0340  2.6017 -3.0072
14757TIP3   OH265685   3.043   5.676   0.482  0.5556 -0.2851  0.0033
14757TIP3    H165686   2.989   5.676   0.561 -2.1324 -0.9185 -1.7624
14757TIP3    H265687   3.132   5.695   0.513 -0.6102  0.4329  3.0294
14758TIP3   OH265688   3.002   1.986   4.677  0.1109 -0.1466 -0.3922
14758TIP3    H165689   3.070   2.051   4.664 -1.0796  0.8385 -1.9038
14758TIP3    H265690   2.938   2.028   4.735 -0.9480  0.2785 -1.8384
14759TIP3   OH265691   0.153   5.722   0.161  0.7285 -0.3002 -0.0234
14759TIP3    H165692   0.227   5.749   0.215 -0.9211  2.0714  1.1007
14759TIP3    H265693   0.085   5.698   0.223  0.5358 -2.5424 -1.0523
14760TIP3   OH265694   3.340   5.664   5.178  0.3623  0.0618  0.1858
14760TIP3    H165695   3.255   5.693   5.212  0.6120  1.5463 -0.4017
14760TIP3    H265696   3.319   5.619   5.096  0.0962 -0.0691  0.3244
14761TIP3   OH265697   3.597   1.703   0.813  0.1971  0.4672  0.1819
14761TIP3    H165698   3.658   1.631   0.794 -1.5159 -1.0949  0.4672
14761TIP3    H265699   3.564   1.684   0.900 -1.1736  0.9671 -0.2219
14762TIP3   OH265700   1.629   0.733  12.993 -0.5362  0.3453  0.4456
14762TIP3    H165701   1.553   0.679  12.968  0.1914  0.4114 -2.0217
14762TIP3    H265702   1.696   0.670  13.019 -1.0914  0.2549  1.7227
14763TIP3   OH265703   3.239   3.663  17.166 -0.1176  0.3361 -0.4507
14763TIP3    H165704   3.249   3.571  17.144 -1.6106 -0.3451  1.6658
14763TIP3    H265705   3.316   3.684  17.219 -2.4626 -1.2138  3.8017
14764TIP3   OH265706   0.291   6.157   4.027 -0.0876 -0.6756 -0.0389
14764TIP3    H165707   0.229   6.229   4.036  0.3189 -0.2273 -0.8358
14764TIP3    H265708   0.236   6.079   4.024 -0.6052 -0.2895 -0.5949
14765TIP3   OH265709   5.186   3.418   4.556 -0.2354 -0.7089  0.1113
14765TIP3    H165710   5.091   3.406   4.545 -0.5987  2.9381 -1.4801
14765TIP3    H265711   5.199   3.415   4.651 -2.6416  2.7572  0.6631
14766TIP3   OH265712   6.040   0.211  15.589  0.2601  0.0923 -0.5668
14766TIP3    H165713   6.028   0.142  15.655 -0.4824  0.6133 -0.1573
14766TIP3    H265714   6.120   0.256  15.616 -1.4662  1.9924  1.4938
14767TIP3   OH265715   1.529   3.088   5.648  0.4002 -0.6953 -0.4951
14767TIP3    H165716   1.529   3.160   5.712  0.5259  0.2812 -1.5799
14767TIP3    H265717   1.502   3.129   5.566 -1.1195 -2.2094 -0.7779
14768TIP3   OH265718   4.348   6.414  15.213  0.4745 -0.0805 -0.0117
14768TIP3    H165719   4.413   6.381  15.275 -0.7532 -1.6576  0.4790
14768TIP3    H265720   4.265   6.376  15.243 -0.7168  1.9854 -0.5307
14769TIP3   OH265721   3.801   3.983  11.423  0.1219  0.1810  0.0175
14769TIP3    H165722   3.863   4.051  11.394 -1.2324  1.8202  0.8523
14769TIP3    H265723   3.780   3.934  11.344 -0.2547  1.8954 -0.9747
14770TIP3   OH265724   1.381   5.110  17.064  0.3033 -0.0920 -0.0310
14770TIP3    H165725   1.367   5.016  17.068  1.2591 -0.2121  0.7727
14770TIP3    H265726   1.306   5.148  17.110 -0.1785 -0.4491 -0.5207
14771TIP3   OH265727   5.736   0.325  15.135  0.8032  0.7468 -0.1336
14771TIP3    H165728   5.643   0.305  15.125  0.9962 -0.2977  0.1708
14771TIP3    H265729   5.771   0.254  15.188  1.3112  2.3324  1.7410
14772TIP3   OH265730   2.128   3.392  13.897 -0.1463  0.3186 -0.2442
14772TIP3    H165731   2.175   3.366  13.818  0.1278 -0.4231  0.1542
14772TIP3    H265732   2.198   3.412  13.960 -0.3622  1.5842 -0.4091
14773TIP3   OH265733   5.490   0.179  12.310 -0.1194 -0.2807 -0.0973
14773TIP3    H165734   5.453   0.165  12.223  0.4211 -1.8655 -0.0888
14773TIP3    H265735   5.569   0.231  12.295 -0.6948  0.5107 -0.4144
14774TIP3   OH265736   5.193   6.704   5.018 -0.0801  0.1059  0.0303
14774TIP3    H165737   5.249   6.656   5.080 -0.7817  1.1475  1.5080
14774TIP3    H265738   5.240   6.785   5.000  0.3109 -0.3766 -1.1255
14775TIP3   OH265739   1.292   2.882   0.496 -0.4524 -0.1067 -0.4251
14775TIP3    H165740   1.354   2.951   0.520  0.1446 -0.0432 -2.0808
14775TIP3    H265741   1.345   2.802   0.491 -0.7803 -0.3306 -0.3586
14776TIP3   OH265742   6.738   3.736   0.024 -0.1006 -0.2287 -0.5090
14776TIP3    H165743   6.699   3.813  -0.017  2.3312  0.6505 -1.2485
14776TIP3    H265744   6.709   3.663  -0.030 -2.0573  0.1835 -0.0627
14777TIP3   OH265745   0.101   6.581   2.270  1.1282  0.0945 -0.0828
14777TIP3    H165746   0.138   6.504   2.227  0.2287 -1.7167  2.2915
14777TIP3    H265747   0.015   6.592   2.229  1.0791 -0.4280 -0.1233
14778TIP3   OH265748   0.673   0.575   1.073 -0.3738  0.0108 -0.0599
14778TIP3    H165749   0.769   0.571   1.073 -0.3735 -0.5155  1.4953
14778TIP3    H265750   0.651   0.619   0.991  1.2241  0.6766 -0.1634
14779TIP3   OH265751   0.824   5.899   4.679 -0.5909 -0.3170 -0.2416
14779TIP3    H165752   0.893   5.955   4.643 -0.0963 -0.2693  0.7728
14779TIP3    H265753   0.752   5.909   4.618  0.0690  0.1533 -0.9595
14780TIP3   OH265754   5.839   6.137  12.952 -0.2997  0.3132 -0.3171
14780TIP3    H165755   5.795   6.215  12.984  0.0394 -0.0234  0.9685
14780TIP3    H265756   5.774   6.094  12.896 -0.6003  1.3309 -0.7536
14781TIP3   OH265757   5.690   6.353  13.027  0.0012  0.2071 -0.3398
14781TIP3    H165758   5.631   6.407  12.975  0.4581  0.1732 -0.8894
14781TIP3    H265759   5.762   6.412  13.051  1.8807 -0.8495 -3.2227
14782TIP3   OH265760   4.269   2.180   1.166  0.3564  0.0886 -0.8988
14782TIP3    H165761   4.360   2.165   1.138  1.1614  0.0698  1.5797
14782TIP3    H265762   4.216   2.137   1.099  2.1927 -0.0995 -2.2672
14783TIP3   OH265763   6.277   5.352  12.974 -0.7637  0.4322  0.7527
14783TIP3    H165764   6.206   5.302  12.934 -1.7473  2.2672  0.1391
14783TIP3    H265765   6.239   5.387  13.055 -0.5868  1.4599  0.4014
14784TIP3   OH265766   1.432   3.882  11.834 -0.0247  0.0111 -0.5524
14784TIP3    H165767   1.472   3.959  11.874  1.1803 -1.2837  0.7887
14784TIP3    H265768   1.464   3.809  11.886 -1.4514 -1.3694 -1.5797
14785TIP3   OH265769   2.819   1.111   0.344 -0.0385 -0.2925  0.1414
14785TIP3    H165770   2.843   1.104   0.436  0.5086 -1.2228 -0.0731
14785TIP3    H265771   2.789   1.024   0.320 -1.3269  0.2430 -0.2466
14786TIP3   OH265772   6.035   5.974   1.382 -0.7954  0.9060  0.0783
14786TIP3    H165773   5.980   5.900   1.355  0.1227 -0.6960  2.3704
14786TIP3    H265774   6.104   5.978   1.316 -0.7010 -0.4911  0.0723
14787TIP3   OH265775   5.562   2.920   3.852  0.4606 -0.2811  0.4223
14787TIP3    H165776   5.645   2.933   3.807 -0.1771  1.5479 -0.2789
14787TIP3    H265777   5.557   2.991   3.915 -0.1162 -0.9645  1.1556
14788TIP3   OH265778   2.292   1.608  10.845  0.0205 -0.3059  0.4660
14788TIP3    H165779   2.326   1.555  10.917 -0.2933 -1.9205 -0.5422
14788TIP3    H265780   2.260   1.543  10.781 -1.0611  1.1128 -0.4530
14789TIP3   OH265781   2.176   6.005   1.427  1.1921 -0.0125  0.6992
14789TIP3    H165782   2.151   5.949   1.500  0.1116 -0.6210 -0.1267
14789TIP3    H265783   2.255   6.051   1.458  1.8569 -1.6735  1.5180
14790TIP3   OH265784   1.835   3.517   2.971 -0.0191  0.1081  0.1283
14790TIP3    H165785   1.752   3.542   3.013 -0.3307 -0.4375 -0.1694
14790TIP3    H265786   1.816   3.435   2.926  0.6905 -0.0306  0.0752
14791TIP3   OH265787   3.890   6.517  16.145  0.1824  0.1858 -0.8040
14791TIP3    H165788   3.887   6.447  16.211  1.5362 -0.1753 -1.1208
14791TIP3    H265789   3.937   6.479  16.071  0.7467  1.3630 -1.0661
14792TIP3   OH265790   2.037   1.958  13.016  0.0695  0.3313  0.2624
14792TIP3    H165791   2.113   1.917  13.059 -0.1362 -0.0982  0.2229
14792TIP3    H265792   2.076   2.017  12.951  0.3894 -1.7293 -1.4924
14793TIP3   OH265793   2.885   4.704   1.294 -0.4808  0.2598 -0.6710
14793TIP3    H165794   2.947   4.636   1.267  0.0272 -0.1731  1.4595
14793TIP3    H265795   2.810   4.654   1.329  0.0536  0.7577  1.2552
14794TIP3   OH265796   1.198   1.822   1.185  0.1931  0.5056 -0.7460
14794TIP3    H165797   1.248   1.788   1.259  0.4847 -1.8112 -1.9895
14794TIP3    H265798   1.264   1.847   1.120 -0.1019  1.6740 -0.6170
14795TIP3   OH265799   2.260   6.107   1.120 -0.0254  0.1570 -0.0654
14795TIP3    H165800   2.354   6.107   1.138 -0.3519  2.4111  1.8795
14795TIP3    H265801   2.253   6.114   1.025  1.7713 -0.2348 -0.2384
14796TIP3   OH265802   3.848   3.717  16.350 -0.1540  0.0065 -0.2644
14796TIP3    H165803   3.788   3.643  16.355 -0.3591  0.1980  0.0968
14796TIP3    H265804   3.808   3.777  16.287  1.4575 -1.5119 -2.7834
14797TIP3   OH265805   0.586   4.046  15.119  1.0030 -0.2679  0.3245
14797TIP3    H165806   0.617   3.983  15.184  2.0597  0.5352  0.6211
14797TIP3    H265807   0.605   4.004  15.035  0.4487 -0.9264  0.5247
14798TIP3   OH265808   5.693   2.086  11.628 -0.4208 -0.9205 -0.4655
14798TIP3    H165809   5.681   2.151  11.559 -0.8199 -1.5227 -0.9697
14798TIP3    H265810   5.605   2.072  11.662 -0.3629 -1.3433 -0.4923
14799TIP3   OH265811   2.201   5.374   2.574 -0.5133 -1.0643  1.0370
14799TIP3    H165812   2.252   5.347   2.498  1.5045  0.3625  1.8269
14799TIP3    H265813   2.117   5.403   2.538 -0.1611 -1.8583 -0.4578
14800TIP3   OH265814   3.813   5.841  16.630 -0.6849  0.3383  0.7444
14800TIP3    H165815   3.825   5.866  16.538 -1.1533  0.8909  0.8294
14800TIP3    H265816   3.737   5.892  16.659 -0.0354  0.7827  1.6787
14801TIP3   OH265817   5.022   5.463  12.274 -0.6653  0.3759  0.3336
14801TIP3    H165818   5.102   5.444  12.322  0.2924 -2.5939 -2.3213
14801TIP3    H265819   4.962   5.392  12.298 -1.0487  0.2582 -0.9468
14802TIP3   OH265820   3.631   3.208  12.210  0.2008  0.4798 -0.4273
14802TIP3    H165821   3.686   3.214  12.132  1.2989  2.0459  0.4467
14802TIP3    H265822   3.589   3.293  12.217  2.0655  1.2536  2.0771
14803TIP3   OH265823   5.404   0.449   5.834 -0.8970  0.0683 -0.2131
14803TIP3    H165824   5.329   0.389   5.837  0.9764 -2.3493  0.1644
14803TIP3    H265825   5.471   0.406   5.888 -0.1984  3.5802  1.8526
14804TIP3   OH265826   0.730   2.871   6.839 -0.0634 -0.3192 -0.1926
14804TIP3    H165827   0.802   2.932   6.821  0.2528 -0.3462  0.9314
14804TIP3    H265828   0.652   2.926   6.835  0.1032 -0.0990 -0.4763
14805TIP3   OH265829   5.395   5.156  10.768  0.3201  0.1001  0.3616
14805TIP3    H165830   5.311   5.194  10.792  0.0795  1.5473 -2.5641
14805TIP3    H265831   5.386   5.062  10.788 -2.4079  0.0393 -0.9884
14806TIP3   OH265832   0.337   1.761   1.712  0.8225  0.4877 -0.1265
14806TIP3    H165833   0.307   1.768   1.622  1.0085  0.2724 -0.2063
14806TIP3    H265834   0.350   1.851   1.741  0.3327  0.5762 -0.1697
14807TIP3   OH265835   0.098   2.767   2.505  0.2409 -0.0134  0.2549
14807TIP3    H165836   0.097   2.711   2.582  2.5193 -1.9303 -1.0362
14807TIP3    H265837   0.032   2.728   2.447  0.8515 -0.5465 -0.0853
14808TIP3   OH265838   5.530   0.930  10.959  0.7807  0.0346 -0.5473
14808TIP3    H165839   5.598   0.969  10.904 -0.0596  1.2578 -0.7521
14808TIP3    H265840   5.450   0.936  10.906  0.2171  0.0304  0.2856
14809TIP3   OH265841   0.795   0.333   0.148 -0.4294  0.6334  0.3557
14809TIP3    H165842   0.758   0.271   0.211 -0.6863 -1.3886 -1.7134
14809TIP3    H265843   0.822   0.408   0.201  0.4559 -1.4854  3.0277
14810TIP3   OH265844   3.637   1.079   2.888  0.5529 -0.6429 -0.4576
14810TIP3    H165845   3.565   1.121   2.934  0.3432  0.3907 -1.6929
14810TIP3    H265846   3.708   1.076   2.953  0.1237  0.3682  0.0735
14811TIP3   OH265847   2.471   2.819   3.865  0.1142 -0.7057 -0.2276
14811TIP3    H165848   2.426   2.851   3.944 -0.1138  0.2005 -0.7049
14811TIP3    H265849   2.420   2.857   3.793  0.9982 -0.5821 -0.7914
14812TIP3   OH265850   0.619   1.416  12.410 -0.0596  0.5792 -0.1356
14812TIP3    H165851   0.618   1.347  12.343  0.1326  1.2833 -0.8630
14812TIP3    H265852   0.603   1.497  12.362  1.0174  1.1981  0.5415
14813TIP3   OH265853   2.020   5.166  10.466  0.0543  0.1322 -0.0346
14813TIP3    H165854   1.927   5.185  10.474  0.0132 -0.3278  0.5934
14813TIP3    H265855   2.025   5.072  10.450  0.4417  0.0248  0.6647
14814TIP3   OH265856   4.336   5.104  14.031 -0.1638  0.0589  0.1591
14814TIP3    H165857   4.383   5.082  13.951  0.5607  0.9523  0.3325
14814TIP3    H265858   4.340   5.024  14.084  1.9344  0.3943  0.5361
14815TIP3   OH265859   6.406   3.707   4.847  0.4195  0.1888  0.5301
14815TIP3    H165860   6.410   3.802   4.834  0.1951  0.5076  2.5916
14815TIP3    H265861   6.313   3.686   4.844  0.4121  0.1642  0.9157
14816TIP3   OH265862   0.538   5.636  11.524 -0.2050  0.0795  0.6449
14816TIP3    H165863   0.514   5.550  11.488 -1.5047 -0.1083  1.9123
14816TIP3    H265864   0.575   5.617  11.610 -0.6354  0.7874  0.9966
14817TIP3   OH265865   1.568   3.915  11.551 -0.2762  0.0777 -0.2794
14817TIP3    H165866   1.547   3.956  11.635 -0.2307  1.0356 -0.7317
14817TIP3    H265867   1.522   3.831  11.554  0.2309 -0.1675  0.9579
14818TIP3   OH265868   2.819   3.843  13.808  0.2657 -0.4214 -0.0879
14818TIP3    H165869   2.750   3.874  13.867  1.0964  0.8915  0.2035
14818TIP3    H265870   2.899   3.847  13.861  1.1104  1.2671 -1.4720
14819TIP3   OH265871   6.397   2.553   2.003  0.7785  0.0981 -0.2377
14819TIP3    H165872   6.454   2.589   1.934  0.7683 -1.9613 -1.3318
14819TIP3    H265873   6.363   2.631   2.047  0.0430  1.4975 -3.1392
14820TIP3   OH265874   3.466   3.285  13.892 -0.6374 -0.0897  0.3274
14820TIP3    H165875   3.421   3.347  13.835  2.3445  0.2257 -1.7709
14820TIP3    H265876   3.539   3.336  13.929  0.3640 -1.6691  0.5510
14821TIP3   OH265877   4.186   4.865   2.883 -0.7783 -0.3799 -0.0441
14821TIP3    H165878   4.205   4.910   2.801 -4.3571  0.0846 -0.7114
14821TIP3    H265879   4.189   4.933   2.950 -2.3073  0.1575 -0.4899
14822TIP3   OH265880   4.878   6.433  12.908 -0.2998 -0.2608  0.2040
14822TIP3    H165881   4.863   6.384  12.989 -0.8242  1.3614  1.1275
14822TIP3    H265882   4.915   6.370  12.848 -0.1471 -1.5707  1.6386
14823TIP3   OH265883   5.473   1.222  17.112 -0.0850 -0.4978  0.4339
14823TIP3    H165884   5.508   1.286  17.051 -2.0464  1.1761  1.0116
14823TIP3    H265885   5.474   1.139  17.064  0.5802  0.3483 -1.0272
14824TIP3   OH265886   6.501   5.975   2.016 -0.5692  0.0538  0.2716
14824TIP3    H165887   6.414   5.948   2.046 -1.1321  0.1238 -1.2710
14824TIP3    H265888   6.498   5.964   1.921  0.4052  2.0797 -0.0064
14825TIP3   OH265889   4.793   0.250  16.061 -0.5650 -0.5078 -0.2671
14825TIP3    H165890   4.873   0.245  16.009 -0.4667 -1.6328 -0.0266
14825TIP3    H265891   4.821   0.227  16.150 -1.1031 -0.5719 -0.1134
14826TIP3   OH265892   0.820   0.571   3.812  0.3093  0.2270 -0.2038
14826TIP3    H165893   0.745   0.548   3.869 -0.0166 -0.8266 -1.0504
14826TIP3    H265894   0.896   0.563   3.869 -0.0173 -0.8367  0.0922
14827TIP3   OH265895   6.199   5.013   4.068  0.2594 -0.2392  0.2721
14827TIP3    H165896   6.115   4.969   4.056  0.2193  0.0441 -0.5360
14827TIP3    H265897   6.177   5.106   4.073  0.3919 -0.2682  1.4810
14828TIP3   OH265898   0.431   3.819  15.446  0.8855 -0.6416 -0.0381
14828TIP3    H165899   0.459   3.800  15.536 -0.5414 -0.3111  0.4868
14828TIP3    H265900   0.380   3.743  15.420  1.6082 -0.8996 -0.7158
14829TIP3   OH265901   3.105   5.424  11.404  0.4796  0.1293 -0.0863
14829TIP3    H165902   3.013   5.417  11.427 -0.3365  1.8065 -2.6075
14829TIP3    H265903   3.110   5.390  11.314  1.9615  1.7671 -0.6639
14830TIP3   OH265904   6.137   1.024   1.675  0.2334 -0.1325 -0.3946
14830TIP3    H165905   6.147   0.971   1.754  0.3384 -0.4844 -0.6410
14830TIP3    H265906   6.168   1.111   1.700  0.5428 -0.3167 -0.1364
14831TIP3   OH265907   1.647   1.103  11.778  0.2997  0.2668  0.7170
14831TIP3    H165908   1.683   1.015  11.766  0.0479  0.5615 -2.6043
14831TIP3    H265909   1.724   1.158  11.794  0.7039 -0.1445  0.1916
14832TIP3   OH265910   2.619   4.261  12.478 -0.1817  0.0204 -0.0891
14832TIP3    H165911   2.621   4.193  12.546  1.9430 -1.1532 -1.2788
14832TIP3    H265912   2.608   4.343  12.527 -1.1826 -1.0209  1.4788
14833TIP3   OH265913   2.462   5.310  16.009  0.4856 -0.3520  0.2514
14833TIP3    H165914   2.458   5.309  16.105  0.6869  1.5688  0.3031
14833TIP3    H265915   2.394   5.250  15.981  0.5436 -1.0581  1.6090
14834TIP3   OH265916   0.395   4.058  15.782 -0.1173 -0.5201  0.3333
14834TIP3    H165917   0.312   4.021  15.811  2.0333 -3.2989  3.4294
14834TIP3    H265918   0.421   4.117  15.854  1.5165 -1.2898  0.4079
14835TIP3   OH265919   3.754   6.091  15.804 -0.4630  0.2397 -0.1283
14835TIP3    H165920   3.692   6.147  15.850  0.1165  0.5220  0.3256
14835TIP3    H265921   3.718   6.082  15.716 -0.6963  1.1270 -0.1333
14836TIP3   OH265922   3.164   1.918   2.967 -0.0852 -0.0509  0.4839
14836TIP3    H165923   3.109   1.877   2.901  0.6302 -3.2975  1.8077
14836TIP3    H265924   3.128   2.006   2.978 -2.4431 -0.7158 -1.5863
14837TIP3   OH265925   5.052   1.259  16.981  0.0135  0.2991  0.8861
14837TIP3    H165926   5.074   1.260  17.074 -0.0132  0.5592  0.8902
14837TIP3    H265927   5.093   1.338  16.946  0.5973 -0.1589  0.5399
14838TIP3   OH265928   2.728   0.112   1.928  0.9463 -0.4920  0.1138
14838TIP3    H165929   2.777   0.063   1.994 -0.1739 -2.5290 -0.5042
14838TIP3    H265930   2.639   0.076   1.933  0.6652 -0.1408 -1.9834
14839TIP3   OH265931   5.398   4.592  12.328 -0.4246 -0.6061  0.0412
14839TIP3    H165932   5.309   4.621  12.310  0.5608  2.1630 -0.6120
14839TIP3    H265933   5.422   4.637  12.409  0.5449 -0.9131 -0.0726
14840TIP3   OH265934   1.627   3.206  13.805  0.2391 -0.1676 -0.4051
14840TIP3    H165935   1.643   3.299  13.791  0.4165 -0.3134 -1.2165
14840TIP3    H265936   1.696   3.178  13.865  1.9548 -0.3924 -2.4206
14841TIP3   OH265937   6.294   2.637   4.525  0.3987 -0.4333 -0.5336
14841TIP3    H165938   6.374   2.594   4.493 -0.7782 -1.2122 -2.5627
14841TIP3    H265939   6.267   2.693   4.452 -0.0410  1.0397  0.7525
14842TIP3   OH265940   3.481   0.775  14.499 -0.1394  0.3705  0.6963
14842TIP3    H165941   3.565   0.814  14.522  0.8547 -0.2666 -1.6918
14842TIP3    H265942   3.423   0.850  14.483  0.6241  0.8281  0.0664
14843TIP3   OH265943   3.053   5.155  13.812 -0.4795  1.0773  0.6095
14843TIP3    H165944   2.994   5.226  13.786 -1.5415  0.6308  1.7690
14843TIP3    H265945   2.995   5.085  13.840  0.5574 -0.4553 -1.0005
14844TIP3   OH265946   0.437   0.199  13.900  0.1882 -0.3455  0.4138
14844TIP3    H165947   0.375   0.262  13.865 -0.3402 -0.3911  1.2612
14844TIP3    H265948   0.425   0.121  13.845 -1.1896 -0.6873  1.1719
14845TIP3   OH265949   1.166   4.376  14.108  0.4891  0.0035  1.2569
14845TIP3    H165950   1.105   4.307  14.133 -0.6137  0.2022 -0.7754
14845TIP3    H265951   1.120   4.458  14.128 -0.2247  0.1598 -0.8667
14846TIP3   OH265952   6.194   2.278  13.447 -0.7269  0.4811  0.0806
14846TIP3    H165953   6.131   2.232  13.392  1.4772 -3.5054  0.6346
14846TIP3    H265954   6.225   2.351  13.393 -2.4371 -0.2340 -1.9196
14847TIP3   OH265955   5.760   2.967  12.529  0.4853  0.1047  0.1591
14847TIP3    H165956   5.703   2.937  12.599  0.2307 -0.6346 -0.3627
14847TIP3    H265957   5.838   2.912  12.535 -0.5218 -1.5606 -1.6036
14848TIP3   OH265958   2.693   6.689   4.561 -0.0516  0.5351  0.6778
14848TIP3    H165959   2.640   6.674   4.639 -2.6929 -0.3922 -1.2126
14848TIP3    H265960   2.762   6.623   4.566 -1.2279 -0.6893  1.3714
14849TIP3   OH265961   3.686   0.777  11.684  0.2893  0.4125 -0.2884
14849TIP3    H165962   3.650   0.780  11.595  0.0325  0.5119 -0.1824
14849TIP3    H265963   3.638   0.846  11.731  2.6604  2.5734 -0.9133
14850TIP3   OH265964   4.078   1.648  16.214 -0.2452  0.0107 -0.3604
14850TIP3    H165965   4.129   1.727  16.229  1.5215 -1.1292 -0.1536
14850TIP3    H265966   4.037   1.661  16.128  1.7056  0.2951 -1.2772
14851TIP3   OH265967   3.736   3.535  14.305  0.1246 -0.1418 -0.2176
14851TIP3    H165968   3.690   3.618  14.322 -0.3426 -0.7076  1.4115
14851TIP3    H265969   3.774   3.512  14.390  0.3856 -1.5228 -0.7062
14852TIP3   OH265970   3.097   1.129   3.354  0.2112  0.1279 -0.0837
14852TIP3    H165971   3.098   1.062   3.422  1.5447 -1.4475 -1.5937
14852TIP3    H265972   3.135   1.207   3.396  0.1578 -0.5376  1.2215
14853TIP3   OH265973   5.140   3.405   2.265 -0.2700  0.1791  0.1085
14853TIP3    H165974   5.171   3.496   2.273  1.4814 -0.3544 -0.3577
14853TIP3    H265975   5.050   3.408   2.296 -0.5010  2.2455 -0.6933
14854TIP3   OH265976   3.374   6.337  12.096  0.0241  0.9791 -0.1038
14854TIP3    H165977   3.343   6.354  12.185 -0.4658 -0.6282  0.0526
14854TIP3    H265978   3.333   6.405  12.042 -0.4065  1.3949  0.7486
14855TIP3   OH265979   4.432   6.325   5.461 -0.0149  0.0029 -0.7051
14855TIP3    H165980   4.349   6.318   5.413 -0.9905 -0.9112  1.0424
14855TIP3    H265981   4.496   6.283   5.404 -1.2578 -1.6036 -0.9704
14856TIP3   OH265982   5.403   5.373   4.577 -0.1292  0.1412  0.1108
14856TIP3    H165983   5.499   5.373   4.573 -0.1289  1.8656 -0.4048
14856TIP3    H265984   5.379   5.280   4.572  1.5148 -0.3217  0.3887
14857TIP3   OH265985   5.819   2.150   5.060 -0.2481 -0.4721  0.5292
14857TIP3    H165986   5.801   2.116   5.148 -0.5951 -1.5744  0.0547
14857TIP3    H265987   5.863   2.077   5.016 -0.7526 -0.1915 -0.4340
14858TIP3   OH265988   2.326   6.549   1.972  0.3214 -0.1530  0.2218
14858TIP3    H165989   2.263   6.513   1.910  2.1256  0.6902 -2.1472
14858TIP3    H265990   2.357   6.473   2.022 -1.5761 -0.7513  0.5253
14859TIP3   OH265991   5.589   3.368   3.357 -0.1671  0.3238  0.2591
14859TIP3    H165992   5.523   3.301   3.376  0.4732 -0.2414  0.5387
14859TIP3    H265993   5.574   3.392   3.266 -1.1086  0.6023  0.4805
14860TIP3   OH265994   3.352   2.194   0.806 -0.6265 -0.1492  0.1706
14860TIP3    H165995   3.393   2.135   0.869  0.6083  1.1524  0.6332
14860TIP3    H265996   3.313   2.137   0.740  1.8980 -1.4261 -0.2486
14861TIP3   OH265997   5.400   4.568  14.606  0.2843  0.1212 -0.1404
14861TIP3    H165998   5.351   4.518  14.541 -0.9463  0.9005  0.1647
14861TIP3    H265999   5.354   4.552  14.689  0.8678  0.4233  0.2530
14862TIP3   OH266000   4.970   3.365   1.943  0.5381  0.2458  0.0494
14862TIP3    H166001   4.882   3.402   1.935 -0.4211 -1.5575  1.8915
14862TIP3    H266002   4.969   3.316   2.025  2.4187 -2.0929 -1.2456
14863TIP3   OH266003   5.266   2.139  13.915 -0.2884  0.2926 -0.4117
14863TIP3    H166004   5.308   2.101  13.837 -0.5820 -1.1272  0.1107
14863TIP3    H266005   5.203   2.202  13.879  0.0148  0.1048 -1.2993
14864TIP3   OH266006   2.283   6.133   5.586 -0.2559  0.4601  0.1002
14864TIP3    H166007   2.348   6.096   5.526 -0.1375  0.8503 -0.0183
14864TIP3    H266008   2.216   6.066   5.594  0.5987 -0.3191  0.9194
14865TIP3   OH266009   5.580   0.508   0.400 -0.1409  1.0575 -0.3500
14865TIP3    H166010   5.528   0.428   0.406 -0.1406  1.1618  1.3530
14865TIP3    H266011   5.670   0.478   0.385 -0.2804  0.7754 -0.6206
14866TIP3   OH266012   0.715   2.021   0.757  0.0323  0.2408  0.1167
14866TIP3    H166013   0.746   1.944   0.709 -0.0498  0.6844 -0.6472
14866TIP3    H266014   0.679   2.079   0.690 -2.4208 -0.2318  0.9618
14867TIP3   OH266015   1.901   0.047   4.667 -0.4775  0.1978  0.3455
14867TIP3    H166016   1.843   0.004   4.729 -0.6934  1.4121  1.0046
14867TIP3    H266017   1.911  -0.016   4.596 -1.1342 -0.7512  1.0830
14868TIP3   OH266018   6.623   5.787  15.726  0.1111  0.2153 -0.9367
14868TIP3    H166019   6.701   5.842  15.736  0.6732 -0.7063 -0.0612
14868TIP3    H266020   6.581   5.791  15.812 -0.4323  0.1552 -1.2016
14869TIP3   OH266021   2.663   0.682  13.232 -0.3425  0.4387  0.1026
14869TIP3    H166022   2.586   0.641  13.193 -1.0287 -1.3011  3.0971
14869TIP3    H266023   2.632   0.716  13.316  1.9673  0.2656  1.0762
14870TIP3   OH266024   4.726   5.779  14.678  0.3030 -0.1829 -0.1640
14870TIP3    H166025   4.766   5.755  14.595  0.8602 -0.3284  0.1443
14870TIP3    H266026   4.796   5.823  14.727  0.2065 -0.7813  0.5303
14871TIP3   OH266027   4.764   0.922  13.431 -0.0168  0.3553  0.2987
14871TIP3    H166028   4.678   0.904  13.470 -0.3723  1.9590  0.2917
14871TIP3    H266029   4.822   0.857  13.470 -1.2056 -0.6523  0.4197
14872TIP3   OH266030   4.116   4.315   5.697  0.3012 -0.0354  0.1544
14872TIP3    H166031   4.081   4.397   5.664 -0.1017 -0.1905  0.1994
14872TIP3    H266032   4.211   4.327   5.695  0.2159  1.2245  2.1461
14873TIP3   OH266033   1.225   1.029   1.976  0.1237 -0.1429 -0.1975
14873TIP3    H166034   1.151   1.050   1.919 -0.3007  0.1697  0.4685
14873TIP3    H266035   1.238   1.108   2.029  0.3071 -0.5434  0.3607
14874TIP3   OH266036   0.130   0.439  12.826  0.1254  0.1535  0.8812
14874TIP3    H166037   0.061   0.500  12.851 -0.8324 -1.1985  1.6194
14874TIP3    H266038   0.156   0.467  12.738 -1.2180  0.8149  0.6775
14875TIP3   OH266039   1.567   4.562   3.058  0.4302 -0.0173  0.1262
14875TIP3    H166040   1.562   4.497   3.127  0.5096 -3.5196 -3.0280
14875TIP3    H266041   1.658   4.590   3.057  0.4035  0.1515  1.4681
14876TIP3   OH266042   4.105   5.067   1.691 -0.0951  0.2063  0.2771
14876TIP3    H166043   4.124   4.977   1.716 -0.7522 -0.7561 -2.5087
14876TIP3    H266044   4.019   5.085   1.727  0.4806  0.1096  1.7372
14877TIP3   OH266045   1.493   0.395  11.137 -0.2705  0.3838 -0.2036
14877TIP3    H166046   1.436   0.333  11.091 -2.8581  2.9071 -0.5668
14877TIP3    H266047   1.556   0.423  11.070  0.7946 -1.5877 -0.0931
14878TIP3   OH266048   0.998   2.007   1.133 -0.1256 -0.0647 -0.1845
14878TIP3    H166049   1.073   1.957   1.163  1.1776  1.3328 -1.0404
14878TIP3    H266050   1.001   2.088   1.185  0.9175  1.4514 -2.5074
14879TIP3   OH266051   6.758   1.181   5.581 -0.2981 -0.3421  0.3031
14879TIP3    H166052   6.783   1.101   5.627  2.4383 -1.0610 -2.2652
14879TIP3    H266053   6.707   1.150   5.506  0.1572  0.3697 -0.3058
14880TIP3   OH266054   2.518   0.633  15.071 -0.2008  0.2258  0.0823
14880TIP3    H166055   2.463   0.702  15.034  0.2083  0.1265 -0.7029
14880TIP3    H266056   2.607   0.668  15.067  0.0736 -0.5638 -0.8157
14881TIP3   OH266057   6.499   4.927  12.945  0.6063 -0.2101  0.4269
14881TIP3    H166058   6.418   4.917  12.995  0.4720  0.1916  0.2889
14881TIP3    H266059   6.476   4.901  12.856  1.2344 -2.4504  0.8861
14882TIP3   OH266060   6.702   6.120  14.324  0.3371 -0.7583  0.4258
14882TIP3    H166061   6.659   6.041  14.356 -0.5546 -0.4126  0.1019
14882TIP3    H266062   6.766   6.088  14.260 -0.3428 -1.1961 -0.0485
14883TIP3   OH266063   0.478   4.498  14.047  0.2099 -0.0138 -0.3040
14883TIP3    H166064   0.475   4.542  14.132 -0.9307  0.6331 -0.6741
14883TIP3    H266065   0.443   4.562  13.986 -0.4119 -1.0293 -1.0253
14884TIP3   OH266066   4.859   4.982   6.151 -0.0337  0.3937  0.6021
14884TIP3    H166067   4.806   5.041   6.204 -0.7650  0.8430 -0.6185
14884TIP3    H266068   4.804   4.903   6.141 -0.3146  0.6985 -0.3125
14885TIP3   OH266069   6.173   0.899  11.678 -0.1047  0.1401 -0.4988
14885TIP3    H166070   6.182   0.831  11.611  0.6597 -2.0837  1.7419
14885TIP3    H266071   6.249   0.885  11.735 -1.7730  0.6477  1.9275
14886TIP3   OH266072   0.970   5.966  12.470 -0.1579 -0.5642  0.6572
14886TIP3    H166073   1.061   5.987  12.490 -0.9127  2.3135  1.3716
14886TIP3    H266074   0.975   5.905  12.396  2.3454 -1.4344  1.4834
14887TIP3   OH266075   5.559   0.015   5.456  0.5507 -0.5087  0.2046
14887TIP3    H166076   5.471  -0.020   5.447 -0.1679  0.9391  1.2303
14887TIP3    H266077   5.567   0.035   5.550  1.0243  1.6986 -0.2637
14888TIP3   OH266078   1.620   5.968  12.358 -0.0226  0.5209 -0.2774
14888TIP3    H166079   1.592   5.992  12.447  3.5686  1.4659  0.6930
14888TIP3    H266080   1.618   5.872  12.358  0.2278  0.5009  0.9528
14889TIP3   OH266081   3.847   4.889  15.136 -0.0803 -0.1695  0.2082
14889TIP3    H166082   3.790   4.812  15.140  0.3864 -0.5936 -1.1881
14889TIP3    H266083   3.787   4.963  15.145 -0.7876 -0.6324 -0.5674
14890TIP3   OH266084   3.854   0.465   2.067 -0.4003 -0.2264  0.8016
14890TIP3    H166085   3.761   0.483   2.082 -0.3868  0.4932  0.0828
14890TIP3    H266086   3.892   0.551   2.048  0.2726 -0.6073  0.3833
14891TIP3   OH266087   2.267   0.234  15.879  0.5285  0.6773  0.2779
14891TIP3    H166088   2.238   0.288  15.805  0.3834  2.3691  1.5543
14891TIP3    H266089   2.209   0.157  15.876 -0.5397  1.4867 -0.4175
14892TIP3   OH266090   1.752   0.954  16.085  0.5143 -0.3615 -0.2229
14892TIP3    H166091   1.814   0.952  16.012 -0.8669  0.2354 -1.4270
14892TIP3    H266092   1.798   0.910  16.156  1.8243 -1.1096 -1.5010
14893TIP3   OH266093   6.322   0.892  12.403  0.1303  0.9209 -0.5905
14893TIP3    H166094   6.316   0.907  12.498 -2.1982  0.7241 -0.6839
14893TIP3    H266095   6.399   0.942  12.376  1.2270  0.4640  1.4990
14894TIP3   OH266096   5.403   5.979   3.947 -0.2538  0.5947 -0.4357
14894TIP3    H166097   5.462   5.972   3.872  0.6143 -0.0957  0.2956
14894TIP3    H266098   5.370   5.890   3.961 -1.2732  0.9248 -0.6766
14895TIP3   OH266099   2.704   1.304   2.733 -0.3828 -0.1523  0.0732
14895TIP3    H166100   2.663   1.323   2.818 -1.2623 -1.8232  0.0627
14895TIP3    H266101   2.635   1.322   2.669 -0.5768 -1.3580 -0.0755
14896TIP3   OH266102   4.704   1.817  11.556  0.0380  0.6883 -0.1360
14896TIP3    H166103   4.612   1.838  11.538  0.0068  0.8816  0.2511
14896TIP3    H266104   4.733   1.768  11.479  0.0414  1.9372 -0.9382
14897TIP3   OH266105   0.427   1.836   3.794 -0.3574  0.4049  0.1306
14897TIP3    H166106   0.425   1.879   3.879  0.0087  0.5357  0.0759
14897TIP3    H266107   0.472   1.753   3.810 -1.5424 -0.1956  0.3411
14898TIP3   OH266108   5.917   6.642  15.071  0.3235  0.7112  0.6151
14898TIP3    H166109   5.871   6.606  14.995 -0.7764  2.3770  0.4643
14898TIP3    H266110   5.928   6.735  15.051  0.3987  1.0851  2.3062
14899TIP3   OH266111   4.909   1.305   0.123 -0.1260  0.2185  0.0702
14899TIP3    H166112   4.993   1.305   0.078  2.0046 -0.5620  3.7830
14899TIP3    H266113   4.909   1.223   0.173 -3.6180 -0.3160 -0.7393
14900TIP3   OH266114   0.317   5.529  12.761 -0.3799 -0.5156 -0.7339
14900TIP3    H166115   0.284   5.603  12.811 -2.0463 -1.2834 -0.6712
14900TIP3    H266116   0.314   5.455  12.822  0.5035 -0.8031 -1.0337
14901TIP3   OH266117   1.099   4.101   2.100  0.1401  0.1225  0.0820
14901TIP3    H166118   1.141   4.025   2.141  1.3768  0.5136 -0.4450
14901TIP3    H266119   1.050   4.064   2.026 -2.9909 -0.7325  2.4890
14902TIP3   OH266120   0.485   3.865  14.371 -0.1009  0.8653 -0.1212
14902TIP3    H166121   0.472   3.823  14.456  1.9345 -0.3149 -0.3600
14902TIP3    H266122   0.491   3.959  14.391 -3.0652  0.9447  0.5976
14903TIP3   OH266123   4.106   2.381  13.325  0.2757  0.3785 -0.6493
14903TIP3    H166124   4.166   2.450  13.295  1.1329 -0.8104 -1.7292
14903TIP3    H266125   4.030   2.390  13.268 -1.2570  2.8371  1.6811
14904TIP3   OH266126   4.163   2.890   6.048  0.0062 -0.6359 -0.0875
14904TIP3    H166127   4.089   2.918   5.994 -0.5600 -2.3585 -0.2268
14904TIP3    H266128   4.136   2.909   6.138 -0.7719 -1.5950 -0.1097
14905TIP3   OH266129   6.372   1.182   3.977 -0.3769 -0.1871 -0.0618
14905TIP3    H166130   6.420   1.245   3.922 -0.5732 -1.8213 -2.1433
14905TIP3    H266131   6.441   1.137   4.027 -0.1247  0.6063  0.3225
14906TIP3   OH266132   5.763   1.176  11.934 -0.1051 -0.4961  0.1819
14906TIP3    H166133   5.778   1.082  11.930 -0.6318 -0.5568 -0.5202
14906TIP3    H266134   5.850   1.214  11.946 -0.0278 -1.1277  1.5786
14907TIP3   OH266135   4.225   4.785  11.570 -0.0847  0.0642  0.2118
14907TIP3    H166136   4.147   4.729  11.559 -0.5240  0.5303  0.8844
14907TIP3    H266137   4.298   4.728  11.547 -0.6320 -0.3577 -0.5189
14908TIP3   OH266138   1.355   4.206   3.706  0.8518  0.1700 -0.5720
14908TIP3    H166139   1.307   4.125   3.688 -0.2394  0.8788 -0.8984
14908TIP3    H266140   1.326   4.267   3.638  3.9739 -0.0715 -2.2315
14909TIP3   OH266141   0.280   4.742   5.704  0.0909  0.2041  0.0899
14909TIP3    H166142   0.338   4.794   5.650  0.7295 -0.2141  0.3703
14909TIP3    H266143   0.192   4.759   5.669  0.4245  0.5074 -0.5948
14910TIP3   OH266144   1.079   2.139   2.836  0.3048 -0.3949  0.4224
14910TIP3    H166145   1.158   2.089   2.858 -0.6886 -2.1386  0.0892
14910TIP3    H266146   1.035   2.153   2.920  0.6977  0.1144  0.5436
14911TIP3   OH266147   1.012   4.792   4.079  0.1218  0.2061 -0.0547
14911TIP3    H166148   1.004   4.769   3.986 -1.0051  1.5576 -0.3171
14911TIP3    H266149   1.106   4.787   4.097  0.3901  0.2897 -1.3727
14912TIP3   OH266150   0.946   4.421  13.518 -0.3799 -0.3439 -0.3663
14912TIP3    H166151   0.851   4.404  13.514  0.1936 -3.9823 -0.6710
14912TIP3    H266152   0.959   4.461  13.604 -2.2045  0.2857 -0.3629
14913TIP3   OH266153   1.597   5.437  12.770 -0.1661 -0.0918 -0.0575
14913TIP3    H166154   1.555   5.400  12.848  2.2245 -2.2783  0.2623
14913TIP3    H266155   1.618   5.527  12.796 -0.3632 -0.4626  1.4808
14914TIP3   OH266156   4.852   4.824  14.440 -0.4800  0.4654  0.3009
14914TIP3    H166157   4.789   4.868  14.497 -2.1000 -1.9625  0.4565
14914TIP3    H266158   4.799   4.761  14.391  1.5298 -0.2082 -1.0253
14915TIP3   OH266159   6.519   1.130   1.584 -0.6079 -0.4726  0.0473
14915TIP3    H166160   6.443   1.188   1.579 -0.5552 -0.5084 -1.2435
14915TIP3    H266161   6.593   1.188   1.604 -0.8469 -0.3352  0.5300
14916TIP3   OH266162   6.613   2.587   2.178  0.3862  0.1868  0.4835
14916TIP3    H166163   6.543   2.567   2.115  0.6685  1.3726 -0.2447
14916TIP3    H266164   6.600   2.525   2.249 -1.3579  0.3241  0.3152
14917TIP3   OH266165   3.071   4.929   1.706  0.7433 -0.6804  0.6061
14917TIP3    H166166   3.052   4.981   1.629 -0.9123 -4.5227 -1.7508
14917TIP3    H266167   3.018   4.967   1.776  0.3281  1.2919 -0.7557
14918TIP3   OH266168   1.994   5.644   4.524 -0.0714 -0.5734  0.3046
14918TIP3    H166169   2.085   5.641   4.493 -0.9480 -0.9041 -2.4288
14918TIP3    H266170   1.985   5.730   4.563  0.8178  0.3724 -1.4906
14919TIP3   OH266171   3.263   6.236   3.822  0.0978  0.0403 -0.0156
14919TIP3    H166172   3.354   6.207   3.827  0.8770  2.3373 -0.0393
14919TIP3    H266173   3.212   6.156   3.822  2.1909 -1.3349 -1.4556
14920TIP3   OH266174   3.772   3.602   5.370 -0.4495  0.7303  0.1045
14920TIP3    H166175   3.678   3.596   5.389 -0.1359  0.0270  1.4944
14920TIP3    H266176   3.813   3.545   5.435  0.9895  1.4658 -0.1447
14921TIP3   OH266177   1.586   2.364   5.629  0.2765  0.5541 -0.2428
14921TIP3    H166178   1.606   2.280   5.588  2.8121  1.7008 -1.4250
14921TIP3    H266179   1.597   2.348   5.723  1.2750 -0.2916 -0.5030
14922TIP3   OH266180   3.117   4.708  11.771  0.6234  0.4315 -0.2606
14922TIP3    H166181   3.179   4.746  11.709  0.1023 -0.3026 -1.2440
14922TIP3    H266182   3.096   4.780  11.831  2.2707  0.7353 -0.0270
14923TIP3   OH266183   6.324   1.824  14.375 -0.1811 -0.1573 -0.5772
14923TIP3    H166184   6.361   1.738  14.397 -2.3981 -1.2395 -1.0151
14923TIP3    H266185   6.295   1.816  14.284 -1.6838  0.5945 -0.1840
14924TIP3   OH266186   1.333   1.855  15.964 -0.1434 -0.2139  0.1743
14924TIP3    H166187   1.246   1.817  15.953  0.8118 -2.1770 -0.9517
14924TIP3    H266188   1.352   1.897  15.881  0.8380 -1.6684 -0.3547
14925TIP3   OH266189   5.900   6.015  17.059 -0.3202 -0.0111  0.2055
14925TIP3    H166190   5.954   5.937  17.073  1.2055  0.9783 -0.0062
14925TIP3    H266191   5.928   6.076  17.128 -0.0483  1.0936 -0.8689
14926TIP3   OH266192   4.928   2.060   2.075  0.0492  0.1642  0.4320
14926TIP3    H166193   5.011   2.100   2.051 -1.0034  2.7109  0.8709
14926TIP3    H266194   4.870   2.081   2.002 -0.1986 -1.6900  0.0764
14927TIP3   OH266195   4.240   3.379   4.165  0.4313  0.0181 -0.2852
14927TIP3    H166196   4.185   3.366   4.242  2.1000 -2.9182  0.5026
14927TIP3    H266197   4.305   3.443   4.194  0.4865 -0.3640  0.4576
14928TIP3   OH266198   2.722   5.396   0.437 -0.6557  0.2959 -0.1285
14928TIP3    H166199   2.811   5.392   0.401 -0.4915 -0.5462  0.3649
14928TIP3    H266200   2.723   5.471   0.495 -0.9956  1.8416 -2.0691
14929TIP3   OH266201   2.112   1.917  15.907  0.3695  0.4264  0.4074
14929TIP3    H166202   2.125   1.827  15.878 -0.3857  0.1088  1.0415
14929TIP3    H266203   2.038   1.948  15.854 -0.1222  0.2943  1.0174
14930TIP3   OH266204   1.481   0.940   0.299  0.3104 -0.5047  0.2459
14930TIP3    H166205   1.518   1.016   0.254  1.1589 -0.6159  0.7249
14930TIP3    H266206   1.434   0.977   0.374 -2.2629 -0.2288 -1.4654
14931TIP3   OH266207   2.343   3.055  16.160  0.3220 -0.2923 -0.2517
14931TIP3    H166208   2.406   3.058  16.088  1.2521  0.8898  0.5976
14931TIP3    H266209   2.386   3.002  16.227 -0.1417 -0.5765 -0.1736
14932TIP3   OH266210   5.277   1.448  12.827 -0.3677 -0.0035 -0.1402
14932TIP3    H166211   5.312   1.375  12.777 -0.4432  1.2722 -2.0883
14932TIP3    H266212   5.340   1.460  12.899  0.7101 -0.6852 -0.9600
14933TIP3   OH266213   3.619   1.226  17.126  0.5010  0.2827  0.6631
14933TIP3    H166214   3.656   1.145  17.091 -0.1354 -0.3854  1.5259
14933TIP3    H266215   3.600   1.206  17.217 -1.1281  0.9038  0.4676
14934TIP3   OH266216   3.845   2.035   3.439  0.6260  0.1759 -0.1133
14934TIP3    H166217   3.811   2.113   3.395  1.1243  0.8573  0.7028
14934TIP3    H266218   3.768   1.992   3.474  0.2532 -0.1975 -1.3558
14935TIP3   OH266219   3.943   1.377  10.433  0.4506  0.5283  0.2460
14935TIP3    H166220   3.927   1.459  10.386 -0.0593  1.6732  2.3258
14935TIP3    H266221   4.038   1.371  10.437  0.4947  1.1471  0.2775
14936TIP3   OH266222   5.812   1.345   2.452  0.1912  0.6464  0.7259
14936TIP3    H166223   5.745   1.291   2.410 -0.4800  1.7108  0.4182
14936TIP3    H266224   5.816   1.424   2.399  1.8009  0.5401  0.6684
14937TIP3   OH266225   3.790   3.334   3.025  0.6690 -0.0735 -0.4613
14937TIP3    H166226   3.781   3.408   2.965 -0.5109  0.2106  0.0631
14937TIP3    H266227   3.884   3.333   3.046  0.9173  0.4687 -1.4819
14938TIP3   OH266228   3.200   3.443  14.555 -0.1000 -0.4454 -0.7832
14938TIP3    H166229   3.257   3.437  14.632 -0.9666 -0.5967 -0.1429
14938TIP3    H266230   3.159   3.356  14.550 -1.4694  0.1549 -0.2901
14939TIP3   OH266231   5.594   5.637  12.240  0.0075 -0.0722 -0.5504
14939TIP3    H166232   5.669   5.600  12.287  0.0235 -0.2664 -0.7288
14939TIP3    H266233   5.554   5.563  12.196 -0.7891 -0.1016  0.2121
14940TIP3   OH266234   5.599   3.369   1.887  0.2158  0.6620 -0.4721
14940TIP3    H166235   5.552   3.450   1.869 -1.1514  0.1318  0.6236
14940TIP3    H266236   5.614   3.370   1.981  2.5944  0.8997 -0.8198
14941TIP3   OH266237   6.315   0.072  11.587 -0.0946  0.2535 -0.5768
14941TIP3    H166238   6.387   0.075  11.650  1.1088 -2.3382 -1.7474
14941TIP3    H266239   6.240   0.038  11.637  0.2525  0.3076 -0.0158
14942TIP3   OH266240   5.783   3.396   2.705 -0.1590  0.3113  0.2436
14942TIP3    H166241   5.777   3.469   2.643  2.5309 -0.5400 -1.0815
14942TIP3    H266242   5.704   3.405   2.759 -0.3580  3.6601 -0.4504
14943TIP3   OH266243   4.241   6.450   4.309 -0.6698  0.2620 -0.1697
14943TIP3    H166244   4.248   6.479   4.400 -1.1222  0.3341 -0.1606
14943TIP3    H266245   4.208   6.361   4.315  1.2787 -0.5037 -0.1677
14944TIP3   OH266246   0.513   1.734  15.897  0.4413  0.4838  0.3394
14944TIP3    H166247   0.495   1.827  15.880  0.7793  0.3445 -0.7914
14944TIP3    H266248   0.602   1.721  15.864 -0.3105 -0.6966 -1.2536
14945TIP3   OH266249   3.253   5.955   2.085 -0.3169 -0.4669 -0.1961
14945TIP3    H166250   3.181   5.893   2.072 -3.1369  2.4293  1.0968
14945TIP3    H266251   3.254   5.972   2.179  1.3610  0.4017 -0.3480
14946TIP3   OH266252   1.437   0.662  11.639 -0.3160 -0.2465  0.2004
14946TIP3    H166253   1.503   0.601  11.606 -0.1243  0.4213 -0.6860
14946TIP3    H266254   1.445   0.658  11.734 -0.2910 -1.5828  0.1546
14947TIP3   OH266255   4.318   4.190  13.643 -0.2505 -0.7880 -0.4199
14947TIP3    H166256   4.409   4.159  13.645  0.2755  0.4314 -2.6911
14947TIP3    H266257   4.266   4.114  13.666  1.2541 -2.1541 -1.4091
14948TIP3   OH266258   2.206   1.527  16.368  0.0076  0.1388  0.0054
14948TIP3    H166259   2.167   1.510  16.283  0.1381 -0.6389  0.0965
14948TIP3    H266260   2.275   1.591  16.350 -0.4927  0.5878 -0.3413
14949TIP3   OH266261   2.380   1.593   4.482 -0.2535 -0.2317 -0.4780
14949TIP3    H166262   2.432   1.525   4.525 -0.6586 -0.5661 -0.5166
14949TIP3    H266263   2.438   1.629   4.415  0.3727  0.2778  0.3263
14950TIP3   OH266264   2.480   2.241   2.391 -0.0661 -0.3555 -0.2176
14950TIP3    H166265   2.510   2.309   2.330  0.9783 -0.8127 -0.2349
14950TIP3    H266266   2.410   2.282   2.440  0.7352  0.8331 -0.0383
14951TIP3   OH266267   1.749   4.326  13.939 -0.3623  0.7204  0.5733
14951TIP3    H166268   1.778   4.356  14.026  3.3142  0.6053 -0.5487
14951TIP3    H266269   1.703   4.245  13.957 -1.2136  1.5954  2.5978
14952TIP3   OH266270   0.670   5.505  12.736 -0.9907  0.1952  0.3232
14952TIP3    H166271   0.639   5.596  12.732 -0.5859  0.3572  0.8928
14952TIP3    H266272   0.669   5.483  12.829 -0.1608 -0.0603  0.2762
14953TIP3   OH266273   1.786   0.439   0.899 -0.1716 -0.1905  0.2169
14953TIP3    H166274   1.839   0.475   0.828 -0.5550  0.1622  0.1119
14953TIP3    H266275   1.708   0.494   0.901 -0.2750 -0.3599  0.7463
14954TIP3   OH266276   2.389   5.182   1.288  0.4895 -0.4385  0.1192
14954TIP3    H166277   2.367   5.091   1.308 -1.0642 -0.1752 -0.3151
14954TIP3    H266278   2.399   5.224   1.374 -0.5470 -0.6240  0.3434
14955TIP3   OH266279   4.675   3.275   4.316 -0.2319 -0.1383  0.4546
14955TIP3    H166280   4.712   3.340   4.256  0.9312 -1.0972  0.1133
14955TIP3    H266281   4.593   3.248   4.274 -0.4569  0.7016  0.3385
14956TIP3   OH266282   3.121   5.035  11.555 -0.2909 -0.4505  0.1604
14956TIP3    H166283   3.188   4.970  11.531  1.2569  0.8525  0.8964
14956TIP3    H266284   3.140   5.057  11.646 -0.1406  1.8271 -0.3996
14957TIP3   OH266285   5.455   6.463   2.272 -0.0340 -0.1873 -0.2000
14957TIP3    H166286   5.533   6.507   2.240 -0.5043  0.1026 -0.9717
14957TIP3    H266287   5.449   6.383   2.220  0.8267 -1.2039  1.2063
14958TIP3   OH266288   5.554   0.082   3.197  0.7573  0.2222 -0.5061
14958TIP3    H166289   5.542  -0.011   3.179 -1.0755  0.2063  0.6719
14958TIP3    H266290   5.570   0.121   3.111 -0.9071 -0.8360 -1.3116
14959TIP3   OH266291   5.615   4.475  14.386 -0.4124  0.6595  0.1807
14959TIP3    H166292   5.571   4.451  14.305 -1.0744  2.1930  0.0587
14959TIP3    H266293   5.544   4.506  14.443  0.5962  4.2958 -0.4336
14960TIP3   OH266294   4.475   3.508  14.198  0.1931 -0.4129  0.3656
14960TIP3    H166295   4.570   3.500  14.189 -0.1811 -1.4079 -3.8203
14960TIP3    H266296   4.449   3.429  14.245  1.2752 -0.8602  0.2354
14961TIP3   OH266297   1.454   4.900  14.268 -0.0128 -0.1936  0.3322
14961TIP3    H166298   1.385   4.879  14.206  0.4539  1.4910 -0.7877
14961TIP3    H266299   1.522   4.943  14.215  0.6151  0.8019  1.9070
14962TIP3   OH266300   1.207   0.192  17.119 -0.0323 -0.1434  0.0769
14962TIP3    H166301   1.138   0.191  17.186 -0.2622  1.4434 -0.1180
14962TIP3    H266302   1.163   0.224  17.040  1.0678  1.5560  0.1303
14963TIP3   OH266303   2.156   6.333   6.262 -0.4173  0.6352 -0.0978
14963TIP3    H166304   2.114   6.324   6.347 -1.6349  0.3573 -0.7070
14963TIP3    H266305   2.240   6.288   6.271 -0.7212  0.2498  0.8301
14964TIP3   OH266306   1.943   0.741   1.030 -0.2101  0.4205 -0.2147
14964TIP3    H166307   1.984   0.657   1.014 -2.5343 -1.3313  2.5502
14964TIP3    H266308   1.920   0.774   0.942  2.1203 -1.0240 -1.4109
14965TIP3   OH266309   6.708   2.078  14.935  0.0234 -0.2632 -0.0218
14965TIP3    H166310   6.775   2.092  14.869  0.9702  1.5358  1.2665
14965TIP3    H266311   6.743   2.118  15.014 -1.8266 -0.8271  1.1304
14966TIP3   OH266312   3.499   2.425   5.745  0.4544 -0.0178 -0.8327
14966TIP3    H166313   3.436   2.419   5.817 -1.1885 -1.0021 -2.3214
14966TIP3    H266314   3.514   2.519   5.733 -0.6503  0.2148 -0.3972
14967TIP3   OH266315   4.844   2.583  14.821 -0.0335  0.3906  0.2656
14967TIP3    H166316   4.898   2.577  14.900 -0.0248  0.1480  0.2418
14967TIP3    H266317   4.904   2.617  14.754  0.3148 -0.6499  0.0344
14968TIP3   OH266318   3.400   5.913  12.080 -0.0430 -0.1892  0.0954
14968TIP3    H166319   3.431   5.893  12.168 -2.1894  2.0113  1.3922
14968TIP3    H266320   3.439   5.998  12.059 -1.9196  0.7150  0.1520
14969TIP3   OH266321   3.865   1.728   0.416  0.1270  0.3173 -0.4361
14969TIP3    H166322   3.797   1.782   0.377 -1.8625 -1.2199  0.8301
14969TIP3    H266323   3.890   1.667   0.346  0.1588  0.8148 -0.8640
14970TIP3   OH266324   1.976   1.518   5.705 -0.8130 -0.2358 -0.4508
14970TIP3    H166325   2.004   1.607   5.725 -1.7813 -0.0285  0.0236
14970TIP3    H266326   2.005   1.503   5.615 -0.8773  0.6500 -0.6205
14971TIP3   OH266327   6.180   3.434   5.125  0.2059 -0.2574  0.1240
14971TIP3    H166328   6.157   3.392   5.042 -3.3504 -0.6374  1.2094
14971TIP3    H266329   6.128   3.388   5.191  1.7172  1.1283  2.3596
14972TIP3   OH266330   2.632   1.793  10.837 -0.0383 -0.0517  0.2837
14972TIP3    H166331   2.559   1.839  10.795  0.4284 -0.7122 -1.2832
14972TIP3    H266332   2.616   1.700  10.818  1.2417 -0.1965 -0.1628
14973TIP3   OH266333   4.406   1.868  14.273  0.9164 -0.4612  1.0488
14973TIP3    H166334   4.381   1.885  14.364  0.5343  1.0169  0.6851
14973TIP3    H266335   4.451   1.948  14.245 -1.1636  0.1197 -0.8125
14974TIP3   OH266336   0.051   1.682  11.370 -0.2982  0.1524  0.3119
14974TIP3    H166337   0.115   1.685  11.300  1.0676 -0.0788  1.5306
14974TIP3    H266338   0.084   1.742  11.436 -0.6768 -0.9129  1.4973
14975TIP3   OH266339   1.218   5.821   0.409 -0.1574 -0.1907  0.2689
14975TIP3    H166340   1.248   5.756   0.473 -0.8533 -0.2260  0.5635
14975TIP3    H266341   1.228   5.778   0.324 -1.1785 -0.9058  0.5069
14976TIP3   OH266342   1.396   0.670  12.284 -0.0014  0.1373 -0.2937
14976TIP3    H166343   1.428   0.759  12.271  1.3902 -0.4092 -0.6472
14976TIP3    H266344   1.442   0.617  12.219 -0.6405 -0.8884  0.0672
14977TIP3   OH266345   5.554   0.092  16.489  0.3775  0.3243 -0.1133
14977TIP3    H166346   5.569   0.013  16.437  0.2236  0.4461 -0.3422
14977TIP3    H266347   5.564   0.063  16.580 -0.4675 -0.1421 -0.1613
14978TIP3   OH266348   1.743   3.244  13.460 -0.1288  0.0565  0.7791
14978TIP3    H166349   1.759   3.154  13.431  0.8585  0.9103 -1.4663
14978TIP3    H266350   1.795   3.253  13.540  3.2642 -0.1201 -1.2892
14979TIP3   OH266351   0.697   6.710  11.361 -0.1910 -0.0985 -0.6470
14979TIP3    H166352   0.648   6.645  11.311  0.3981 -1.5112  0.5673
14979TIP3    H266353   0.767   6.661  11.403  0.1851  1.2974  0.4202
14980TIP3   OH266354   3.101   4.505   1.255  0.0368  0.6623  0.2950
14980TIP3    H166355   3.070   4.466   1.173 -1.1145  0.4445  0.8174
14980TIP3    H266356   3.184   4.547   1.232  0.0494  0.0457 -0.8335
14981TIP3   OH266357   0.506   2.654   0.145  0.3991  0.8040 -0.4002
14981TIP3    H166358   0.510   2.580   0.205 -1.1500  0.6808 -0.4137
14981TIP3    H266359   0.548   2.726   0.192  0.1197  0.4357  0.4142
14982TIP3   OH266360   5.660   2.995   0.377  0.1100 -0.2664 -0.3721
14982TIP3    H166361   5.608   2.923   0.414  0.4570 -0.0330  0.5765
14982TIP3    H266362   5.748   2.980   0.410 -0.0835  1.3444  0.9164
14983TIP3   OH266363   1.018   0.302  13.731 -0.2516  0.2524 -0.4862
14983TIP3    H166364   0.946   0.365  13.737 -0.9364 -0.4290 -1.4962
14983TIP3    H266365   1.012   0.268  13.642  0.0853 -1.2937  0.0809
14984TIP3   OH266366   3.261   4.473   4.357  0.1101 -0.3611 -0.1444
14984TIP3    H166367   3.222   4.394   4.394 -2.2477  1.7175  2.0168
14984TIP3    H266368   3.305   4.515   4.431 -1.8023  2.1753 -0.3586
14985TIP3   OH266369   6.304   3.801  16.688 -0.3892  0.4979  0.1318
14985TIP3    H166370   6.331   3.734  16.624 -0.3796  0.3724  0.2684
14985TIP3    H266371   6.358   3.783  16.765 -1.2656 -0.1152  0.6186
14986TIP3   OH266372   0.218   3.378   1.136  0.3054 -0.1167  0.2830
14986TIP3    H166373   0.150   3.346   1.195 -1.3066  0.4791 -1.2345
14986TIP3    H266374   0.196   3.470   1.123  2.7672  0.7248  1.6424
14987TIP3   OH266375   6.160   2.959   5.122 -0.7697 -0.3271 -0.5888
14987TIP3    H166376   6.248   2.931   5.146 -0.7558 -0.7694 -1.1513
14987TIP3    H266377   6.171   3.051   5.098 -0.3469 -0.5355 -1.2287
14988TIP3   OH266378   1.397   6.634   0.008 -0.5114 -0.3727  0.7118
14988TIP3    H166379   1.408   6.660  -0.083 -2.2707 -0.2293  0.5250
14988TIP3    H266380   1.486   6.637   0.045  0.0002  1.0961 -0.5804
14989TIP3   OH266381   3.173   3.150   2.212  0.0625  0.6456 -0.1652
14989TIP3    H166382   3.097   3.196   2.247  0.6035 -0.4652  2.5818
14989TIP3    H266383   3.136   3.090   2.147 -1.2220  1.1504  0.0758
14990TIP3   OH266384   0.029   3.928  12.259  0.4359  0.2251  0.9445
14990TIP3    H166385   0.031   3.845  12.307  2.8165 -0.4325 -0.2122
14990TIP3    H266386   0.099   3.920  12.194  0.4628  2.9997  0.5756
14991TIP3   OH266387   2.922   5.330  13.621 -0.4055 -0.3992  0.3773
14991TIP3    H166388   2.895   5.421  13.627  0.8444 -0.0953  1.5707
14991TIP3    H266389   2.993   5.330  13.557  0.5333 -0.2967  1.3972
14992TIP3   OH266390   5.230   0.729   2.386  0.0199 -0.1024 -0.0667
14992TIP3    H166391   5.152   0.785   2.386 -1.3597 -1.9351 -0.9290
14992TIP3    H266392   5.248   0.713   2.294 -0.1024 -1.6969  0.1652
14993TIP3   OH266393   2.862   1.114   0.616  0.4376  0.2165 -0.5539
14993TIP3    H166394   2.812   1.186   0.654 -1.5444 -2.1460  1.5067
14993TIP3    H266395   2.924   1.089   0.685  0.2142 -0.9012 -0.7541
14994TIP3   OH266396   6.083   0.637   0.107 -0.1274 -0.0637  0.8608
14994TIP3    H166397   6.144   0.582   0.156 -1.1695 -1.4429  0.6472
14994TIP3    H266398   6.038   0.688   0.174  1.2685  0.9913  1.0164
14995TIP3   OH266399   4.552   4.438   3.569 -0.4798 -0.0622 -0.2378
14995TIP3    H166400   4.638   4.414   3.602 -0.6255  0.3075  0.4315
14995TIP3    H266401   4.561   4.438   3.474  0.2258 -0.1471 -0.1706
14996TIP3   OH266402   5.211   3.813  13.413  0.0309 -0.1441 -0.5844
14996TIP3    H166403   5.119   3.819  13.385  0.6546  0.5165 -2.5502
14996TIP3    H266404   5.231   3.899  13.451 -1.0635 -1.3012  2.8791
14997TIP3   OH266405   6.559   0.841   4.963 -0.0740  0.4070 -0.0369
14997TIP3    H166406   6.542   0.747   4.968  0.9190  0.1283 -1.3659
14997TIP3    H266407   6.602   0.852   4.878  1.9314  1.7209  1.1142
14998TIP3   OH266408   1.096   3.312  13.895 -0.2260  0.3295  0.6520
14998TIP3    H166409   1.131   3.263  13.969 -0.2695  0.2681  0.6325
14998TIP3    H266410   1.001   3.307  13.906 -0.2954 -1.7877 -0.7888
14999TIP3   OH266411   1.973   3.757   5.093 -0.2744  0.1935  0.0960
14999TIP3    H166412   1.981   3.851   5.077 -0.9334  0.1734 -0.3928
14999TIP3    H266413   1.880   3.743   5.108  0.1061 -0.0667  2.3699
15000TIP3   OH266414   6.677   6.248  13.710 -0.2951 -0.6491 -0.0188
15000TIP3    H166415   6.729   6.288  13.641 -1.9591  0.3735 -0.7090
15000TIP3    H266416   6.690   6.154  13.700  0.5769 -0.4330 -0.8354
15001TIP3   OH266417   1.322   4.145   1.500 -0.0666 -0.1308  0.1601
15001TIP3    H166418   1.287   4.071   1.550  0.6111  0.9544  2.3071
15001TIP3    H266419   1.377   4.105   1.433 -1.7773 -1.6628 -0.3731
15002TIP3   OH266420   4.603   0.320   2.073 -0.2715 -0.3556  0.4826
15002TIP3    H166421   4.572   0.400   2.116  2.0844  0.7274  0.2442
15002TIP3    H266422   4.565   0.249   2.125  0.0593  0.9390  2.5551
15003TIP3   OH266423   2.043   5.612  16.658 -0.1384  0.2816  0.4456
15003TIP3    H166424   1.994   5.554  16.717 -1.0735 -0.1530 -0.7334
15003TIP3    H266425   1.980   5.679  16.633  0.6584  1.2591  1.0236
15004TIP3   OH266426   6.095   1.393   4.483 -0.4597  0.0110 -0.2497
15004TIP3    H166427   6.140   1.375   4.565  0.0688 -1.1397 -0.7919
15004TIP3    H266428   6.048   1.312   4.462  1.1760 -0.4628 -2.2039
15005TIP3   OH266429   3.970   6.619   1.081 -0.4373 -0.3614  0.0520
15005TIP3    H166430   3.941   6.529   1.066 -1.1112 -0.1353  0.0045
15005TIP3    H266431   3.896   6.661   1.125 -1.3482  1.0225 -2.7141
15006TIP3   OH266432   1.130   4.484  12.394 -0.4428  0.1029 -0.5274
15006TIP3    H166433   1.104   4.492  12.303 -0.7599  0.7909 -0.3724
15006TIP3    H266434   1.164   4.570  12.418 -0.3668 -0.0708  0.0091
15007TIP3   OH266435   6.685   2.047  12.196 -0.4585 -0.1424 -0.7206
15007TIP3    H166436   6.704   2.122  12.252 -0.6877 -0.3852 -0.3204
15007TIP3    H266437   6.733   2.065  12.115 -1.5769  1.0701 -1.1170
15008TIP3   OH266438   3.354   1.032   4.962  0.8247 -0.9160  0.5047
15008TIP3    H166439   3.265   0.996   4.959  0.8138 -1.1907  2.9184
15008TIP3    H266440   3.409   0.966   4.921 -0.2738 -0.0510 -2.4547
15009TIP3   OH266441   3.709   0.066  15.169 -0.2471  0.2553 -0.1230
15009TIP3    H166442   3.641   0.131  15.150  0.6203  0.7302 -1.7530
15009TIP3    H266443   3.771   0.113  15.224  0.7236  1.0698 -1.8496
15010TIP3   OH266444   2.356   4.936  11.010 -0.4565  0.1026  0.3372
15010TIP3    H166445   2.373   4.998  10.939 -0.9166  2.7866  2.4511
15010TIP3    H266446   2.261   4.923  11.009 -0.5577  0.7608  0.9235
15011TIP3   OH266447   3.944   1.220   3.540  0.1010 -0.3809 -0.0723
15011TIP3    H166448   3.908   1.305   3.516 -0.2171 -0.2401  0.8874
15011TIP3    H266449   4.037   1.226   3.517  0.0045  0.0944 -0.3449
15012TIP3   OH266450   3.420   5.464   0.252 -0.2216 -0.5071 -0.5502
15012TIP3    H166451   3.500   5.431   0.292  0.0002 -0.5358 -1.0099
15012TIP3    H266452   3.448   5.497   0.166 -1.0821 -2.7616 -1.7431
15013TIP3   OH266453   0.438   6.337  13.935  0.1297 -0.0693 -0.3296
15013TIP3    H166454   0.456   6.298  14.020 -0.1699  0.3305 -0.0851
15013TIP3    H266455   0.405   6.425  13.954 -0.2596 -0.0981 -0.8408
15014TIP3   OH266456   4.677   4.290   0.797 -0.2823 -1.1724  0.0459
15014TIP3    H166457   4.651   4.345   0.871  1.7730  0.7523 -0.6000
15014TIP3    H266458   4.616   4.314   0.727 -0.2032 -0.6299  0.1605
15015TIP3   OH266459   5.983   5.195  12.395  0.4084 -0.8073  0.2766
15015TIP3    H166460   5.944   5.143  12.325  0.1159 -1.1318  0.6837
15015TIP3    H266461   5.926   5.272  12.403 -1.3611 -2.2950  2.3060
15016TIP3   OH266462   6.676   0.975  13.121 -0.1185  0.4194  0.1994
15016TIP3    H166463   6.694   1.060  13.080 -1.9841  0.4838 -0.5272
15016TIP3    H266464   6.757   0.953  13.167  0.5924  2.3047 -0.1102
15017TIP3   OH266465   3.414   4.349  11.602 -0.3038  0.6111  0.1747
15017TIP3    H166466   3.376   4.324  11.518 -0.9132 -0.0527  0.6395
15017TIP3    H266467   3.484   4.285  11.617 -0.0167  0.8934  0.0469
15018TIP3   OH266468   2.051   3.964   3.923 -0.2868  0.4196 -0.4981
15018TIP3    H166469   1.984   3.906   3.958  0.4198 -1.1096 -1.5819
15018TIP3    H266470   2.091   3.913   3.852  0.7873  1.9993 -1.0483
15019TIP3   OH266471   2.790   3.125   5.059 -0.3883  0.2510  0.1181
15019TIP3    H166472   2.768   3.117   5.152  0.7379  0.8765  0.4490
15019TIP3    H266473   2.881   3.098   5.053  0.1711  2.1501 -0.4606
15020TIP3   OH266474   3.832   3.043   2.871  0.1101  0.1714  0.1799
15020TIP3    H166475   3.917   3.070   2.904  0.2534 -0.7660  0.6014
15020TIP3    H266476   3.826   2.950   2.893 -0.7558  0.0804 -0.4048
15021TIP3   OH266477   4.796   4.784  15.095  0.3870 -0.1219 -0.2315
15021TIP3    H166478   4.870   4.834  15.129 -0.3789  1.7874 -1.2779
15021TIP3    H266479   4.720   4.839  15.112 -0.4372 -0.7475 -1.7352
15022TIP3   OH266480   6.667   6.697   5.171  0.0620  0.5700 -0.9458
15022TIP3    H166481   6.747   6.675   5.219 -0.6972 -0.1723  0.0009
15022TIP3    H266482   6.629   6.770   5.219  0.6612  1.5741 -1.9617
15023TIP3   OH266483   5.345   6.454  13.194  0.3350  0.1074  0.4756
15023TIP3    H166484   5.400   6.524  13.227  0.4651  0.7083 -0.9822
15023TIP3    H266485   5.318   6.405  13.272  0.7564  1.3928  1.4327
15024TIP3   OH266486   3.773   2.496   5.944 -0.1125  0.4313 -0.2499
15024TIP3    H166487   3.752   2.408   5.912  0.3082  0.1355  0.2819
15024TIP3    H266488   3.839   2.529   5.884 -0.9158  0.7409 -0.9836
15025TIP3   OH266489   5.744   5.193   5.579  0.1528  0.2200  0.1241
15025TIP3    H166490   5.705   5.230   5.500 -2.1280  0.3938  1.2995
15025TIP3    H266491   5.828   5.238   5.587 -0.5675  1.8048 -0.9811
15026TIP3   OH266492   4.491   4.216  11.488 -0.3610 -0.0416  0.2495
15026TIP3    H166493   4.450   4.138  11.527  0.6650 -0.5989  0.2379
15026TIP3    H266494   4.551   4.247  11.555  0.4117 -0.2033 -0.3629
15027TIP3   OH266495   2.417   6.553   0.268 -0.3241 -0.6223 -0.4674
15027TIP3    H166496   2.463   6.513   0.194  0.2889 -1.1038  0.1541
15027TIP3    H266497   2.444   6.500   0.344  0.1719  0.7184  0.3137
15028TIP3   OH266498   4.087   1.056   5.169  0.2088  0.2545 -0.0743
15028TIP3    H166499   4.044   1.089   5.090  0.6685 -0.3959 -0.6047
15028TIP3    H266500   4.159   1.002   5.136 -0.1874 -0.8153  0.7727
15029TIP3   OH266501   0.006   4.461   1.008  0.0415 -0.3147 -0.3268
15029TIP3    H166502   0.022   4.398   0.937  3.6980  0.4563 -0.2778
15029TIP3    H266503   0.039   4.417   1.087  0.5624  0.7620  0.0715
15030TIP3   OH266504   3.333   2.134   3.861  0.4912 -0.5312  0.4747
15030TIP3    H166505   3.325   2.201   3.792 -0.2802 -0.8211  0.2685
15030TIP3    H266506   3.417   2.152   3.902  0.9327 -0.3080 -0.5033
15031TIP3   OH266507   3.895   3.431   5.579 -0.2683 -0.0526 -0.5851
15031TIP3    H166508   3.933   3.421   5.666 -1.3226  2.9193  0.2775
15031TIP3    H266509   3.956   3.387   5.520  0.0532 -2.8485  1.6971
15032TIP3   OH266510   1.986   3.168  14.715  0.4638 -0.5144 -0.2523
15032TIP3    H166511   2.031   3.249  14.692 -2.4670  0.7412 -1.8831
15032TIP3    H266512   2.035   3.100  14.670  2.8492  0.3210  0.9625
15033TIP3   OH266513   3.931   1.463  16.445  0.4462  0.3179 -0.3760
15033TIP3    H166514   3.887   1.532  16.396 -0.4414 -1.4463 -2.1875
15033TIP3    H266515   3.863   1.423  16.498  1.0161  0.9996  0.8832
15034TIP3   OH266516   6.089   4.912  15.703 -0.0848 -0.0665 -0.8266
15034TIP3    H166517   6.090   4.931  15.797 -2.1719  3.1055 -1.3712
15034TIP3    H266518   6.167   4.957  15.669  0.5178 -0.9812 -0.6576
15035TIP3   OH266519   6.440   4.172  16.011  0.6629  0.0092 -0.6491
15035TIP3    H166520   6.465   4.082  15.989  1.7595 -0.1035  0.9482
15035TIP3    H266521   6.403   4.207  15.930  1.3714 -1.4701 -1.6464
15036TIP3   OH266522   5.142   5.560  11.965 -0.2697  0.3365  0.3119
15036TIP3    H166523   5.171   5.535  12.053  0.4296 -0.2278 -0.0782
15036TIP3    H266524   5.046   5.560  11.971 -0.2667 -1.2350  0.6702
15037TIP3   OH266525   4.844   2.378  11.272  0.1707 -0.0036 -0.5287
15037TIP3    H166526   4.929   2.415  11.250  0.5218 -0.6516 -0.3096
15037TIP3    H266527   4.785   2.453  11.278  0.6015  0.3946 -1.2432
15038TIP3   OH266528   2.154   4.130   5.019 -0.8687  0.8061 -0.2377
15038TIP3    H166529   2.066   4.117   4.983 -0.3563 -1.1563 -0.8651
15038TIP3    H266530   2.206   4.060   4.979  0.9664  1.9132  0.1701
15039TIP3   OH266531   4.691   4.231  12.903 -0.0963  0.2955  0.5194
15039TIP3    H166532   4.746   4.168  12.856 -0.1744 -2.3186  3.7813
15039TIP3    H266533   4.705   4.211  12.995 -1.0318  4.3543  1.6604
15040TIP3   OH266534   0.945   2.547   3.656  0.0737 -0.6881  0.8843
15040TIP3    H166535   0.968   2.586   3.740  0.0113  1.0822  0.1021
15040TIP3    H266536   0.983   2.459   3.659  0.3464 -0.5227  2.6243
15041TIP3   OH266537   4.965   4.983  11.370 -0.0215  0.3968  0.1846
15041TIP3    H166538   5.049   5.011  11.333 -0.1760 -0.2662 -0.6705
15041TIP3    H266539   4.899   5.015  11.309 -0.3349  0.1383  0.3834
15042TIP3   OH266540   5.559   6.279   3.748 -0.8603 -0.1026  0.0925
15042TIP3    H166541   5.494   6.348   3.739 -1.1921 -0.1780  1.7087
15042TIP3    H266542   5.530   6.228   3.824  1.1204 -0.0799  0.9111
15043TIP3   OH266543   4.108   6.234  14.183 -0.0208  0.4391  0.0535
15043TIP3    H166544   4.138   6.195  14.266 -0.9734  0.9287  0.6403
15043TIP3    H266545   4.034   6.180  14.157 -1.1640  1.6530  0.7189
15044TIP3   OH266546   4.653   0.896   2.202  0.3092 -0.2616 -0.2161
15044TIP3    H166547   4.605   0.919   2.123  0.0580 -1.0346 -0.2910
15044TIP3    H266548   4.586   0.874   2.266  0.5355 -0.4992 -0.0581
15045TIP3   OH266549   0.780   6.593  16.488  0.0831 -0.3242  0.3582
15045TIP3    H166550   0.864   6.567  16.448  0.7396  0.0767  1.4501
15045TIP3    H266551   0.741   6.653  16.424  0.3804 -0.9243 -0.3983
15046TIP3   OH266552   0.898   5.164  16.296 -0.2869 -0.2051  0.2989
15046TIP3    H166553   0.925   5.235  16.355 -0.2669 -0.5858  0.7522
15046TIP3    H266554   0.921   5.084  16.343  1.7308 -0.5197 -1.1567
15047TIP3   OH266555   4.418   3.275   3.049  0.1508  0.2054  0.3857
15047TIP3    H166556   4.411   3.216   3.125  2.8249  0.1317  0.6483
15047TIP3    H266557   4.510   3.303   3.050  0.4423 -0.3490 -3.2406
15048TIP3   OH266558   1.365   4.497  14.250  0.4331  0.0717 -0.0938
15048TIP3    H166559   1.304   4.532  14.315 -0.4248  0.8225 -1.2716
15048TIP3    H266560   1.309   4.449  14.189  1.1536 -0.0883 -0.6308
15049TIP3   OH266561   0.711   1.652   0.773  0.5864 -0.9662  0.4072
15049TIP3    H166562   0.782   1.646   0.838  2.3110 -3.0703 -1.5909
15049TIP3    H266563   0.751   1.695   0.698 -0.7694 -0.6032 -0.1213
15050TIP3   OH266564   1.904   3.118   4.738 -0.3895 -0.3173 -0.7277
15050TIP3    H166565   1.998   3.138   4.735 -0.2884 -0.5103  0.7838
15050TIP3    H266566   1.890   3.081   4.825 -2.0176  0.3963 -0.6742
15051TIP3   OH266567   3.787   4.896   2.925  0.2163 -0.7468  0.4577
15051TIP3    H166568   3.786   4.991   2.923  0.6930 -0.7481  0.2344
15051TIP3    H266569   3.696   4.872   2.942 -0.1145 -0.2796 -0.5863
15052TIP3   OH266570   3.945   3.862  12.722  0.2272  0.7196 -0.3957
15052TIP3    H166571   3.907   3.941  12.683 -0.2508 -0.0848 -1.5809
15052TIP3    H266572   3.994   3.821  12.651  0.4332 -0.0797  0.1978
15053TIP3   OH266573   0.991   0.155   2.392 -0.6350  0.2822 -0.3453
15053TIP3    H166574   0.934   0.136   2.466 -0.1043 -0.5596 -0.1486
15053TIP3    H266575   1.068   0.196   2.431 -0.2681 -0.3417 -0.3986
15054TIP3   OH266576   6.747   1.978   5.067 -0.3320  0.5859  0.1218
15054TIP3    H166577   6.797   1.959   5.146  0.5163  0.4373 -0.4465
15054TIP3    H266578   6.813   1.999   5.001 -1.0315  0.6840 -0.5579
15055TIP3   OH266579   3.308   0.376  13.237  0.2275 -0.3455 -0.7000
15055TIP3    H166580   3.293   0.436  13.164 -2.2684 -1.1103 -0.8649
15055TIP3    H266581   3.250   0.409  13.306  1.1816 -0.7345  0.3045
15056TIP3   OH266582   3.288   2.858  17.012  0.1664 -0.8718 -0.1818
15056TIP3    H166583   3.199   2.829  16.991  0.0612 -0.5077 -0.2324
15056TIP3    H266584   3.327   2.878  16.927  0.3203 -1.0950 -0.1624
15057TIP3   OH266585   0.836   0.040   0.709  0.4098 -0.2732  0.4661
15057TIP3    H166586   0.920   0.087   0.712  0.2894  0.0614 -0.9973
15057TIP3    H266587   0.795   0.059   0.793  0.3561  2.2692 -0.0910
15058TIP3   OH266588   2.852   3.790   0.541 -0.1798  0.2813 -0.0584
15058TIP3    H166589   2.827   3.832   0.458  2.1629  1.0098 -0.4127
15058TIP3    H266590   2.858   3.697   0.520 -0.8020  0.3064 -0.3817
15059TIP3   OH266591   4.639   6.142  11.750  0.3253  0.3845  0.4580
15059TIP3    H166592   4.658   6.233  11.773  1.5672  0.4468 -0.7203
15059TIP3    H266593   4.724   6.099  11.752  0.5535  0.3771 -3.7701
15060TIP3   OH266594   0.996   4.773  16.469 -0.3209 -0.2193 -0.1705
15060TIP3    H166595   0.933   4.706  16.498  0.2029 -1.0585 -0.9682
15060TIP3    H266596   0.956   4.856  16.497 -0.8377 -0.8756  1.0875
15061TIP3   OH266597   6.490   0.493  11.092  0.2555 -0.0323 -0.7926
15061TIP3    H166598   6.555   0.471  11.160 -1.4622  2.1912  1.6979
15061TIP3    H266599   6.540   0.539  11.025  1.3139  1.5584  1.0448
15062TIP3   OH266600   5.123   1.639  15.426  0.1885 -0.3103 -0.6230
15062TIP3    H166601   5.096   1.606  15.341 -2.0326  4.2690 -1.8435
15062TIP3    H266602   5.043   1.637  15.479  0.7106  0.2519  0.1977
15063TIP3   OH266603   5.576   2.614   0.794 -0.7807  0.0991 -0.3029
15063TIP3    H166604   5.556   2.589   0.704 -1.0710 -0.8321  0.0060
15063TIP3    H266605   5.626   2.539   0.828 -0.8628  0.3487  0.3737
15064TIP3   OH266606   2.110   2.026  14.970 -0.4226 -0.3889 -0.6516
15064TIP3    H166607   2.177   1.966  15.005 -1.1323 -0.9946 -0.3062
15064TIP3    H266608   2.055   2.046  15.046  0.2526  1.3214 -0.5934
15065TIP3   OH266609   5.084   1.573  13.444  0.8016  0.4470 -0.7085
15065TIP3    H166610   5.134   1.557  13.364 -0.7099 -0.4135 -1.5097
15065TIP3    H266611   5.137   1.533  13.513  1.6980  0.4195 -1.4021
15066TIP3   OH266612   1.377   1.709   4.424  0.3484  0.1251  0.6582
15066TIP3    H166613   1.462   1.664   4.421  1.2291  1.7402  0.8226
15066TIP3    H266614   1.348   1.711   4.333  1.5249  1.4891  0.3031
15067TIP3   OH266615   3.707   4.968  12.753 -0.2593  0.0411  0.3721
15067TIP3    H166616   3.634   4.973  12.815  0.2618 -0.5623  1.0570
15067TIP3    H266617   3.680   4.901  12.690 -0.9959  1.0001 -0.3271
15068TIP3   OH266618   0.647   0.037  17.228 -0.4678  0.3869  0.1818
15068TIP3    H166619   0.571  -0.021  17.225  0.0520 -0.2964 -0.0205
15068TIP3    H266620   0.680   0.027  17.318 -0.9896  1.1763  0.4673
15069TIP3   OH266621   0.727   6.044   6.086 -0.3054  0.3130  0.1403
15069TIP3    H166622   0.702   6.125   6.041  0.9254  1.3269  1.2409
15069TIP3    H266623   0.708   6.062   6.178 -0.5830 -0.8796  0.3178
15070TIP3   OH266624   0.316   5.008  13.873 -0.2676  0.6913 -0.2327
15070TIP3    H166625   0.247   5.008  13.807  0.1816 -0.2068 -0.6990
15070TIP3    H266626   0.336   5.101  13.886 -0.7857  0.9022 -0.9072
15071TIP3   OH266627   2.503   3.303   0.822  0.0952  0.1642 -0.8550
15071TIP3    H166628   2.567   3.236   0.798  0.5176 -0.1044  0.9640
15071TIP3    H266629   2.519   3.320   0.915 -2.0842  0.5117 -0.5072
15072TIP3   OH266630   5.100   2.036   1.681 -0.1535 -0.5779  0.6714
15072TIP3    H166631   5.188   2.012   1.652 -0.0099  0.1364  0.5173
15072TIP3    H266632   5.114   2.083   1.764 -0.3589 -0.0724  0.4185
15073TIP3   OH266633   2.829   1.114  11.779 -0.0738  0.2089  0.0952
15073TIP3    H166634   2.888   1.169  11.830  1.3833  1.7356 -3.0473
15073TIP3    H266635   2.781   1.176  11.723 -2.7405 -1.2486  0.6835
15074TIP3   OH266636   6.420   3.572  15.730  0.5871  0.7004 -0.6208
15074TIP3    H166637   6.390   3.553  15.819  1.0933 -0.9168 -0.7934
15074TIP3    H266638   6.497   3.628  15.743 -0.5433  2.1832 -0.1114
15075TIP3   OH266639   4.269   4.739   0.695  0.8117 -0.3499  0.0254
15075TIP3    H166640   4.182   4.737   0.654  1.0164  1.9287 -0.5701
15075TIP3    H266641   4.330   4.747   0.621  1.4810 -1.0790  0.4924
15076TIP3   OH266642   4.819   0.530   3.774  0.2746  0.4563  0.5072
15076TIP3    H166643   4.727   0.520   3.750  0.0066  0.9400  1.3182
15076TIP3    H266644   4.823   0.504   3.866  1.2712 -1.2537  0.0073
15077TIP3   OH266645   3.689   0.625   5.003 -0.1631  0.2255  0.4272
15077TIP3    H166646   3.710   0.716   5.025 -1.1267  0.0232  2.3307
15077TIP3    H266647   3.772   0.578   5.016  0.0911  0.6744  0.4397
15078TIP3   OH266648   3.040   1.522  14.647  0.6772  0.0416  0.6096
15078TIP3    H166649   2.976   1.522  14.576  1.5661 -0.9095 -0.2160
15078TIP3    H266650   3.003   1.580  14.713 -0.0430  1.1435 -0.7407
15079TIP3   OH266651   3.020   1.775   0.540 -0.2923  0.1025  0.2937
15079TIP3    H166652   3.059   1.785   0.454  1.0670 -0.7634  0.7941
15079TIP3    H266653   3.060   1.844   0.593 -1.1618  0.6659  0.2275
15080TIP3   OH266654   1.160   6.080  16.791 -0.2697  0.1101  0.0102
15080TIP3    H166655   1.091   6.033  16.743 -0.2014  0.9692 -0.9442
15080TIP3    H266656   1.137   6.068  16.883 -0.4049 -1.5586 -0.2348
15081TIP3   OH266657   4.911   5.759   2.246  0.1248  0.0778  0.9172
15081TIP3    H166658   4.877   5.803   2.324 -0.4782 -0.9164  1.2325
15081TIP3    H266659   5.003   5.785   2.241 -0.0601  0.8445  1.4572
15082TIP3   OH266660   3.412   1.277  14.554 -0.0218 -0.2429  0.8302
15082TIP3    H166661   3.470   1.292  14.628 -0.4635 -1.4796  1.4424
15082TIP3    H266662   3.465   1.297  14.477  0.8742 -0.3002  1.4325
15083TIP3   OH266663   4.159   0.982  12.681  0.2778 -0.0778 -0.6310
15083TIP3    H166664   4.169   0.955  12.590 -2.2144 -1.1967 -0.6222
15083TIP3    H266665   4.065   0.993  12.693  0.6843  1.7199  1.3693
15084TIP3   OH266666   5.461   1.722   5.148 -0.0738  0.2652  0.6558
15084TIP3    H166667   5.420   1.637   5.162  1.8564 -0.6279  1.0932
15084TIP3    H266668   5.389   1.785   5.150 -1.3952 -1.2560  1.3377
15085TIP3   OH266669   6.120   6.350  15.738 -0.5092  0.6973 -0.1318
15085TIP3    H166670   6.147   6.344  15.829 -0.3775 -0.4120 -0.2420
15085TIP3    H266671   6.024   6.340  15.741 -0.3546 -0.9754 -0.2531
15086TIP3   OH266672   3.987   6.080  10.647 -0.1979  0.5766 -0.1473
15086TIP3    H166673   3.955   6.013  10.708 -1.3380  0.7208 -0.5877
15086TIP3    H266674   4.037   6.031  10.582  0.1334  0.3112  0.2976
15087TIP3   OH266675   3.939   6.548   4.028  0.3843 -0.3544 -0.5652
15087TIP3    H166676   3.876   6.545   3.957 -0.6587  0.7737  0.2827
15087TIP3    H266677   4.007   6.487   4.003 -0.4977 -0.7512 -2.0277
15088TIP3   OH266678   4.312   2.664  13.997  0.1255  0.4632  0.0415
15088TIP3    H166679   4.261   2.728  14.046  0.1458  0.9686 -0.5910
15088TIP3    H266680   4.266   2.655  13.913 -0.5013 -1.1802  0.5492
15089TIP3   OH266681   4.601   3.486  12.156  0.6583  0.0061 -0.4121
15089TIP3    H166682   4.589   3.414  12.217 -1.4644 -0.5165 -1.3681
15089TIP3    H266683   4.643   3.447  12.079 -0.0082 -0.1166 -0.7204
15090TIP3   OH266684   2.308   4.643   0.810 -0.5060 -0.3259 -0.3608
15090TIP3    H166685   2.315   4.640   0.715 -0.6520  0.0615 -0.3859
15090TIP3    H266686   2.376   4.583   0.841 -1.5930 -1.7710 -0.7406
15091TIP3   OH266687   1.377   6.043   0.426 -0.1057 -0.1007  0.0114
15091TIP3    H166688   1.335   6.126   0.404  0.6114  0.0455 -0.8367
15091TIP3    H266689   1.305   5.986   0.452 -0.9169 -0.0202 -1.9536
15092TIP3   OH266690   1.407   2.211  17.037  0.4489 -0.2843  0.3782
15092TIP3    H166691   1.376   2.287  16.987 -0.7215 -0.0635  1.3924
15092TIP3    H266692   1.369   2.136  16.991  0.8873 -0.2034 -0.1209
15093TIP3   OH266693   4.967   3.600  11.749 -0.2664  0.6773  0.7181
15093TIP3    H166694   4.929   3.639  11.670  1.1327  0.2477 -0.1974
15093TIP3    H266695   5.004   3.517  11.719 -2.0654 -0.7650  2.3839
15094TIP3   OH266696   5.875   2.957  13.050  0.3004 -0.3646  0.2440
15094TIP3    H166697   5.925   2.969  12.970 -2.6766 -0.1622 -1.6870
15094TIP3    H266698   5.896   2.868  13.079  5.0955  1.2135  2.0228
15095TIP3   OH266699   0.810   2.454  12.994  0.1890 -0.0576 -0.3752
15095TIP3    H166700   0.879   2.401  12.954  0.6242  1.2926 -1.4615
15095TIP3    H266701   0.851   2.492  13.072 -0.8237 -3.1301  1.7354
15096TIP3   OH266702   5.902   2.939  11.384 -0.0031  0.2980  0.0526
15096TIP3    H166703   5.923   3.005  11.318  0.2390 -0.6999 -0.8834
15096TIP3    H266704   5.885   2.990  11.464 -2.0878  1.6538 -1.2028
15097TIP3   OH266705   0.075   0.458  14.990  0.0122 -0.0990  0.4359
15097TIP3    H166706   0.119   0.478  14.907 -0.6032  1.2778  0.4392
15097TIP3    H266707   0.076   0.362  14.995  1.3688 -0.1467 -0.4479
15098TIP3   OH266708   1.439   4.593   4.724 -0.6195 -0.5349  0.1209
15098TIP3    H166709   1.374   4.662   4.714 -0.0874 -0.3473 -2.1491
15098TIP3    H266710   1.493   4.623   4.798 -1.3883  0.6522  0.2192
15099TIP3   OH266711   4.235   3.394   6.944  0.1583  0.2278  0.3606
15099TIP3    H166712   4.293   3.393   6.868  1.7711  2.5303  1.5430
15099TIP3    H266713   4.155   3.435   6.912 -0.0094 -0.8427 -0.6499
15100TIP3   OH266714   0.279   4.415  12.032 -0.3733 -0.0148 -0.5559
15100TIP3    H166715   0.277   4.481  11.962  0.0488 -0.0466 -0.5990
15100TIP3    H266716   0.320   4.460  12.106  0.8997 -0.5476 -0.9223
15101TIP3   OH266717   1.172   4.506   1.815 -0.4313 -0.3669 -0.2692
15101TIP3    H166718   1.189   4.509   1.909 -1.2828 -0.3453 -0.1110
15101TIP3    H266719   1.179   4.413   1.792 -1.0463 -0.4785 -0.0228
15102TIP3   OH266720   3.258   3.766  11.752  0.2329  0.0937  0.5892
15102TIP3    H166721   3.263   3.851  11.795  2.2160 -0.5672  1.7450
15102TIP3    H266722   3.318   3.773  11.677 -0.6168  0.1384 -0.0940
15103TIP3   OH266723   5.613   5.784  11.744 -0.6306 -0.0730 -0.4336
15103TIP3    H166724   5.643   5.696  11.769 -1.1497  0.0788  0.7779
15103TIP3    H266725   5.682   5.842  11.776 -0.7380  0.0394 -0.4106
15104TIP3   OH266726   1.849   1.881   6.258 -0.1567 -0.3516  0.7477
15104TIP3    H166727   1.940   1.873   6.285 -0.4044 -0.8793  1.4652
15104TIP3    H266728   1.848   1.856   6.166  0.2793 -1.2671  0.9864
15105TIP3   OH266729   0.636   0.075   4.962 -0.1477  0.3763  0.5298
15105TIP3    H166730   0.629   0.040   5.051  1.1603  0.1648  0.5645
15105TIP3    H266731   0.555   0.125   4.949 -1.2430 -1.2044  1.1132
15106TIP3   OH266732   5.746   1.020   4.528 -0.5163 -0.1810  0.2381
15106TIP3    H166733   5.724   1.050   4.616  1.8627  0.9565  0.4849
15106TIP3    H266734   5.828   1.066   4.507 -0.0765 -1.8395 -1.8257
15107TIP3   OH266735   6.291   0.101   4.933 -0.5439 -0.2275 -0.1711
15107TIP3    H166736   6.383   0.097   4.905 -0.3259 -2.8074  0.7760
15107TIP3    H266737   6.241   0.099   4.851  0.2083  1.4483 -0.7105
15108TIP3   OH266738   5.975   0.562  11.493  0.7991 -0.1238  0.0584
15108TIP3    H166739   5.979   0.472  11.524 -0.7393  0.0225  0.7072
15108TIP3    H266740   6.027   0.612  11.556 -0.7687 -0.1156  1.3429
15109TIP3   OH266741   3.602   1.972  16.058  0.2784  0.0085  0.3322
15109TIP3    H166742   3.684   1.939  16.020  1.4417  1.9799  1.0646
15109TIP3    H266743   3.603   1.939  16.148  1.0524  1.3270  0.8213
15110TIP3   OH266744   3.407   2.520  15.301 -0.5300 -0.1743 -0.2552
15110TIP3    H166745   3.387   2.486  15.388 -0.0708  0.8813  0.2812
15110TIP3    H266746   3.343   2.590  15.287  0.6453  0.9855  0.0757
15111TIP3   OH266747   3.193   0.793   4.332  0.8972  0.5224  0.7988
15111TIP3    H166748   3.236   0.798   4.247  0.8042  0.3371  0.7407
15111TIP3    H266749   3.135   0.717   4.325  0.9182  0.4839  1.0398
15112TIP3   OH266750   3.674   0.029   5.146 -0.2337  0.0306 -0.5805
15112TIP3    H166751   3.717  -0.014   5.072 -0.4279  0.4674 -0.9493
15112TIP3    H266752   3.581   0.015   5.130 -0.2939  0.4693 -0.6348
15113TIP3   OH266753   2.719   0.881  14.573  0.1482 -0.0894  0.1705
15113TIP3    H166754   2.633   0.839  14.580 -0.5074  1.3202  0.7361
15113TIP3    H266755   2.732   0.923  14.658  0.9807  0.4915 -0.2384
15114TIP3   OH266756   0.890   3.538   1.189  0.0532 -0.1713  0.6174
15114TIP3    H166757   0.853   3.520   1.103  4.2102  2.2511 -1.7990
15114TIP3    H266758   0.830   3.601   1.229 -1.5742 -0.8620 -0.6874
15115TIP3   OH266759   5.651   2.550   5.356  0.1636 -0.6614 -0.1824
15115TIP3    H166760   5.605   2.485   5.303 -0.2315 -0.1155 -0.5081
15115TIP3    H266761   5.743   2.537   5.333 -0.0152 -0.3141 -1.1426
15116TIP3   OH266762   4.750   1.427  14.169  0.4016  0.3235 -0.5245
15116TIP3    H166763   4.756   1.369  14.245  1.0360 -0.4440 -1.1491
15116TIP3    H266764   4.667   1.405  14.128  0.3218  0.3408 -0.3716
15117TIP3   OH266765   1.200   6.741  11.560 -0.4250  0.5955  0.3489
15117TIP3    H166766   1.240   6.813  11.608 -0.3017  0.8165 -0.0862
15117TIP3    H266767   1.260   6.722  11.488 -1.2744  1.1898 -0.5367
15118TIP3   OH266768   0.406   5.945   4.374  0.4848  0.1840 -0.2332
15118TIP3    H166769   0.371   5.856   4.371 -0.2170  0.3560  2.0074
15118TIP3    H266770   0.451   5.956   4.290 -0.2168 -1.9443 -0.9155
15119TIP3   OH266771   3.201   3.691  13.877  0.4053 -0.1876  0.8329
15119TIP3    H166772   3.132   3.716  13.939  0.3854 -0.0411  0.7507
15119TIP3    H266773   3.160   3.696  13.791  0.7139  0.5814  0.7244
15120TIP3   OH266774   4.762   0.392  13.822 -0.4904 -0.0315  0.0695
15120TIP3    H166775   4.773   0.349  13.738 -0.0073 -1.5440  0.8965
15120TIP3    H266776   4.703   0.466  13.804 -0.9665 -0.7727 -1.4346
15121TIP3   OH266777   3.215   6.774  12.240 -0.3028  0.8511 -0.1058
15121TIP3    H166778   3.178   6.851  12.197 -1.6506  0.9063  1.1015
15121TIP3    H266779   3.224   6.799  12.332  2.5386  0.7312 -0.3330
15122TIP3   OH266780   3.769   3.839   5.246 -0.5501 -0.1731 -0.2285
15122TIP3    H166781   3.693   3.858   5.301 -2.0939 -3.3884 -1.0986
15122TIP3    H266782   3.807   3.759   5.284  0.5706 -0.3157 -1.6048
15123TIP3   OH266783   4.889   1.192   4.231 -0.0609 -0.0814  0.3672
15123TIP3    H166784   4.838   1.114   4.255 -1.0926  0.4774  0.0297
15123TIP3    H266785   4.833   1.266   4.256  0.8669  0.5548  0.5866
15124TIP3   OH266786   4.742   5.199  12.726 -0.2264 -0.0859 -0.1538
15124TIP3    H166787   4.766   5.269  12.664  3.5848 -0.7705  0.4283
15124TIP3    H266788   4.712   5.246  12.804  0.3169  0.9045 -0.5268
15125TIP3   OH266789   3.630   3.546   3.465 -0.7242  0.0218 -0.5542
15125TIP3    H166790   3.539   3.517   3.472 -0.9024  0.2716 -1.6443
15125TIP3    H266791   3.669   3.485   3.402  0.0427 -0.4929  0.4062
15126TIP3   OH266792   0.206   2.597  15.097  0.0977  0.3319  0.0843
15126TIP3    H166793   0.112   2.588  15.081  0.2301 -0.5807 -0.1922
15126TIP3    H266794   0.235   2.665  15.036 -0.3534  0.5190  0.0775
15127TIP3   OH266795   5.334   0.834  16.410  0.2633  0.0985  0.2575
15127TIP3    H166796   5.338   0.837  16.315  0.7834 -1.2919  0.2337
15127TIP3    H266797   5.251   0.877  16.432  0.0678  0.2816 -0.8237
15128TIP3   OH266798   0.127   0.342   0.586  0.0176  0.3678  0.2318
15128TIP3    H166799   0.122   0.389   0.504 -1.9514  2.3110  1.4073
15128TIP3    H266800   0.112   0.250   0.563 -2.2724  1.1212 -1.3653
15129TIP3   OH266801   6.403   4.034  15.143 -0.2352  0.5241 -0.1044
15129TIP3    H166802   6.415   4.045  15.238  0.6697 -1.7933  0.0869
15129TIP3    H266803   6.466   4.095  15.104  0.1205  0.7416  0.7980
15130TIP3   OH266804   2.856   2.441   5.495 -0.0667  0.2726 -0.1486
15130TIP3    H166805   2.767   2.465   5.470 -0.3759  1.4253  1.8925
15130TIP3    H266806   2.877   2.501   5.566  1.4422 -1.5827  1.0161
15131TIP3   OH266807   0.568   0.676  16.646  0.7569 -0.1783  0.2525
15131TIP3    H166808   0.623   0.697  16.570 -0.1004 -0.7774 -0.5550
15131TIP3    H266809   0.586   0.584  16.664  1.1668  0.0411  0.9526
15132TIP3   OH266810   0.072   2.469  16.499  0.2583 -0.1651 -0.1287
15132TIP3    H166811   0.037   2.383  16.476  0.1347 -0.3674  0.8010
15132TIP3    H266812   0.025   2.530  16.443 -0.6837 -0.5635  0.2269
15133TIP3   OH266813   3.623   5.251  11.349  0.4912  0.5949  0.6251
15133TIP3    H166814   3.604   5.196  11.426 -1.2762 -1.4309 -1.1917
15133TIP3    H266815   3.716   5.236  11.332  0.2640 -1.1344  0.7478
15134TIP3   OH266816   1.451   0.658   2.614 -0.6575 -0.1106  0.7884
15134TIP3    H166817   1.452   0.719   2.687  1.5257  3.2759 -1.8920
15134TIP3    H266818   1.441   0.714   2.537 -0.5191 -3.3574 -1.6795
15135TIP3   OH266819   5.018   5.516  12.634  0.0189 -0.2528 -0.2229
15135TIP3    H166820   5.106   5.527  12.598 -0.7425  2.1868 -1.4219
15135TIP3    H266821   4.978   5.449  12.578  0.1855  0.6429 -1.4361
15136TIP3   OH266822   0.826   4.210  15.192 -0.1892  0.0224 -0.0713
15136TIP3    H166823   0.737   4.176  15.187 -0.7376  1.0142  2.3084
15136TIP3    H266824   0.880   4.144  15.147 -1.4294 -3.1963  2.9149
15137TIP3   OH266825   6.312   3.665  12.843 -0.2384 -0.1460  0.6465
15137TIP3    H166826   6.225   3.698  12.820  0.0026  0.6004  0.7860
15137TIP3    H266827   6.314   3.668  12.939 -0.6099 -1.6097  0.7135
15138TIP3   OH266828   2.517   5.827  13.798 -0.2528  0.0566 -0.2239
15138TIP3    H166829   2.590   5.801  13.742 -0.8834 -0.0373 -1.0207
15138TIP3    H266830   2.547   5.907  13.841 -0.0272  0.5482 -1.2657
15139TIP3   OH266831   0.207   4.533   2.084  0.1356 -0.1776  0.3879
15139TIP3    H166832   0.238   4.622   2.067  0.1769 -0.1203  0.7509
15139TIP3    H266833   0.191   4.496   1.997 -2.5196  1.0997  0.2984
15140TIP3   OH266834   3.218   1.298  13.869 -0.2960  0.1489  0.3333
15140TIP3    H166835   3.139   1.318  13.819  0.1010 -0.9476 -0.7397
15140TIP3    H266836   3.288   1.294  13.804  0.8598  2.1422  1.3910
15141TIP3   OH266837   5.540   3.599   1.303 -0.1261  0.3249  0.1576
15141TIP3    H166838   5.468   3.637   1.253 -1.2617 -1.2320  0.5762
15141TIP3    H266839   5.499   3.570   1.385  1.7497  3.1742  2.1956
15142TIP3   OH266840   0.181   1.185   0.521  0.0631  0.3356  0.1559
15142TIP3    H166841   0.205   1.116   0.582 -0.6249 -0.0054  0.0365
15142TIP3    H266842   0.216   1.265   0.561 -1.7275  0.3461  1.7762
15143TIP3   OH266843   6.577   2.175  13.788 -0.2160 -0.1505 -0.0456
15143TIP3    H166844   6.568   2.244  13.855  0.6978  2.4040 -2.4776
15143TIP3    H266845   6.488   2.141  13.778 -0.7067  0.7301  1.1281
15144TIP3   OH266846   6.206   3.323  15.654  0.6508 -0.2413 -0.2720
15144TIP3    H166847   6.164   3.391  15.706  1.9511  0.7575 -0.5006
15144TIP3    H266848   6.144   3.250  15.655  0.3442  0.0213  2.0722
15145TIP3   OH266849   3.999   0.291  11.473  0.0173 -0.4354 -0.2761
15145TIP3    H166850   4.046   0.285  11.390 -0.1887  2.3080 -0.6308
15145TIP3    H266851   3.919   0.240  11.459  1.8294 -3.4078 -0.3453
15146TIP3   OH266852   5.480   1.920   4.040 -0.2738 -0.4545 -0.1378
15146TIP3    H166853   5.564   1.881   4.015  0.3054 -1.7361  3.5324
15146TIP3    H266854   5.502   2.003   4.081 -1.0315  0.3998 -1.4002
15147TIP3   OH266855   2.856   0.601   2.157  0.2813 -0.5807  0.4751
15147TIP3    H166856   2.916   0.619   2.085  1.2456 -1.4479  1.0582
15147TIP3    H266857   2.859   0.505   2.168 -1.5442 -0.6945  0.2041
15148TIP3   OH266858   0.235   1.580  16.519  0.3543  0.5791 -0.0922
15148TIP3    H166859   0.317   1.546  16.481  0.4553  2.6640 -1.8411
15148TIP3    H266860   0.263   1.648  16.580 -0.0325  0.5648  0.1006
15149TIP3   OH266861   1.073   5.590   2.551  1.0288  0.1763  0.3452
15149TIP3    H166862   1.116   5.508   2.529  0.5590 -0.0130  0.1361
15149TIP3    H266863   0.987   5.585   2.509  1.3682  1.1931 -0.4915
15150TIP3   OH266864   5.546   6.289  14.295 -0.3962 -0.2292  0.2035
15150TIP3    H166865   5.590   6.370  14.270  0.9132 -0.7857  0.6385
15150TIP3    H266866   5.456   6.299  14.264 -0.4858  1.7523  1.0629
15151TIP3   OH266867   3.657   4.653  14.803  0.1459  0.3496  0.7165
15151TIP3    H166868   3.589   4.614  14.747  1.5740  0.7680 -1.3793
15151TIP3    H266869   3.719   4.582  14.818  0.8962  0.8291 -0.0891
15152TIP3   OH266870   4.349   0.154  11.495 -0.0064  0.5310 -0.1941
15152TIP3    H166871   4.274   0.096  11.494  0.5616 -0.2299  0.4724
15152TIP3    H266872   4.332   0.215  11.567  1.2947 -1.3995  1.8297
15153TIP3   OH266873   1.073   5.085   3.647  0.7226 -0.4347  0.6904
15153TIP3    H166874   0.984   5.099   3.615  0.8906 -0.4145  0.2245
15153TIP3    H266875   1.078   5.136   3.728  0.9958  1.3626 -0.4177
15154TIP3   OH266876   4.105   5.232   2.079 -0.5121 -0.4504  0.2204
15154TIP3    H166877   4.039   5.205   2.014 -0.5152  2.3743 -1.0284
15154TIP3    H266878   4.054   5.252   2.157 -1.1679  1.5574 -0.6893
15155TIP3   OH266879   0.215   1.447   0.940 -0.3787  0.0651 -0.1576
15155TIP3    H166880   0.215   1.366   0.991 -0.3655  1.2500  1.7781
15155TIP3    H266881   0.282   1.501   0.980 -1.7478  1.8130 -0.1419
15156TIP3   OH266882   6.300   6.147  12.563 -0.2868  0.2001 -0.0654
15156TIP3    H166883   6.250   6.150  12.645  1.1342  1.7898  0.7666
15156TIP3    H266884   6.233   6.134  12.495 -1.6643  0.6210  1.1781
15157TIP3   OH266885   4.095   4.025  16.902  0.3501  0.0221  0.4692
15157TIP3    H166886   4.036   4.082  16.851 -0.3249 -1.6439 -0.6424
15157TIP3    H266887   4.179   4.072  16.901  0.6210 -0.3561 -3.0204
15158TIP3   OH266888   1.083   5.612   5.419 -0.6011 -0.5029 -0.4539
15158TIP3    H166889   1.132   5.552   5.363  0.7561  0.5126 -0.3869
15158TIP3    H266890   1.109   5.700   5.390 -0.0326  0.0469  1.6168
15159TIP3   OH266891   6.054   0.480  14.356 -0.6122 -0.1431  0.0744
15159TIP3    H166892   6.037   0.516  14.269  0.7500 -0.3183 -0.2752
15159TIP3    H266893   5.967   0.462  14.392 -1.2169  0.8270 -0.8680
15160TIP3   OH266894   3.141   5.154   4.599  0.1232  0.0596 -0.3318
15160TIP3    H166895   3.051   5.125   4.584  0.0126  0.2691 -0.0587
15160TIP3    H266896   3.161   5.126   4.688  0.1229  0.5468 -0.1776
15161TIP3   OH266897   1.796   1.615   1.750 -0.3350 -0.4420  0.7971
15161TIP3    H166898   1.787   1.706   1.778 -0.2638 -0.3749  0.6064
15161TIP3    H266899   1.812   1.620   1.656 -0.6382 -0.6692  0.7326
15162TIP3   OH266900   1.651   2.172   4.500  0.4030 -0.7402 -0.1276
15162TIP3    H166901   1.595   2.250   4.510  1.5949 -0.2358  3.4785
15162TIP3    H266902   1.593   2.105   4.465 -1.6729  0.6906  0.4641
15163TIP3   OH266903   3.195   6.569   1.284  0.3560 -0.1655  0.3532
15163TIP3    H166904   3.255   6.643   1.270 -1.4273  1.3575  0.4479
15163TIP3    H266905   3.215   6.538   1.372  0.4317  0.8776  0.7158
15164TIP3   OH266906   1.751   3.827   5.587  1.2203 -0.1962  0.0336
15164TIP3    H166907   1.805   3.784   5.654  1.4094  0.5713  0.3763
15164TIP3    H266908   1.695   3.757   5.553  1.7649 -0.7925  0.3452
15165TIP3   OH266909   6.148   2.193   3.740  0.2227  0.0666 -0.1968
15165TIP3    H166910   6.216   2.153   3.686 -0.8932 -1.1148 -0.7488
15165TIP3    H266911   6.074   2.133   3.734 -1.1633  1.7603 -0.2809
15166TIP3   OH266912   0.519   4.386   5.137 -0.0642  0.8668 -0.0689
15166TIP3    H166913   0.540   4.310   5.083 -1.1964  1.2556 -1.0823
15166TIP3    H266914   0.547   4.461   5.084 -2.4560  1.3227 -0.7650
15167TIP3   OH266915   5.776   2.978   0.799  0.5905  0.6325 -0.4161
15167TIP3    H166916   5.815   3.040   0.738  2.2846  0.9879  0.9903
15167TIP3    H266917   5.682   2.982   0.780  0.6775  3.4465 -0.5042
15168TIP3   OH266918   0.428   4.998  16.925  0.1098 -0.2674 -0.4589
15168TIP3    H166919   0.332   5.000  16.921  0.0276  0.4442  1.2360
15168TIP3    H266920   0.448   4.918  16.975  0.3588 -0.0538 -0.2123
15169TIP3   OH266921   0.596   6.623  15.252  0.5759  0.1559  0.4426
15169TIP3    H166922   0.678   6.672  15.260  1.3840 -0.9597 -0.7936
15169TIP3    H266923   0.601   6.581  15.167 -0.6569 -1.0747  0.9528
15170TIP3   OH266924   2.855   3.968  13.147 -0.4949  0.3964  0.3904
15170TIP3    H166925   2.778   3.985  13.201 -0.9778  0.7359 -0.3998
15170TIP3    H266926   2.901   3.897  13.192 -0.6839  0.9454  1.4565
15171TIP3   OH266927   1.726   4.642  14.676 -0.4278  0.0587  0.1136
15171TIP3    H166928   1.774   4.612  14.753 -0.6522 -1.0958 -0.1872
15171TIP3    H266929   1.687   4.562  14.639 -0.2588  0.5923 -1.2399
15172TIP3   OH266930   1.709   3.389   6.667  0.1803 -0.4098 -0.5394
15172TIP3    H166931   1.618   3.419   6.671  0.3648  0.1606 -0.5909
15172TIP3    H266932   1.720   3.337   6.746  0.3214  0.9753  0.3747
15173TIP3   OH266933   2.996   2.838  12.984  0.6834  0.1114 -0.0421
15173TIP3    H166934   2.989   2.931  12.965  0.3620  0.0730 -0.1132
15173TIP3    H266935   3.067   2.807  12.928  1.1688  0.4250  0.3930
15174TIP3   OH266936   2.079   5.271  16.728 -0.0223 -0.9292 -0.1860
15174TIP3    H166937   2.008   5.328  16.757  0.4092 -0.9494  0.9494
15174TIP3    H266938   2.133   5.325  16.671 -0.3020 -0.5630 -0.1000
15175TIP3   OH266939   4.040   6.610  12.626  0.0052  0.4322  0.1469
15175TIP3    H166940   4.116   6.575  12.581  0.4738  1.5450  0.0602
15175TIP3    H266941   4.031   6.700  12.592 -2.5972 -0.3521 -1.4631
15176TIP3   OH266942   1.459   0.713   6.252 -0.1371  0.1251  0.0820
15176TIP3    H166943   1.479   0.800   6.286 -0.7310  0.7735 -1.1873
15176TIP3    H266944   1.378   0.725   6.201  0.8053 -0.7759 -1.6654
15177TIP3   OH266945   1.791   2.426   2.244  0.2064  0.4003 -0.6510
15177TIP3    H166946   1.802   2.506   2.193 -0.6555  0.7095 -0.3517
15177TIP3    H266947   1.741   2.368   2.187 -0.0857  0.4622 -0.4566
15178TIP3   OH266948   3.020   5.226   3.984  0.4908  0.1357 -0.2876
15178TIP3    H166949   3.082   5.156   3.963 -0.3400 -0.6244 -0.2326
15178TIP3    H266950   2.966   5.235   3.906  1.3270  1.5165 -0.7234
15179TIP3   OH266951   6.114   6.696  15.894  0.2720  0.8717 -0.0573
15179TIP3    H166952   6.163   6.655  15.822  3.1429  1.2688  1.5936
15179TIP3    H266953   6.104   6.787  15.867  0.0351  0.6843 -0.6088
15180TIP3   OH266954   3.530   0.996  13.397 -0.0885 -0.5020  0.5883
15180TIP3    H166955   3.558   0.961  13.482  0.2849  0.2061  0.7636
15180TIP3    H266956   3.611   1.000  13.345  0.1147  1.3294  1.0157
15181TIP3   OH266957   1.319   5.822  16.073 -0.4898  0.8699 -0.3245
15181TIP3    H166958   1.364   5.896  16.115  1.8999 -0.8263  0.2592
15181TIP3    H266959   1.331   5.749  16.135  0.0786 -0.8168 -2.3670
15182TIP3   OH266960   5.860   1.166   6.396  0.0642 -0.2150  0.5542
15182TIP3    H166961   5.948   1.143   6.425  0.4588  0.3848 -0.1387
15182TIP3    H266962   5.865   1.260   6.377 -1.3002  0.2809  2.5497
15183TIP3   OH266963   2.213   0.273   2.452  0.1504  0.1140  0.1453
15183TIP3    H166964   2.177   0.200   2.402 -1.2561  0.0824  1.1662
15183TIP3    H266965   2.185   0.351   2.404  0.7238  0.0242 -0.3439
15184TIP3   OH266966   6.493   1.779  16.637 -0.3266  0.1452  0.5101
15184TIP3    H166967   6.473   1.706  16.696  0.3835  0.0085  0.5899
15184TIP3    H266968   6.561   1.829  16.682 -0.0508  0.2557 -0.0204
15185TIP3   OH266969   3.914   1.396   5.325  0.3111 -0.2573  0.0637
15185TIP3    H166970   3.875   1.342   5.256  0.9165 -1.5519  0.7191
15185TIP3    H266971   3.879   1.484   5.310 -1.5970 -1.0746 -0.3072
15186TIP3   OH266972   3.664   5.535  12.123 -0.1526 -0.0087 -0.1060
15186TIP3    H166973   3.672   5.439  12.122 -0.3319 -0.0165 -1.2156
15186TIP3    H266974   3.753   5.566  12.138 -0.3025 -0.3604  1.7369
15187TIP3   OH266975   3.536   1.476  10.911  0.2185  0.2483  0.3520
15187TIP3    H166976   3.543   1.445  10.821 -0.1365  0.4291  0.2615
15187TIP3    H266977   3.446   1.454  10.936  1.0118 -1.9345  1.4381
15188TIP3   OH266978   2.267   5.316   0.680  0.2641 -0.7221 -0.4970
15188TIP3    H166979   2.277   5.331   0.774 -0.7348  0.5654 -0.5813
15188TIP3    H266980   2.356   5.311   0.646  0.6228  1.1416  0.1618
15189TIP3   OH266981   5.746   4.869   2.721  0.1472 -0.1059 -0.0999
15189TIP3    H166982   5.663   4.902   2.756  1.9386  3.0701  1.3399
15189TIP3    H266983   5.807   4.874   2.795  2.2197 -0.0644 -1.7685
15190TIP3   OH266984   5.575   5.813  16.075 -0.7588 -0.0999  0.8697
15190TIP3    H166985   5.543   5.738  16.024 -0.1405 -1.7191  2.8355
15190TIP3    H266986   5.496   5.864  16.094 -0.9368  0.9932 -2.3115
15191TIP3   OH266987   6.703   2.904  14.532  0.1239  0.5912 -0.1138
15191TIP3    H166988   6.685   2.966  14.461  0.4877  0.5462 -0.2444
15191TIP3    H266989   6.789   2.930  14.565  0.3909 -0.0008 -0.3326
15192TIP3   OH266990   6.577   1.369  16.663  0.6116 -0.0004  0.3357
15192TIP3    H166991   6.505   1.306  16.672 -0.0800  0.7305  0.0473
15192TIP3    H266992   6.543   1.450  16.703  0.8704  0.6575 -0.7467
15193TIP3   OH266993   0.308   3.426   5.225  0.6293 -0.0805  0.3342
15193TIP3    H166994   0.323   3.393   5.314 -1.5720  1.5800  1.3884
15193TIP3    H266995   0.321   3.521   5.233 -2.5317  0.4745 -0.3654
15194TIP3   OH266996   5.309   5.716   5.662 -0.0286  0.6563  0.1084
15194TIP3    H166997   5.389   5.739   5.709  1.0985 -2.3558 -0.2539
15194TIP3    H266998   5.242   5.713   5.730  0.4822  1.5957  0.6697
15195TIP3   OH266999   4.581   1.245   3.561  0.8695 -0.3472 -0.0828
15195TIP3    H167000   4.565   1.235   3.467 -0.9990  0.3589  0.1453
15195TIP3    H267001   4.497   1.272   3.597  2.0653  1.3423  1.5155
15196TIP3   OH267002   6.510   4.578   6.247  0.5842 -0.4822  0.1213
15196TIP3    H167003   6.494   4.506   6.187  0.6202  0.4577 -1.0497
15196TIP3    H267004   6.515   4.538   6.333 -0.1842 -1.7669 -0.4287
15197TIP3   OH267005   5.137   1.952   5.932 -0.1785 -0.6491  0.1332
15197TIP3    H167006   5.187   1.878   5.898 -1.8443 -1.9848  0.5145
15197TIP3    H267007   5.058   1.954   5.878 -0.4333  0.4528  0.5454
15198TIP3   OH267008   2.583   1.080   2.999 -0.6878 -0.6356 -0.0791
15198TIP3    H167009   2.536   1.148   3.047 -2.4513 -1.2619 -0.8877
15198TIP3    H267010   2.610   1.018   3.066  1.4768  1.1506  0.7425
15199TIP3   OH267011   3.203   0.665  13.680 -0.0788 -0.2029  0.0145
15199TIP3    H167012   3.210   0.616  13.761 -0.0059  0.0753  0.1771
15199TIP3    H267013   3.179   0.754  13.707  1.8285  0.3891 -0.1085
15200TIP3   OH267014   3.921   3.864  14.334 -0.6224  0.1700  0.0449
15200TIP3    H167015   3.866   3.925  14.383 -0.1881  1.8621 -1.4834
15200TIP3    H267016   3.923   3.901  14.245  0.5440 -1.4939 -0.6402
15201TIP3   OH267017   3.124   4.619  16.963  0.3045  0.1708  0.6910
15201TIP3    H167018   3.174   4.552  16.917  1.4116  1.1756  0.4062
15201TIP3    H267019   3.083   4.573  17.037  0.3191 -0.9838 -0.0256
15202TIP3   OH267020   4.395   4.571   4.569 -0.3287  0.2292  0.1544
15202TIP3    H167021   4.324   4.567   4.633 -2.0095  2.3764 -1.4867
15202TIP3    H267022   4.354   4.548   4.486  1.2813 -0.1538 -0.5597
15203TIP3   OH267023   6.623   4.508   5.926  0.1322  0.1799  0.4929
15203TIP3    H167024   6.547   4.470   5.970  0.1989 -0.8547 -0.2728
15203TIP3    H267025   6.624   4.600   5.955 -1.8665  0.4228 -0.1141
15204TIP3   OH267026   5.010   4.704   3.031  0.3598  0.0218  0.0309
15204TIP3    H167027   5.001   4.794   3.001  0.8515  0.2065  0.4236
15204TIP3    H267028   5.041   4.712   3.122  0.9450 -0.5347 -0.1126
15205TIP3   OH267029   4.438   5.069   1.611 -0.2187 -0.0517  0.2261
15205TIP3    H167030   4.499   5.119   1.665 -0.5922  2.1454 -1.3329
15205TIP3    H267031   4.494   5.008   1.562  0.2511 -1.0803  1.9915
15206TIP3   OH267032   3.972   6.211   1.818 -0.2449 -0.3170 -0.0060
15206TIP3    H167033   4.052   6.216   1.766  1.0078  1.0625  1.9808
15206TIP3    H267034   3.931   6.129   1.791  2.3046 -1.5170 -0.4021
15207TIP3   OH267035   4.725   3.584   1.102  0.3248  0.6187  0.0063
15207TIP3    H167036   4.804   3.618   1.146  0.2474 -0.1468  0.7701
15207TIP3    H267037   4.755   3.561   1.014  0.6786  1.4281 -0.0932
15208TIP3   OH267038   4.561   1.175  13.547 -0.6447 -0.1476 -0.4428
15208TIP3    H167039   4.466   1.175  13.536 -0.7998 -0.1063  0.8047
15208TIP3    H267040   4.595   1.214  13.467 -1.7956  1.8113 -0.0100
15209TIP3   OH267041   3.631   6.176  13.053 -0.1129 -0.1469  0.1209
15209TIP3    H167042   3.679   6.259  13.060 -3.6205  1.9357  0.5111
15209TIP3    H267043   3.610   6.168  12.960 -1.5033  0.4424  0.3740
15210TIP3   OH267044   5.486   2.962  14.142  0.1012 -0.3466 -0.8703
15210TIP3    H167045   5.528   2.879  14.165  3.0531  1.8678  2.1694
15210TIP3    H267046   5.542   3.000  14.074  0.4693  0.5181 -0.0939
15211TIP3   OH267047   2.701   4.920   3.642 -0.1436  0.1040  0.1307
15211TIP3    H167048   2.755   4.901   3.719 -0.6466 -0.6834  0.2992
15211TIP3    H267049   2.677   4.833   3.608 -0.5370  0.4486 -0.4758
15212TIP3   OH267050   6.550   2.770  11.465 -0.3490  0.3189 -0.0410
15212TIP3    H167051   6.616   2.724  11.518 -1.3918 -0.6549  0.4366
15212TIP3    H267052   6.555   2.727  11.379 -1.0435 -0.4463  0.2885
15213TIP3   OH267053   1.612   0.222   3.631  0.0507 -0.0080 -0.4208
15213TIP3    H167054   1.654   0.193   3.713 -0.4473 -0.0363 -0.1762
15213TIP3    H267055   1.534   0.268   3.660  1.0523  1.9532 -0.7798
15214TIP3   OH267056   3.042   1.378   5.807 -0.8212 -0.0826 -0.4122
15214TIP3    H167057   3.118   1.333   5.771 -0.6144 -0.1823  0.1466
15214TIP3    H267058   3.041   1.463   5.763 -0.7405 -0.3178 -0.8675
15215TIP3   OH267059   5.651   4.334  10.796  0.3470 -0.5599 -0.6000
15215TIP3    H167060   5.661   4.279  10.874 -2.2810 -1.4423 -0.8408
15215TIP3    H267061   5.652   4.273  10.723 -2.8661 -0.3545 -0.8540
15216TIP3   OH267062   4.517   3.276   4.619  0.3487 -0.8192  0.2007
15216TIP3    H167063   4.538   3.342   4.685 -1.2959 -0.4603  0.3948
15216TIP3    H267064   4.458   3.320   4.558 -0.1547 -1.8645 -0.0961
15217TIP3   OH267065   1.416   4.503   4.038  0.6849  0.2459  0.1362
15217TIP3    H167066   1.354   4.436   4.010  1.2287 -0.2543  0.1175
15217TIP3    H267067   1.495   4.485   3.988 -0.0226  2.6075 -1.9610
15218TIP3   OH267068   3.225   4.434   6.530  0.1558  0.3456 -0.4143
15218TIP3    H167069   3.152   4.462   6.475  0.5854  1.3548 -0.4943
15218TIP3    H267070   3.252   4.514   6.576 -0.7898 -0.6571  1.9569
15219TIP3   OH267071   2.746   3.867  16.467  0.1331 -0.3497  0.1102
15219TIP3    H167072   2.657   3.833  16.461  0.1881 -0.1219 -2.6264
15219TIP3    H267073   2.747   3.919  16.548 -2.4570  0.3090 -0.2413
15220TIP3   OH267074   4.491   2.196  15.018 -0.0644  0.3474  0.8431
15220TIP3    H167075   4.473   2.119  15.073 -0.5172  0.3048  0.6329
15220TIP3    H267076   4.445   2.179  14.936  0.2629  0.6082  0.6024
15221TIP3   OH267077   1.502   0.093  14.198  0.1539  0.2827 -0.0505
15221TIP3    H167078   1.586   0.136  14.214  0.3671  0.1463 -0.7546
15221TIP3    H267079   1.449   0.160  14.154 -1.4628  1.6371  3.7807
15222TIP3   OH267080   1.418   4.690  15.790 -0.3702 -0.1714 -0.0552
15222TIP3    H167081   1.404   4.783  15.768 -1.1480 -0.6484 -1.6528
15222TIP3    H267082   1.346   4.668  15.848 -0.4789  0.0912 -0.0879
15223TIP3   OH267083   3.559   0.233   2.079  0.2681 -0.1700  0.3063
15223TIP3    H167084   3.568   0.328   2.083 -2.2896  0.0625  1.4429
15223TIP3    H267085   3.567   0.204   2.170 -0.8500 -0.8292  0.2041
15224TIP3   OH267086   1.675   6.487   6.037  0.0573  0.0849  0.7892
15224TIP3    H167087   1.622   6.408   6.043  0.1527  0.0961  1.8118
15224TIP3    H267088   1.664   6.530   6.122 -0.7207  1.6409 -0.0707
15225TIP3   OH267089   3.573   1.631  10.343  0.2221 -0.4161 -0.1495
15225TIP3    H167090   3.632   1.691  10.388  0.1794 -0.3345 -0.2034
15225TIP3    H267091   3.548   1.568  10.410  0.1133 -0.2613 -0.0421
15226TIP3   OH267092   5.398   2.098   1.330  0.2710  0.0051  0.0462
15226TIP3    H167093   5.331   2.166   1.331  1.1842  0.9256  1.3144
15226TIP3    H267094   5.350   2.016   1.325 -0.8901  0.7013 -0.3591
15227TIP3   OH267095   2.420   4.463   2.546 -0.1590 -0.1810 -0.4522
15227TIP3    H167096   2.487   4.522   2.580 -0.4369 -1.0136  1.5921
15227TIP3    H267097   2.356   4.521   2.503 -1.3187  1.2127  3.0003
15228TIP3   OH267098   5.263   2.994  13.904 -0.3602 -0.1404  0.7772
15228TIP3    H167099   5.347   2.950  13.891 -0.4028  0.0568 -0.1562
15228TIP3    H267100   5.286   3.085  13.923 -0.4046  0.1346 -0.4863
15229TIP3   OH267101   3.608   5.914   1.728 -0.0840 -0.8362 -0.1325
15229TIP3    H167102   3.622   5.897   1.635  0.2603 -1.2912  0.0032
15229TIP3    H267103   3.518   5.946   1.733 -0.2519 -1.2436 -0.5625
15230TIP3   OH267104   5.108   3.716  15.623  0.2107  0.4977 -0.4308
15230TIP3    H167105   5.015   3.735  15.634  0.5916  1.5636  0.9784
15230TIP3    H267106   5.153   3.797  15.648  1.5256 -0.0561 -0.9495
15231TIP3   OH267107   6.171   4.386   2.049 -0.3320 -0.5882  0.3839
15231TIP3    H167108   6.242   4.414   2.107 -1.2276 -0.3428  1.3685
15231TIP3    H267109   6.188   4.432   1.967  1.1805 -1.2695  0.3053
15232TIP3   OH267110   1.382   6.020  13.070 -0.9032  0.4223  0.2221
15232TIP3    H167111   1.471   6.056  13.069 -0.0318 -1.5243  2.5670
15232TIP3    H267112   1.358   6.014  12.978  1.9313 -0.2638 -0.5283
15233TIP3   OH267113   5.840   3.489   3.359  0.4440 -0.1194  0.1020
15233TIP3    H167114   5.830   3.580   3.329  0.4890  0.1347  0.8296
15233TIP3    H267115   5.755   3.449   3.344  0.3795  0.0900 -0.0928
15234TIP3   OH267116   0.527   2.106   5.617 -0.0316 -0.1918 -0.0900
15234TIP3    H167117   0.587   2.174   5.648 -1.7066  1.1674  0.2360
15234TIP3    H267118   0.444   2.151   5.605 -1.0092 -2.0573 -0.5061
15235TIP3   OH267119   2.362   5.567  15.973  0.2755  0.0774  0.4811
15235TIP3    H167120   2.396   5.478  15.969  0.7646  0.2825 -0.1340
15235TIP3    H267121   2.353   5.593  15.881 -2.5301 -0.3364  0.6161
15236TIP3   OH267122   3.249   2.288   2.502  0.4450 -0.3197 -0.5665
15236TIP3    H167123   3.218   2.248   2.420  1.2437  0.3634 -1.2118
15236TIP3    H267124   3.279   2.214   2.554 -0.5524 -0.8124 -0.6764
15237TIP3   OH267125   4.488   3.605  14.449  0.1582  0.2120  0.4303
15237TIP3    H167126   4.488   3.584  14.356  0.7566 -0.9763  0.6896
15237TIP3    H267127   4.536   3.688  14.454 -0.0226  0.3693 -0.3313
15238TIP3   OH267128   6.764   4.612   4.780 -0.0010 -0.2893 -0.3783
15238TIP3    H167129   6.818   4.691   4.779  0.9629 -0.9383 -0.8760
15238TIP3    H267130   6.688   4.634   4.726  0.0703  0.4172 -0.1967
15239TIP3   OH267131   5.597   6.558  16.655 -0.0302 -0.1402  0.0344
15239TIP3    H167132   5.595   6.649  16.685 -2.7046 -0.6217  1.4585
15239TIP3    H267133   5.555   6.561  16.569  1.4641  0.1875 -0.7153
15240TIP3   OH267134   2.266   4.178  14.047 -0.8337 -0.1756 -0.0106
15240TIP3    H167135   2.319   4.218  13.978  1.3653  0.9868  2.2612
15240TIP3    H267136   2.202   4.245  14.070 -1.9727 -0.7971 -1.3185
15241TIP3   OH267137   2.381   4.859   5.537 -0.0819  0.3161  0.4270
15241TIP3    H167138   2.323   4.783   5.539  2.3782 -1.5994  1.4476
15241TIP3    H267139   2.466   4.824   5.513  0.9993  2.8338  0.4504
15242TIP3   OH267140   1.884   2.075   4.320 -0.1797 -0.1382 -0.0359
15242TIP3    H167141   1.799   2.098   4.358  0.3813 -2.1688  2.6075
15242TIP3    H267142   1.878   1.981   4.303  2.2140 -0.7230  2.1126
15243TIP3   OH267143   5.098   1.232  14.518  0.0323 -0.1072  0.0304
15243TIP3    H167144   5.187   1.257  14.495  0.0126 -0.4267 -0.3983
15243TIP3    H267145   5.046   1.310  14.498  0.4460  0.6952  1.9086
15244TIP3   OH267146   4.669   0.958   5.340  0.2298  0.1224 -0.0382
15244TIP3    H167147   4.599   0.920   5.393  0.5784 -1.8344 -0.9304
15244TIP3    H267148   4.646   1.051   5.332 -1.8774 -0.3560  0.2802
15245TIP3   OH267149   5.572   1.451  12.504 -0.1317  0.3582  0.3766
15245TIP3    H167150   5.478   1.467  12.498 -0.4396 -0.6638  2.1478
15245TIP3    H267151   5.610   1.536  12.524 -0.6869  0.7364 -0.1524
15246TIP3   OH267152   3.049   6.053   3.966 -0.2494  0.3691 -0.4655
15246TIP3    H167153   3.054   5.960   3.989 -0.6133  0.2948 -0.6761
15246TIP3    H267154   3.121   6.093   4.013 -0.6779  0.1384  0.3980
15247TIP3   OH267155   6.482   6.046  15.594 -0.6026  0.2203  0.1187
15247TIP3    H167156   6.546   5.995  15.642  0.1237  0.6299 -0.4016
15247TIP3    H267157   6.533   6.115  15.552 -1.5808  1.4842  0.9596
15248TIP3   OH267158   3.148   3.397  13.878  0.6265  0.6788  0.2840
15248TIP3    H167159   3.120   3.474  13.828  1.1654  0.7767  0.1311
15248TIP3    H267160   3.112   3.323  13.829 -1.2411  0.8852  1.2860
15249TIP3   OH267161   6.034   6.086   1.731 -0.0555 -0.4026  0.1538
15249TIP3    H167162   6.053   6.034   1.809  0.2519 -1.3508 -0.5375
15249TIP3    H267163   6.113   6.139   1.718 -0.3350  0.1755  0.8128
15250TIP3   OH267164   0.428   3.089   3.569 -0.1692 -0.4450 -0.1234
15250TIP3    H167165   0.471   3.169   3.539  0.6873 -1.5717 -1.9649
15250TIP3    H267166   0.335   3.106   3.554 -0.1115  0.6824  0.6853
15251TIP3   OH267167   4.589   1.889  16.172 -0.1318  0.1791 -0.6197
15251TIP3    H167168   4.606   1.962  16.232 -1.2036  0.7999 -1.0645
15251TIP3    H267169   4.579   1.930  16.086 -0.9965 -0.4511 -0.8322
15252TIP3   OH267170   4.443   4.388  11.718  0.1991 -0.8970  0.0581
15252TIP3    H167171   4.367   4.415  11.666  0.1372 -1.0653  0.0599
15252TIP3    H267172   4.439   4.293  11.717  0.7721 -0.9188 -0.4677
15253TIP3   OH267173   4.699   1.338   5.515  0.9759 -0.2357 -0.2556
15253TIP3    H167174   4.742   1.278   5.576  0.0146 -0.9025 -0.2163
15253TIP3    H267175   4.770   1.372   5.460  1.6161 -0.9381  0.1221
15254TIP3   OH267176   3.236   5.493   4.946 -0.2642  0.0692 -0.7288
15254TIP3    H167177   3.232   5.564   4.882  0.2356  1.5498  0.8559
15254TIP3    H267178   3.148   5.454   4.943 -0.2866  0.2068 -2.2077
15255TIP3   OH267179   3.496   5.151   5.447 -0.0847  0.5386  0.1310
15255TIP3    H167180   3.526   5.135   5.537  0.6735  1.0101 -0.0366
15255TIP3    H267181   3.552   5.096   5.393 -0.4608  0.3484 -0.0648
15256TIP3   OH267182   3.203   5.744  13.189 -0.7864  0.5122 -0.6387
15256TIP3    H167183   3.142   5.687  13.142  0.4759 -1.8524  0.4436
15256TIP3    H267184   3.290   5.713  13.163 -0.0165 -1.3434  3.5559
15257TIP3   OH267185   0.009   5.270  13.438 -0.6464  0.2271  0.5497
15257TIP3    H167186  -0.065   5.324  13.411 -0.2831  0.7632  0.6101
15257TIP3    H267187  -0.024   5.220  13.513 -1.0105  0.2959  0.4388
15258TIP3   OH267188   0.885   6.556   1.403 -0.1530 -0.0393  0.0204
15258TIP3    H167189   0.943   6.574   1.330  0.8956 -0.5681  0.7191
15258TIP3    H267190   0.817   6.624   1.397  0.6734  0.7299 -0.6409
15259TIP3   OH267191   5.999   6.716  11.279  0.1243 -0.0178  0.8369
15259TIP3    H167192   6.062   6.782  11.249  0.8330 -0.7830  0.6265
15259TIP3    H267193   5.920   6.766  11.298  0.2974  0.7525 -0.3883
15260TIP3   OH267194   2.935   2.836   2.316 -0.5868 -0.2315  0.3110
15260TIP3    H167195   2.940   2.798   2.228  0.2053  1.1313 -0.2304
15260TIP3    H267196   2.939   2.760   2.374  0.6315 -1.0141 -0.7763
15261TIP3   OH267197   0.658   4.623   2.482 -0.5015  0.1250  0.7410
15261TIP3    H167198   0.614   4.597   2.563 -1.6475  0.0292  0.0960
15261TIP3    H267199   0.751   4.621   2.504 -0.7415 -1.0318  1.7273
15262TIP3   OH267200   5.034   4.652  13.686  0.7651  0.4103 -0.4778
15262TIP3    H167201   5.074   4.677  13.769  1.6193  1.5482 -1.2109
15262TIP3    H267202   5.078   4.570  13.663  0.5588  0.1170  0.1726
15263TIP3   OH267203   6.055   3.687  12.605 -0.1935  0.2402  0.0644
15263TIP3    H167204   6.053   3.637  12.687  0.6152  1.0234  0.5663
15263TIP3    H267205   6.086   3.774  12.630  1.3644  0.0952 -1.2750
15264TIP3   OH267206   2.257   1.999  11.722 -0.2989 -0.5801 -0.1065
15264TIP3    H167207   2.292   1.927  11.774 -1.7628 -1.2967 -0.0932
15264TIP3    H267208   2.241   2.069  11.785  2.0851  0.1735 -0.2598
15265TIP3   OH267209   2.614   2.301   5.243  0.2122  0.3421 -0.0794
15265TIP3    H167210   2.554   2.230   5.268 -1.0054  0.8615 -1.4185
15265TIP3    H267211   2.615   2.360   5.318 -0.7285  0.1800  0.0634
15266TIP3   OH267212   5.359   0.182  12.045  0.5869 -0.6408  0.0988
15266TIP3    H167213   5.315   0.100  12.067 -0.8383 -0.2693 -1.2620
15266TIP3    H267214   5.365   0.181  11.949  1.4529  0.3932  0.1287
15267TIP3   OH267215   0.283   4.908   4.020 -0.5088 -0.0988  0.1581
15267TIP3    H167216   0.226   4.860   3.959 -1.1510  0.5767  0.2162
15267TIP3    H267217   0.259   4.875   4.106 -0.6016 -0.0309  0.1586
15268TIP3   OH267218   4.879   4.286   1.078 -0.3176  0.3517  0.7004
15268TIP3    H167219   4.846   4.237   1.154 -0.8838 -0.9673 -0.3706
15268TIP3    H267220   4.826   4.254   1.005 -0.0599  1.9204 -0.1865
15269TIP3   OH267221   4.593   1.298   6.112  0.1945 -0.6053 -0.0294
15269TIP3    H167222   4.549   1.238   6.172 -1.8817 -1.2431 -2.0910
15269TIP3    H267223   4.566   1.385   6.141  2.1480 -0.6875  2.1555
15270TIP3   OH267224   5.178   3.386  13.197  0.0988  0.1472 -0.0680
15270TIP3    H167225   5.183   3.420  13.286  1.1422  0.9247 -0.4126
15270TIP3    H267226   5.207   3.459  13.142 -0.3064 -0.4022 -1.0293
15271TIP3   OH267227   1.627   6.124  12.989 -0.2079 -0.1707  0.0873
15271TIP3    H167228   1.591   6.190  12.930 -1.6645 -0.9408  0.1034
15271TIP3    H267229   1.692   6.172  13.042 -0.4654  0.9946 -0.6401
15272TIP3   OH267230   6.002   1.351  12.805 -0.0924 -0.7323  0.0951
15272TIP3    H167231   5.961   1.413  12.865 -0.7154 -1.5608  0.5332
15272TIP3    H267232   6.005   1.397  12.721 -1.3414 -0.4397  0.2103
15273TIP3   OH267233   5.662   4.181   4.277 -0.4811 -0.0528 -0.0036
15273TIP3    H167234   5.694   4.142   4.195 -2.3731 -1.8725  0.0704
15273TIP3    H267235   5.649   4.273   4.255  1.8581  0.1117 -0.8744
15274TIP3   OH267236   2.983   3.695   0.891  0.3756 -1.3799 -0.0064
15274TIP3    H167237   3.036   3.775   0.885  0.9416 -1.7785 -0.3045
15274TIP3    H267238   2.908   3.721   0.945  0.1977 -0.4550 -0.6891
15275TIP3   OH267239   2.643   2.661   6.830 -0.4972  0.6450  0.2609
15275TIP3    H167240   2.643   2.729   6.763  0.2445  1.1939  0.8077
15275TIP3    H267241   2.578   2.691   6.894 -1.2725  0.0757 -0.2421
15276TIP3   OH267242   5.516   6.595   2.779 -0.1851 -0.3532 -0.3122
15276TIP3    H167243   5.434   6.580   2.731 -0.8006  1.0704  0.2501
15276TIP3    H267244   5.579   6.538   2.736 -1.2617 -0.8028 -1.3510
15277TIP3   OH267245   4.151   1.331  13.445  0.1232  0.5994 -0.3557
15277TIP3    H167246   4.056   1.324  13.434 -0.3219  1.1126  2.6109
15277TIP3    H267247   4.172   1.419  13.412 -1.1900  2.2763  3.0082
15278TIP3   OH267248   2.429   1.917   2.998  0.0023 -0.1395  0.0465
15278TIP3    H167249   2.427   1.964   3.082 -0.6125 -1.5719  0.8586
15278TIP3    H267250   2.342   1.932   2.961  0.7007  1.5819 -0.9863
15279TIP3   OH267251   3.958   1.669  12.668 -0.2618  0.1536 -0.4335
15279TIP3    H167252   3.895   1.607  12.631 -1.2740  1.0514 -0.2222
15279TIP3    H267253   4.043   1.638  12.636 -0.9489 -0.0930 -2.0834
15280TIP3   OH267254   5.067   5.428   1.362 -0.6082 -0.3321  0.2482
15280TIP3    H167255   5.099   5.339   1.352  0.5948  0.2208 -0.9533
15280TIP3    H267256   4.992   5.433   1.302  1.6370  0.5448 -2.6401
15281TIP3   OH267257   4.773   6.325   4.966  0.5369  0.4386  0.5582
15281TIP3    H167258   4.852   6.378   4.982  0.9417  0.3240 -0.9830
15281TIP3    H267259   4.807   6.238   4.947  0.0805  0.5487 -0.7896
15282TIP3   OH267260   0.764   3.906   5.528  0.0327  0.4349  0.5093
15282TIP3    H167261   0.677   3.873   5.506  0.0605  1.9625 -1.9839
15282TIP3    H267262   0.790   3.959   5.453  2.2217  1.7716  2.1476
15283TIP3   OH267263   6.738   2.576  13.384  0.0144 -0.1564  0.2821
15283TIP3    H167264   6.737   2.671  13.393  1.6298  0.1873 -2.4066
15283TIP3    H267265   6.656   2.554  13.341 -0.2303  0.0401  0.6457
15284TIP3   OH267266   5.893   4.751   6.736  0.4993  0.1029 -0.4026
15284TIP3    H167267   5.932   4.696   6.668  0.4061 -0.0259 -0.3531
15284TIP3    H267268   5.803   4.719   6.742  0.4748  0.1932 -0.3008
15285TIP3   OH267269   3.927   3.710  12.305  0.0595  0.0541 -0.1893
15285TIP3    H167270   3.982   3.751  12.372 -1.1406  1.3149  0.0332
15285TIP3    H267271   3.847   3.685  12.351  0.0566 -0.9261 -0.7149
15286TIP3   OH267272   6.430   5.984  12.896  0.7605  0.6259 -0.2365
15286TIP3    H167273   6.446   5.898  12.935  1.1093  0.1450 -1.3949
15286TIP3    H267274   6.350   5.972  12.844  0.4048  1.1978  0.1813
15287TIP3   OH267275   3.051   0.153  16.183  0.1953 -0.3185 -0.9413
15287TIP3    H167276   2.998   0.093  16.131  0.0240 -0.3960 -0.6787
15287TIP3    H267277   2.996   0.173  16.259  0.6509 -0.6103 -0.5350
15288TIP3   OH267278   4.859   3.956   5.464 -0.3298  0.5762 -0.4000
15288TIP3    H167279   4.795   4.026   5.458  0.6060  1.5805  1.0144
15288TIP3    H267280   4.815   3.887   5.515 -1.4419 -0.1175 -2.2633
15289TIP3   OH267281   6.209   1.158   2.663  0.1484  0.3142 -0.3430
15289TIP3    H167282   6.212   1.190   2.753 -0.1884 -0.3202 -0.0952
15289TIP3    H267283   6.290   1.108   2.652  0.4327  0.8201 -0.5629
15290TIP3   OH267284   6.261   4.493  10.683  0.1165  0.0143  0.4227
15290TIP3    H167285   6.260   4.488  10.778 -0.9008  0.2673  0.4278
15290TIP3    H267286   6.237   4.404  10.654  0.4000 -0.0559  0.4002
15291TIP3   OH267287   0.608   3.731  16.479 -0.8018  0.9984  0.2729
15291TIP3    H167288   0.654   3.650  16.503 -1.8749 -0.0177 -1.0401
15291TIP3    H267289   0.608   3.783  16.560  1.2292  0.3488  0.7189
15292TIP3   OH267290   5.689   1.500   3.532  0.1221  0.1240 -0.0846
15292TIP3    H167291   5.652   1.447   3.603  0.2307  0.8359  0.5175
15292TIP3    H267292   5.623   1.567   3.515 -0.0852 -0.2975 -0.9537
15293TIP3   OH267293   1.110   1.284  12.462  0.8366  0.5693  0.3008
15293TIP3    H167294   1.187   1.308  12.410  1.2148 -0.6477  0.2846
15293TIP3    H267295   1.103   1.189  12.452 -0.0895  0.5451  1.1020
15294TIP3   OH267296   5.648   4.935  15.218 -0.3698 -0.1629  0.0466
15294TIP3    H167297   5.644   4.952  15.312  1.2797 -2.2284  0.5315
15294TIP3    H267298   5.570   4.882  15.200 -1.5750  1.5994 -0.1056
15295TIP3   OH267299   0.616   3.824  17.126  0.4784 -0.6572  0.3202
15295TIP3    H167300   0.568   3.902  17.095  0.6524 -0.5066  0.4287
15295TIP3    H267301   0.706   3.855  17.139  0.3836 -0.6910  1.0824
15296TIP3   OH267302   2.462   0.472   4.593  0.4924  0.1982  0.2651
15296TIP3    H167303   2.425   0.384   4.581  0.5667  0.0809  0.8727
15296TIP3    H267304   2.472   0.481   4.687  2.0645  0.2196  0.0950
15297TIP3   OH267305   3.616   3.333  11.409  0.1406 -0.2617 -0.5805
15297TIP3    H167306   3.695   3.372  11.371  0.3746 -0.1577  0.0229
15297TIP3    H267307   3.631   3.238  11.402 -0.1412 -0.2545 -1.4288
15298TIP3   OH267308   0.825   5.011  12.943  0.3159  0.7372  0.3963
15298TIP3    H167309   0.744   5.017  12.893 -0.8210  0.2186  2.1042
15298TIP3    H267310   0.826   4.921  12.976  1.8999  0.5580 -0.0973
15299TIP3   OH267311   0.115   3.808   3.841  0.8633  0.3453  0.1477
15299TIP3    H167312   0.166   3.807   3.760  1.3844 -0.2364  0.4788
15299TIP3    H267313   0.168   3.859   3.902 -0.3977  2.3705 -0.4313
15300TIP3   OH267314   6.544   1.136  15.129 -0.6031  0.3624 -0.4013
15300TIP3    H167315   6.534   1.122  15.035 -0.3056  0.6128 -0.4713
15300TIP3    H267316   6.639   1.147  15.142 -0.9169  3.7639 -0.5356
15301TIP3   OH267317   5.090   5.112   3.480  0.0249  0.7089  0.5159
15301TIP3    H167318   5.147   5.122   3.404 -1.5180 -0.1990 -0.7780
15301TIP3    H267319   5.150   5.114   3.555  1.4272  2.9492 -0.6054
15302TIP3   OH267320   6.775   1.854  15.277  0.0964 -0.7183  0.1611
15302TIP3    H167321   6.784   1.937  15.229 -0.0718 -0.4899  0.5231
15302TIP3    H267322   6.810   1.788  15.217  0.3422 -0.3706 -0.0801
15303TIP3   OH267323   6.051   5.783   3.162  0.1741 -0.6958  0.0277
15303TIP3    H167324   6.011   5.706   3.203  1.3470 -0.0998  2.4094
15303TIP3    H267325   6.120   5.747   3.106 -1.5605 -1.5425 -1.6115
15304TIP3   OH267326   3.769   6.595  12.443  0.2606 -0.2614  0.2664
15304TIP3    H167327   3.791   6.514  12.489  0.7172 -0.9467 -1.1279
15304TIP3    H267328   3.840   6.656  12.467 -0.0551 -0.2830  1.2725
15305TIP3   OH267329   3.403   1.032   1.818  0.0587  0.1267  0.1971
15305TIP3    H167330   3.405   0.950   1.770  1.0517  1.2734 -1.8251
15305TIP3    H267331   3.483   1.031   1.871 -0.7383 -0.8902  1.3816
15306TIP3   OH267332   5.942   5.756  16.756 -0.7572 -0.1365  0.1078
15306TIP3    H167333   6.001   5.748  16.830 -1.3959  0.1110  0.6499
15306TIP3    H267334   5.881   5.826  16.780  0.0555  1.1033 -1.3690
15307TIP3   OH267335   2.173   5.767  12.381  0.4278 -0.1666  0.1368
15307TIP3    H167336   2.227   5.711  12.437 -0.1834 -0.4594  0.4327
15307TIP3    H267337   2.228   5.783  12.304  0.8228 -0.7136  0.3019
15308TIP3   OH267338   0.333   0.611   5.521  0.2349 -0.4468 -0.3478
15308TIP3    H167339   0.318   0.630   5.613  2.0610 -1.9418  0.2911
15308TIP3    H267340   0.420   0.571   5.518 -0.1180 -1.1608 -2.6101
15309TIP3   OH267341   6.129   4.722   6.307  0.3044 -0.1935 -0.3444
15309TIP3    H167342   6.195   4.684   6.365  1.4186  1.4715 -0.5058
15309TIP3    H267343   6.168   4.717   6.219  0.2052  0.7645 -0.4468
15310TIP3   OH267344   0.297   5.386  15.996 -0.9787  0.7389  0.3923
15310TIP3    H167345   0.230   5.348  16.053  0.0089  0.0664  1.1206
15310TIP3    H267346   0.273   5.358  15.908 -0.4921 -1.2440  0.8720
15311TIP3   OH267347   2.881   3.400  14.590  0.1220  0.2307  0.2562
15311TIP3    H167348   2.900   3.389  14.683  0.6366 -0.9629  0.0195
15311TIP3    H267349   2.943   3.342  14.546  0.4997  1.4671 -0.8762
15312TIP3   OH267350   1.212   4.823   0.906 -0.3580  0.2273  0.3111
15312TIP3    H167351   1.135   4.870   0.876 -1.3810 -0.9844  0.9999
15312TIP3    H267352   1.285   4.880   0.884 -1.2061  0.1947 -2.7901
15313TIP3   OH267353   2.729   5.795   5.116 -0.4337  0.1535 -0.0670
15313TIP3    H167354   2.691   5.709   5.096 -2.5548  1.3445 -1.2786
15313TIP3    H267355   2.816   5.793   5.075 -0.8179 -1.0857 -0.8404
15314TIP3   OH267356   0.764   6.311   3.831  0.2522  0.2675  0.3442
15314TIP3    H167357   0.731   6.222   3.835 -0.1920  0.3214 -1.6514
15314TIP3    H267358   0.857   6.303   3.851  0.2258 -0.6550  0.0977
15315TIP3   OH267359   4.878   2.508   5.215 -0.0147 -0.3883  0.5469
15315TIP3    H167360   4.809   2.481   5.276  0.8552 -2.4528  0.6628
15315TIP3    H267361   4.902   2.428   5.169  1.7605  0.4544 -0.0608
15316TIP3   OH267362   4.092   4.462   3.768  0.4929  0.2960 -0.3229
15316TIP3    H167363   4.177   4.419   3.772  0.9645  1.2383  0.1681
15316TIP3    H267364   4.049   4.424   3.692  1.4149 -0.0925 -0.6590
15317TIP3   OH267365   4.526   0.047  14.172 -0.1765  0.5240  0.1742
15317TIP3    H167366   4.565   0.123  14.128  0.2137  0.9958  1.3285
15317TIP3    H267367   4.467   0.084  14.238 -1.9895 -0.1844 -0.9976
15318TIP3   OH267368   2.111   1.433  14.915 -0.7299  0.3295  0.1266
15318TIP3    H167369   2.065   1.413  14.834  0.1635 -2.2641  0.2071
15318TIP3    H267370   2.054   1.398  14.984  0.1868 -0.7193  0.3692
15319TIP3   OH267371   2.507   2.948   5.282  0.4105 -0.5623 -0.5648
15319TIP3    H167372   2.580   3.009   5.295 -0.7188  0.7723 -0.4514
15319TIP3    H267373   2.546   2.862   5.296  1.7140  0.1999  0.6544
15320TIP3   OH267374   5.192   5.708  11.415  0.1487  0.5344 -0.3512
15320TIP3    H167375   5.207   5.617  11.390 -0.1327  0.9762 -2.1754
15320TIP3    H267376   5.280   5.744  11.430  0.3037  0.2101 -0.4817
15321TIP3   OH267377   0.054   3.939   4.733 -0.2623 -0.3486 -0.2786
15321TIP3    H167378   0.010   3.991   4.667  0.6677  0.0629 -0.5842
15321TIP3    H267379  -0.016   3.893   4.779 -1.0724  1.0307 -0.1173
15322TIP3   OH267380   6.031   0.051   5.301 -1.0972 -0.2476 -0.2563
15322TIP3    H167381   6.036   0.065   5.207  0.9431  0.9822  0.0128
15322TIP3    H267382   6.069  -0.035   5.315 -1.3605 -0.4108 -0.5489
15323TIP3   OH267383   0.600   4.191   4.985  0.1470 -0.2316 -0.5171
15323TIP3    H167384   0.589   4.097   4.967  0.1758 -0.0107 -1.7008
15323TIP3    H267385   0.694   4.203   4.992  0.0937 -0.4821  0.6895
15324TIP3   OH267386   2.407   5.698  11.929 -0.3723 -0.0677  0.4372
15324TIP3    H167387   2.496   5.671  11.906 -0.7945  0.3084 -1.7866
15324TIP3    H267388   2.359   5.617  11.943 -0.2135 -0.3435 -0.5674
15325TIP3   OH267389   0.858   2.027   1.464 -0.0510  0.5704  0.1430
15325TIP3    H167390   0.814   2.044   1.380  1.1065  1.0562 -0.3753
15325TIP3    H267391   0.814   1.950   1.499 -0.2289  0.0774 -1.1358
15326TIP3   OH267392   6.231   0.451  11.229 -0.1982  0.1751 -0.2288
15326TIP3    H167393   6.202   0.407  11.309  0.1658  1.5954  0.6969
15326TIP3    H267394   6.326   0.440  11.230  0.0603  2.2690  0.8068
15327TIP3   OH267395   3.052   1.150  16.837 -0.3050 -0.0773  0.5376
15327TIP3    H167396   2.978   1.175  16.893 -0.3437 -1.2431  1.0134
15327TIP3    H267397   3.128   1.192  16.878 -0.2062 -1.5917  1.9706
15328TIP3   OH267398   6.370   4.047   5.521  0.0660 -0.3723 -0.1393
15328TIP3    H167399   6.452   4.000   5.504  0.0794 -0.0222 -1.0631
15328TIP3    H267400   6.388   4.137   5.494 -0.2772 -0.0526  0.6944
15329TIP3   OH267401   6.582   6.700  14.398  0.2285  0.0692  0.1105
15329TIP3    H167402   6.599   6.668  14.310 -2.2720  0.7865 -0.6805
15329TIP3    H267403   6.641   6.650  14.454  1.0385 -1.1972 -1.8324
15330TIP3   OH267404   4.532   0.693   0.571  0.4515 -0.3605  0.3785
15330TIP3    H167405   4.444   0.709   0.538  1.0794  2.2929 -0.1380
15330TIP3    H267406   4.520   0.639   0.649 -1.5350 -0.9028 -0.2976
15331TIP3   OH267407   2.678   6.300   1.204  0.0237  0.1384 -0.5002
15331TIP3    H167408   2.729   6.380   1.193 -0.0886  0.1904 -0.6471
15331TIP3    H267409   2.694   6.273   1.294 -2.2530  1.8928  0.4676
15332TIP3   OH267410   0.016   6.767   3.507  0.5416 -1.3180  0.3967
15332TIP3    H167411  -0.073   6.783   3.538  0.8899  1.3228  0.1647
15332TIP3    H267412   0.009   6.772   3.411  0.5952 -3.1208  0.2888
15333TIP3   OH267413   4.723   0.714   3.102 -0.0788 -0.2793 -0.4824
15333TIP3    H167414   4.807   0.683   3.134  1.0329  2.3507 -0.7418
15333TIP3    H267415   4.729   0.809   3.105 -3.4579 -0.0291  0.5325
15334TIP3   OH267416   6.495   3.900  14.682  0.0001  0.5405 -0.0517
15334TIP3    H167417   6.433   3.942  14.622  2.2386  0.4822 -2.5024
15334TIP3    H267418   6.565   3.964  14.693  1.1607 -0.7114 -0.0457
15335TIP3   OH267419   5.696   5.347   1.369  0.5966 -0.2280  0.4257
15335TIP3    H167420   5.743   5.339   1.286  0.7245 -0.4661  0.5219
15335TIP3    H267421   5.763   5.370   1.433  0.6704 -1.1046  0.6663
15336TIP3   OH267422   2.197   3.054   6.473 -0.3172 -0.5665  0.1802
15336TIP3    H167423   2.129   3.120   6.488 -1.2054 -1.1229 -1.3033
15336TIP3    H267424   2.267   3.102   6.428 -0.8256 -0.5619 -0.6104
15337TIP3   OH267425   0.562   0.845  16.337 -0.1427  0.1945  0.3411
15337TIP3    H167426   0.533   0.755  16.327 -1.0788  0.6279 -0.9778
15337TIP3    H267427   0.496   0.886  16.392 -0.3655  0.3854 -0.0680
15338TIP3   OH267428   5.628   2.962   4.865  0.5143  0.3309  0.9284
15338TIP3    H167429   5.707   2.994   4.908  1.3345  0.3603 -0.5528
15338TIP3    H267430   5.650   2.873   4.838 -0.2673  0.0288  1.2839
15339TIP3   OH267431   5.570   0.198   5.135  0.0223  0.3886 -0.2964
15339TIP3    H167432   5.482   0.172   5.161 -0.2691  1.1050 -0.5610
15339TIP3    H267433   5.598   0.130   5.073 -0.5829  0.4972 -0.6877
15340TIP3   OH267434   6.097   1.733  13.662  0.2063  0.3524  0.1446
15340TIP3    H167435   6.172   1.727  13.603  1.1857  1.7391  1.1853
15340TIP3    H267436   6.070   1.643  13.676  1.4423 -0.1453 -0.5780
15341TIP3   OH267437   0.028   2.212   1.438 -0.0457 -0.3485  0.1549
15341TIP3    H167438   0.077   2.290   1.463 -0.0076 -0.1197 -0.6066
15341TIP3    H267439   0.029   2.213   1.342 -0.8007 -0.8110  0.1375
15342TIP3   OH267440   2.995   0.011   5.651 -0.1269 -0.0944 -0.1642
15342TIP3    H167441   3.024   0.039   5.564  0.4570 -0.4792 -0.0976
15342TIP3    H267442   3.064  -0.049   5.681 -0.8199 -0.7508  0.1416
15343TIP3   OH267443   2.762   2.388   6.037  0.2064  0.1753  0.2065
15343TIP3    H167444   2.754   2.346   6.123  0.3388  0.4648  0.3580
15343TIP3    H267445   2.689   2.352   5.987 -0.3738  0.6518  0.7048
15344TIP3   OH267446   0.076   0.736  14.791  0.6242  0.2019 -0.8654
15344TIP3    H167447   0.157   0.686  14.793 -0.6273 -1.8715 -0.0123
15344TIP3    H267448   0.034   0.712  14.708 -0.1248 -0.4200 -0.3153
15345TIP3   OH267449   4.472   3.187  12.301  0.9033 -0.1254  0.6410
15345TIP3    H167450   4.499   3.154  12.387 -0.1743 -2.9829 -0.0667
15345TIP3    H267451   4.400   3.247  12.321  1.0719 -0.2764  1.7749
15346TIP3   OH267452   5.318   5.414  12.182 -0.0742  0.2899  0.4554
15346TIP3    H167453   5.367   5.399  12.101 -0.7128 -0.3500  0.1807
15346TIP3    H267454   5.309   5.327  12.221 -0.1827  0.5316  0.9771
15347TIP3   OH267455   0.098   3.623   1.551  0.0824  0.1782  0.3002
15347TIP3    H167456   0.079   3.529   1.554 -1.5032  0.4999  0.4731
15347TIP3    H267457   0.115   3.647   1.642 -0.4954  0.2556  0.3891
15348TIP3   OH267458   2.858   0.233  11.279  0.3356 -0.9494  0.3652
15348TIP3    H167459   2.893   0.188  11.357 -0.5002 -0.5672  0.9696
15348TIP3    H267460   2.877   0.174  11.207  1.8136 -0.9602  0.7554
15349TIP3   OH267461   0.964   2.538   1.488  0.4983 -0.3441  0.4356
15349TIP3    H167462   0.979   2.574   1.576  0.5902 -1.7432  1.0147
15349TIP3    H267463   0.957   2.443   1.502 -1.3764 -0.4205 -0.8220
15350TIP3   OH267464   3.047   1.929   5.626  0.1042  0.0448  0.0466
15350TIP3    H167465   3.074   1.907   5.715 -0.0334 -1.9424 -0.3898
15350TIP3    H267466   3.068   2.022   5.617  0.2949  0.2136  2.0828
15351TIP3   OH267467   4.278   5.346  12.495 -0.0381 -0.1574  0.0718
15351TIP3    H167468   4.291   5.440  12.489 -0.7146  0.0367  1.4767
15351TIP3    H267469   4.366   5.308  12.490  0.1857  0.5055 -1.0909
15352TIP3   OH267470   5.982   5.751  13.466 -0.2910  0.2190  0.8881
15352TIP3    H167471   5.984   5.729  13.559  0.9021  0.6849  0.9820
15352TIP3    H267472   6.019   5.839  13.461 -0.4741  0.2502 -0.0136
15353TIP3   OH267473   0.716   1.970  12.720  0.6412  0.3645 -0.1126
15353TIP3    H167474   0.790   2.031  12.723 -0.6154  1.9702 -0.5834
15353TIP3    H267475   0.680   1.981  12.631 -0.7440  0.3423  0.4302
15354TIP3   OH267476   5.943   3.058  14.825  0.1116  0.3913  0.5143
15354TIP3    H167477   5.940   3.036  14.918 -1.5196 -0.9208  0.1665
15354TIP3    H267478   5.856   3.093  14.806 -0.0622 -0.8024 -0.8775
15355TIP3   OH267479   5.683   6.434  12.434 -0.4960 -0.3395 -0.1554
15355TIP3    H167480   5.682   6.350  12.388  0.9509 -2.0525  2.8237
15355TIP3    H267481   5.628   6.419  12.511  1.2508  0.8605  1.3598
15356TIP3   OH267482   1.099   3.451  14.320  0.4865  0.1971  0.1932
15356TIP3    H167483   1.118   3.519  14.255  1.1457  0.3864  0.5816
15356TIP3    H267484   1.162   3.382  14.301  1.0567  0.4963  0.9976
15357TIP3   OH267485   1.645   3.336  16.819  0.0283 -0.0843  0.2566
15357TIP3    H167486   1.620   3.384  16.899 -0.3736  1.4505 -0.7727
15357TIP3    H267487   1.702   3.397  16.772  1.0245 -1.3529 -0.1928
15358TIP3   OH267488   2.614   2.585   2.448 -0.3156  0.5019  0.0162
15358TIP3    H167489   2.694   2.637   2.448 -0.7625  1.1940 -0.9236
15358TIP3    H267490   2.628   2.521   2.517  1.9398 -0.7822 -1.5767
15359TIP3   OH267491   1.431   1.155  11.230 -0.4102 -0.4404  0.0201
15359TIP3    H167492   1.500   1.191  11.285  1.3418 -2.4586 -0.7964
15359TIP3    H267493   1.361   1.131  11.291 -0.9453  2.6953  0.7357
15360TIP3   OH267494   5.609   6.210  10.224  0.2318 -1.0696 -0.1859
15360TIP3    H167495   5.525   6.164  10.225 -2.4152  3.4564 -0.4939
15360TIP3    H267496   5.605   6.269  10.299  2.8945 -0.2609 -0.6245
15361TIP3   OH267497   1.935   2.412   5.863  0.2220 -0.4838 -0.0385
15361TIP3    H167498   1.995   2.410   5.937  0.5735 -0.3026 -0.3168
15361TIP3    H267499   1.875   2.339   5.879 -1.2251  1.0494  1.6947
15362TIP3   OH267500   0.318   1.144  13.333 -0.4019  0.2161  0.3853
15362TIP3    H167501   0.268   1.187  13.264  0.8506  0.0071 -0.6628
15362TIP3    H267502   0.395   1.200  13.346  1.0602 -1.5022 -0.7366
15363TIP3   OH267503   4.759   2.999   2.948 -1.0088  0.1031  0.3599
15363TIP3    H167504   4.842   2.986   2.903 -0.9814 -1.4257  0.8177
15363TIP3    H267505   4.782   3.048   3.027 -0.3883 -1.0604  0.9253
15364TIP3   OH267506   1.714   2.894   5.822  0.4770  0.2243  0.1617
15364TIP3    H167507   1.746   2.963   5.764  2.4889  0.2821  1.2945
15364TIP3    H267508   1.706   2.817   5.766  1.1917  0.5965 -0.4536
15365TIP3   OH267509   5.301   3.982   2.988  0.1093 -0.2988  0.3939
15365TIP3    H167510   5.364   3.932   2.936  0.0967  0.5403 -0.4460
15365TIP3    H267511   5.332   4.073   2.983 -1.8301  0.3188 -1.0540
15366TIP3   OH267512   1.933   1.867   3.615 -0.4822 -0.3774  0.2879
15366TIP3    H167513   1.959   1.782   3.580 -0.1556  0.1232 -0.6952
15366TIP3    H267514   1.964   1.867   3.705  0.9996 -0.6324 -0.2220
15367TIP3   OH267515   4.941   3.554   5.484 -0.5942 -0.6653  0.5697
15367TIP3    H167516   5.006   3.623   5.471  0.1309 -0.9735  2.4028
15367TIP3    H267517   4.988   3.473   5.466 -1.0367 -0.7828 -0.0928
15368TIP3   OH267518   1.051   4.174  16.989  0.0427  0.0348  0.3188
15368TIP3    H167519   1.103   4.094  16.974  1.0879  0.5273  1.1574
15368TIP3    H267520   1.068   4.229  16.913 -0.1639 -0.2820  0.0432
15369TIP3   OH267521   1.283   6.567  14.557 -0.3790 -0.0873 -0.4422
15369TIP3    H167522   1.203   6.588  14.508 -0.4527  1.6746  0.3791
15369TIP3    H267523   1.323   6.496  14.508 -0.6266  1.4004 -2.8948
15370TIP3   OH267524   1.325   5.700   4.046  0.0236 -0.1533  0.3520
15370TIP3    H167525   1.236   5.666   4.060  0.2313 -0.7740  0.1800
15370TIP3    H267526   1.339   5.761   4.118 -0.1856 -0.7634  0.9143
15371TIP3   OH267527   3.355   2.052  14.675  0.3510  0.0178 -0.4262
15371TIP3    H167528   3.301   2.007  14.610  0.6376  1.3940 -1.6461
15371TIP3    H267529   3.303   2.128  14.701 -0.3985 -1.2907  2.0719
15372TIP3   OH267530   4.819   4.331   3.614 -0.0316  0.7755 -0.0337
15372TIP3    H167531   4.896   4.386   3.600  1.5409 -1.2207  0.5705
15372TIP3    H267532   4.831   4.293   3.700 -0.9268 -0.7590 -0.5625
15373TIP3   OH267533   1.334   2.634   4.777  0.1539 -0.1222 -0.3722
15373TIP3    H167534   1.271   2.704   4.791  0.4949 -0.0353  0.7729
15373TIP3    H267535   1.402   2.649   4.843  1.7552  0.2209 -2.0428
15374TIP3   OH267536   5.627   3.596  12.092 -0.2093 -0.1416  0.0931
15374TIP3    H167537   5.592   3.553  12.170  1.8379  1.7900  2.1670
15374TIP3    H267538   5.719   3.572  12.091  0.1452  1.1778 -0.7865
15375TIP3   OH267539   2.160   1.820   2.644 -0.0688  0.7455 -0.1373
15375TIP3    H167540   2.232   1.759   2.659 -0.8572  0.2539  1.7196
15375TIP3    H267541   2.081   1.771   2.665 -0.8296  1.8630 -0.3298
15376TIP3   OH267542   1.543   6.491   4.093 -0.4593 -0.3774  0.4583
15376TIP3    H167543   1.628   6.461   4.124 -0.0929  0.9412  0.7638
15376TIP3    H267544   1.492   6.505   4.173 -0.4069  0.4207  0.3576
15377TIP3   OH267545   5.985   0.585  15.505  0.3467 -0.1379 -0.5029
15377TIP3    H167546   5.940   0.501  15.495  0.7197 -0.8817  3.1972
15377TIP3    H267547   5.928   0.637  15.562  2.0850  0.5071  0.7004
15378TIP3   OH267548   2.996   0.749  12.143 -0.0185 -0.1817  0.3003
15378TIP3    H167549   2.950   0.784  12.066 -0.5184 -1.2155  0.1132
15378TIP3    H267550   2.974   0.809  12.214 -0.5188  0.1219 -0.1088
15379TIP3   OH267551   0.238   3.292   5.736 -0.5019 -0.1344  0.2960
15379TIP3    H167552   0.327   3.320   5.758 -0.7883  0.7373  0.3472
15379TIP3    H267553   0.187   3.310   5.815 -0.9894  0.5694 -0.1777
15380TIP3   OH267554   3.407   3.004   5.254 -0.0223 -0.3357  0.6173
15380TIP3    H167555   3.360   2.930   5.215 -0.1330  0.3670 -0.6104
15380TIP3    H267556   3.444   2.969   5.335 -0.4592 -1.6067  0.2808
15381TIP3   OH267557   1.968   4.679  13.104 -0.2128 -0.0119 -0.3531
15381TIP3    H167558   1.880   4.716  13.099 -0.3731 -0.4351 -0.6910
15381TIP3    H267559   1.986   4.673  13.198 -1.0922 -1.1903 -0.2332
15382TIP3   OH267560   3.808   2.799   2.573  0.1546  0.6402 -0.3497
15382TIP3    H167561   3.780   2.723   2.624  2.4915  0.3305  0.5349
15382TIP3    H267562   3.747   2.869   2.598  0.3250  0.0847  1.7669
15383TIP3   OH267563   5.072   5.886  16.694  0.1381 -1.1886 -0.0583
15383TIP3    H167564   5.115   5.965  16.659 -0.0585 -0.7185  0.7377
15383TIP3    H267565   5.056   5.831  16.617  0.3414 -0.4816 -0.6158
15384TIP3   OH267566   2.777   0.379  13.141 -0.1539  0.2238  0.6011
15384TIP3    H167567   2.697   0.341  13.178 -1.2433  0.9341 -0.9771
15384TIP3    H267568   2.836   0.305  13.129 -0.2099 -0.1954  2.6096
15385TIP3   OH267569   4.166   6.104   1.631 -0.2992  0.1431 -0.1042
15385TIP3    H167570   4.244   6.101   1.576  0.0859  0.7376  0.4096
15385TIP3    H267571   4.183   6.042   1.702 -0.7747 -0.5829 -0.6128
15386TIP3   OH267572   3.106   4.683   4.221 -0.6025 -0.2731  0.1086
15386TIP3    H167573   3.159   4.658   4.146  1.3119  2.5259  0.4302
15386TIP3    H267574   3.140   4.630   4.293  0.1653 -0.2099 -0.2020
15387TIP3   OH267575   3.669   3.264  16.838 -0.2990 -0.0439  0.1911
15387TIP3    H167576   3.603   3.332  16.823 -0.5561 -0.4320 -0.4681
15387TIP3    H267577   3.752   3.308  16.821 -0.5480 -0.3147 -1.9399
15388TIP3   OH267578   3.153   5.380  13.984 -0.2666  0.0871  0.2802
15388TIP3    H167579   3.233   5.420  13.947  0.1419  1.0206  2.1029
15388TIP3    H267580   3.128   5.314  13.920  0.8153  1.1862 -1.3263
15389TIP3   OH267581   2.980   3.486  11.134  0.2152  0.6808  0.2758
15389TIP3    H167582   3.038   3.413  11.156 -0.2182  0.1243 -0.4013
15389TIP3    H267583   2.973   3.536  11.215  1.4274  0.6025  0.4371
15390TIP3   OH267584   3.660   3.635  12.441 -0.0498 -0.1246  0.4150
15390TIP3    H167585   3.606   3.702  12.399 -0.2020  0.4477  1.5086
15390TIP3    H267586   3.644   3.646  12.534  1.0797 -0.6968  0.6926
15391TIP3   OH267587   2.234   3.865   6.027  0.2567  0.1340  0.8408
15391TIP3    H167588   2.212   3.903   5.942 -0.4318 -0.0247  0.9445
15391TIP3    H267589   2.154   3.820   6.054  0.6411 -0.2488  1.3363
15392TIP3   OH267590   1.640   6.568   1.590  0.5569  0.4937  0.2950
15392TIP3    H167591   1.577   6.510   1.632  0.8589 -0.4765 -0.5916
15392TIP3    H267592   1.601   6.656   1.599  0.7434  0.3701  2.8442
15393TIP3   OH267593   4.786   5.898  12.137  0.0619  0.3731  0.0250
15393TIP3    H167594   4.752   5.920  12.223  0.8370  0.4240  0.3190
15393TIP3    H267595   4.881   5.908  12.145  0.4086 -2.3261 -0.0121
15394TIP3   OH267596   3.799   1.388   5.790  0.7021 -0.6881 -0.2703
15394TIP3    H167597   3.793   1.381   5.695 -1.2958  0.2658 -0.2599
15394TIP3    H267598   3.755   1.310   5.823  1.3894 -1.0165 -0.1268
15395TIP3   OH267599   5.321   4.719  14.059  0.4268 -0.4887  0.5956
15395TIP3    H167600   5.259   4.734  14.130  1.1599  1.4225  0.8438
15395TIP3    H267601   5.284   4.644  14.011 -1.7986  0.2909  1.0370
15396TIP3   OH267602   3.506   6.779   4.720  0.2893 -0.2089  0.1510
15396TIP3    H167603   3.538   6.745   4.636  3.7379  0.8797  0.9529
15396TIP3    H267604   3.488   6.700   4.772  2.6341 -0.9320 -0.0494
15397TIP3   OH267605   1.353   5.533  13.203 -0.0776 -0.4432  0.2091
15397TIP3    H167606   1.384   5.586  13.130  0.5387 -1.8203 -0.5579
15397TIP3    H267607   1.258   5.541  13.199  0.0791  4.0605  2.7743
15398TIP3   OH267608   0.900   0.735   3.623  0.0323 -0.5204  0.2749
15398TIP3    H167609   0.904   0.814   3.676  1.6526 -0.9733  0.8232
15398TIP3    H267610   0.860   0.669   3.680  0.7513 -0.7060  0.5646
15399TIP3   OH267611   0.493   3.628   1.153 -0.3694  0.2559 -0.4237
15399TIP3    H167612   0.432   3.568   1.111 -0.7554  1.3260 -1.4386
15399TIP3    H267613   0.470   3.714   1.118  0.5050  0.9312  0.6065
15400TIP3   OH267614   0.715   2.374  14.650 -0.3047 -0.2481  0.0735
15400TIP3    H167615   0.753   2.301  14.600  0.3899  0.1425  0.0179
15400TIP3    H267616   0.669   2.427  14.584 -0.1099 -0.1931 -0.0210
15401TIP3   OH267617   1.090   4.749   1.141  0.0113 -0.4183  0.4122
15401TIP3    H167618   1.117   4.720   1.054 -1.0369  3.2070 -1.2258
15401TIP3    H267619   1.002   4.713   1.152 -0.2872  0.0035 -0.5168
15402TIP3   OH267620   2.476   0.056   5.177 -0.4162  0.1751 -0.0602
15402TIP3    H167621   2.504   0.021   5.262 -1.3967 -1.9127 -0.5692
15402TIP3    H267622   2.381   0.044   5.177 -0.4236  0.2005 -1.4478
15403TIP3   OH267623   5.799   1.638  13.352  0.2602 -0.5814 -0.0152
15403TIP3    H167624   5.752   1.713  13.316 -0.8117 -1.6799 -0.9446
15403TIP3    H267625   5.891   1.665  13.351 -0.0277  0.4085 -1.1167
15404TIP3   OH267626   1.426   6.416  15.646  0.4480 -0.2636  0.5480
15404TIP3    H167627   1.459   6.343  15.697  0.3759 -0.4292  0.3561
15404TIP3    H267628   1.461   6.403  15.558  0.4351 -0.0681  0.5110
15405TIP3   OH267629   4.110   1.965   4.056 -0.1321  0.0480  0.4651
15405TIP3    H167630   4.154   1.980   4.139  1.1920  1.4236 -0.4568
15405TIP3    H267631   4.137   1.877   4.029 -0.2709 -0.2492  1.2954
15406TIP3   OH267632   2.522   3.846   4.611  0.1996  0.3642  0.4590
15406TIP3    H167633   2.606   3.888   4.593 -0.1330  0.9713  0.3120
15406TIP3    H267634   2.543   3.753   4.619  0.8927  0.5201  0.4738
15407TIP3   OH267635   2.480   3.042  12.920  0.4343 -0.0034 -0.9770
15407TIP3    H167636   2.476   2.974  12.987  0.9107 -0.7790 -1.7296
15407TIP3    H267637   2.552   3.098  12.947 -1.4313  1.5628  0.9064
15408TIP3   OH267638   0.988   5.462  14.393 -0.3867  0.8634 -0.1546
15408TIP3    H167639   1.061   5.426  14.443 -1.2914  1.1604  1.4031
15408TIP3    H267640   0.928   5.388  14.382 -1.2376  1.3346  1.1791
15409TIP3   OH267641   6.523   1.364   0.618 -0.4255 -0.3455 -0.6851
15409TIP3    H167642   6.492   1.417   0.692  0.0732 -0.5845 -0.2987
15409TIP3    H267643   6.531   1.276   0.654  0.9220 -0.2441 -0.7111
15410TIP3   OH267644   4.428   0.093  16.904 -0.0844  0.8920 -0.3698
15410TIP3    H167645   4.334   0.106  16.918  0.0511  2.0638 -0.5355
15410TIP3    H267646   4.467   0.179  16.918  1.1078  0.1802  0.7658
15411TIP3   OH267647   5.216   5.902  16.318  0.0092  0.0453 -0.0234
15411TIP3    H167648   5.254   5.937  16.237 -0.8897  0.5396 -0.2359
15411TIP3    H267649   5.290   5.895  16.378  0.3173  1.7883 -0.1621
15412TIP3   OH267650   2.671   5.550   6.168 -0.5083 -0.5083  0.3801
15412TIP3    H167651   2.664   5.497   6.088 -1.6489 -1.2190  0.9334
15412TIP3    H267652   2.624   5.630   6.147  1.5594  0.4988 -0.5985
15413TIP3   OH267653   0.660   4.520  16.377  0.0664  0.1035  0.1778
15413TIP3    H167654   0.709   4.565  16.446  0.9403  0.7279 -0.8298
15413TIP3    H267655   0.581   4.488  16.421  1.6150 -1.4104  1.9655
15414TIP3   OH267656   6.387   4.797  11.440  0.2698  0.6162  0.1362
15414TIP3    H167657   6.475   4.759  11.429 -0.1673 -0.5122  0.5174
15414TIP3    H267658   6.336   4.762  11.367 -0.6045 -0.9234  1.4650
15415TIP3   OH267659   3.519   2.223   6.012 -0.1982 -0.3023 -0.5946
15415TIP3    H167660   3.427   2.205   5.995 -1.0968  0.6324  2.8420
15415TIP3    H267661   3.524   2.233   6.107  3.0693  1.6897 -0.8988
15416TIP3   OH267662   4.233   2.615  14.346  0.0625  0.3035 -0.6014
15416TIP3    H167663   4.194   2.691  14.304 -0.6668  0.4593  0.3645
15416TIP3    H267664   4.270   2.648  14.428 -2.4481 -0.8132  1.0316
15417TIP3   OH267665   0.414   0.156   1.737  0.2257  0.2543  0.0016
15417TIP3    H167666   0.333   0.201   1.760 -0.6804 -0.7105 -1.2283
15417TIP3    H267667   0.406   0.069   1.777 -0.0794 -0.4130 -1.4795
15418TIP3   OH267668   0.815   2.450   0.529  0.1979 -0.1393 -0.1534
15418TIP3    H167669   0.888   2.405   0.487 -1.4749 -2.8127 -0.3485
15418TIP3    H267670   0.833   2.443   0.622  0.6783  0.0572 -0.2317
15419TIP3   OH267671   5.337   4.383   2.368  0.2895  0.0822 -1.0375
15419TIP3    H167672   5.273   4.444   2.331 -1.5597 -0.3534  1.2799
15419TIP3    H267673   5.415   4.437   2.383  0.4533  0.6712 -3.7220
15420TIP3   OH267674   0.026   6.027  12.520 -0.2350 -0.2268 -0.4081
15420TIP3    H167675  -0.056   5.997  12.560  0.7313 -0.3977  1.5161
15420TIP3    H267676  -0.000   6.098  12.461 -1.8344 -0.7146 -0.2947
15421TIP3   OH267677   2.920   5.205  14.807  0.1497 -0.3188  0.5754
15421TIP3    H167678   2.932   5.164  14.721 -2.7681  0.0077 -0.0389
15421TIP3    H267679   2.871   5.140  14.858 -0.1782  0.4321  1.2243
15422TIP3   OH267680   1.569   0.278  14.835  0.2303  0.1157 -0.0799
15422TIP3    H167681   1.525   0.360  14.854 -0.3774 -0.5438  1.4447
15422TIP3    H267682   1.541   0.255  14.746 -0.2146  1.1515 -0.2039
15423TIP3   OH267683   4.869   3.196  12.034  0.6599  0.3676 -0.3773
15423TIP3    H167684   4.911   3.147  11.963  1.2785 -0.3459  0.4747
15423TIP3    H267685   4.786   3.150  12.048  1.5175 -0.8118  0.8398
15424TIP3   OH267686   0.784   2.800  12.143 -0.0901  0.6487 -0.2921
15424TIP3    H167687   0.877   2.781  12.154 -0.1773 -0.2870 -1.0593
15424TIP3    H267688   0.777   2.837  12.055 -0.5684 -0.2659 -0.6553
15425TIP3   OH267689   3.284   0.717  15.350  0.3800 -0.6232  0.1691
15425TIP3    H167690   3.272   0.636  15.401 -0.2769 -0.5780  0.0942
15425TIP3    H267691   3.341   0.771  15.405  1.8062 -1.6104 -0.3222
15426TIP3   OH267692   1.441   0.162  16.253  0.0187 -0.9031  0.4097
15426TIP3    H167693   1.536   0.152  16.250  0.2859  0.4374  2.6282
15426TIP3    H267694   1.409   0.075  16.279  0.6776 -1.2146  0.2007
15427TIP3   OH267695   0.465   0.974  13.880 -0.5546  0.0029  0.1462
15427TIP3    H167696   0.395   1.002  13.938 -0.5840 -0.3263  0.2702
15427TIP3    H267697   0.479   1.049  13.821 -2.2505 -0.5727 -1.0441
15428TIP3   OH267698   4.917   0.020  16.565 -0.6278 -0.5687  0.3102
15428TIP3    H167699   4.908   0.090  16.629 -2.7261 -0.7971  0.3022
15428TIP3    H267700   4.966  -0.049  16.610 -1.4429 -0.4183  1.4389
15429TIP3   OH267701   6.502   4.056  15.384 -0.1468 -0.0328 -0.0021
15429TIP3    H167702   6.454   4.030  15.462 -1.8206  0.6897 -0.7705
15429TIP3    H267703   6.541   4.141  15.407  0.5652 -0.4938  0.5255
15430TIP3   OH267704   0.586   5.925   0.678  0.5573 -0.2631 -0.2197
15430TIP3    H167705   0.566   6.009   0.636 -1.2481 -0.1924  0.7343
15430TIP3    H267706   0.625   5.873   0.608 -0.9481  0.3896 -1.5931
15431TIP3   OH267707   4.076   1.293  14.864  0.1005 -0.4417  0.1223
15431TIP3    H167708   4.020   1.302  14.941  0.3949 -0.1710  0.3097
15431TIP3    H267709   4.165   1.298  14.900  0.2412  1.5123 -0.4434
15432TIP3   OH267710   2.456   1.468  15.355 -0.3022 -0.0179  0.4983
15432TIP3    H167711   2.527   1.519  15.394 -1.1482  0.4901  1.3910
15432TIP3    H267712   2.414   1.530  15.295  0.4955 -0.5590 -0.6431
15433TIP3   OH267713   2.892   3.415   1.679  0.0811 -0.4490 -0.1805
15433TIP3    H167714   2.875   3.323   1.660 -1.7971 -0.0150 -0.7511
15433TIP3    H267715   2.987   3.424   1.675  0.1530 -1.8647 -2.5134
15434TIP3   OH267716   4.502   2.136  14.217  0.1032  0.0803 -0.3406
15434TIP3    H167717   4.518   2.180  14.133  0.4579 -1.6007 -1.1681
15434TIP3    H267718   4.540   2.195  14.282 -0.9206  1.8144 -1.2661
15435TIP3   OH267719   2.797   3.007   5.679 -0.0014  0.0935  0.0196
15435TIP3    H167720   2.735   2.937   5.661 -0.1653  0.6957 -1.8333
15435TIP3    H267721   2.812   3.002   5.774 -1.8780 -0.8696  0.2821
15436TIP3   OH267722   3.768   5.993  14.803  0.1873 -0.2301 -0.6386
15436TIP3    H167723   3.793   6.002  14.895  0.3422 -1.7352 -0.5247
15436TIP3    H267724   3.849   6.012  14.755  0.5821 -1.2622 -0.3957
15437TIP3   OH267725   4.020   1.589   2.138 -0.4953 -0.1269  0.1264
15437TIP3    H167726   3.968   1.508   2.136 -1.4286  0.4699 -2.3246
15437TIP3    H267727   3.996   1.631   2.220 -1.6841 -1.2749  0.3928
15438TIP3   OH267728   5.839   1.048  14.505  0.0198  0.1745  0.1742
15438TIP3    H167729   5.933   1.037  14.490  0.2026  0.6757  0.9572
15438TIP3    H267730   5.815   1.121  14.448 -0.0312 -0.3837 -0.5297
15439TIP3   OH267731   4.862   3.240  14.400  0.2102 -0.7703  0.4925
15439TIP3    H167732   4.905   3.201  14.477  1.2048  0.4883  0.5851
15439TIP3    H267733   4.850   3.332  14.423 -2.1829 -1.0135  0.2896
15440TIP3   OH267734   4.286   3.473  13.799  0.3414  0.2977 -0.2802
15440TIP3    H167735   4.263   3.380  13.796  1.2726  0.0719 -0.6778
15440TIP3    H267736   4.215   3.517  13.752 -0.2069 -0.1833  0.0867
15441TIP3   OH267737   0.438   3.172   2.425  0.0060  0.0284  0.4636
15441TIP3    H167738   0.347   3.144   2.427 -0.3632  0.7536 -3.0823
15441TIP3    H267739   0.485   3.103   2.472 -2.0906 -1.4932  0.4063
15442TIP3   OH267740   5.436   3.513   0.535 -0.2978 -0.1228 -0.7635
15442TIP3    H167741   5.401   3.515   0.445  0.3519  0.5290 -1.0003
15442TIP3    H267742   5.451   3.420   0.552  1.0730 -0.1336 -1.9208
15443TIP3   OH267743   6.417   1.506   0.809  0.2646 -0.1521  0.6455
15443TIP3    H167744   6.388   1.558   0.883  1.2139  1.2614  0.0556
15443TIP3    H267745   6.337   1.481   0.764 -0.1747  1.6467  0.3894
15444TIP3   OH267746   5.475   2.604   2.391  0.0037 -0.2021  0.0671
15444TIP3    H167747   5.493   2.691   2.355  0.4583 -0.7011 -0.9406
15444TIP3    H267748   5.557   2.577   2.430 -0.8162  0.8292  2.5735
15445TIP3   OH267749   4.901   5.527  15.155  0.4205 -0.2286  0.4686
15445TIP3    H167750   4.972   5.463  15.159  0.4882 -0.1977 -0.1571
15445TIP3    H267751   4.845   5.505  15.230  2.7293  1.7096  2.8767
15446TIP3   OH267752   0.369   5.129  15.535  0.2697 -0.7325 -0.2954
15446TIP3    H167753   0.393   5.151  15.445 -0.0548 -0.1878 -0.2513
15446TIP3    H267754   0.294   5.070  15.527 -0.1359 -0.2140 -0.3754
15447TIP3   OH267755   0.585   1.423   1.643 -0.7910  0.0005  0.2976
15447TIP3    H167756   0.599   1.515   1.620 -1.1823 -0.1331 -0.4948
15447TIP3    H267757   0.654   1.403   1.706  0.3722  0.3538 -0.8426
15448TIP3   OH267758   5.830   0.890  14.706 -0.5922  0.3460  0.5310
15448TIP3    H167759   5.756   0.928  14.754 -1.7268 -1.1745  0.0304
15448TIP3    H267760   5.833   0.940  14.625  0.8673  2.4343  1.8291
15449TIP3   OH267761   3.844   3.910  14.034 -0.5750  0.2327 -0.1751
15449TIP3    H167762   3.768   3.872  13.990  0.7577 -0.2935 -2.1152
15449TIP3    H267763   3.906   3.837  14.041  0.8197  1.3010 -1.1474
15450TIP3   OH267764   6.076   4.269  14.966 -0.2911  0.3446 -0.0705
15450TIP3    H167765   6.100   4.259  15.058 -0.8620  1.0674  0.1605
15450TIP3    H267766   6.133   4.208  14.920 -0.4646 -0.5106  0.8316
15451TIP3   OH267767   6.580   5.885   0.806 -0.7962  0.7965 -0.0928
15451TIP3    H167768   6.666   5.927   0.803 -0.0033 -0.8611 -1.6404
15451TIP3    H267769   6.545   5.896   0.717 -0.5256 -1.8151 -0.5763
15452TIP3   OH267770   3.033   3.429  10.539  0.3722  0.0533  0.6271
15452TIP3    H167771   2.982   3.347  10.535 -0.5944  0.5692  1.7885
15452TIP3    H267772   3.121   3.401  10.561  0.6616 -0.8809 -1.6124
15453TIP3   OH267773   2.164   3.992  13.731 -0.0323 -0.3464 -0.5366
15453TIP3    H167774   2.255   3.999  13.761 -0.2564  1.5991 -0.3059
15453TIP3    H267775   2.158   4.053  13.658 -1.2787 -0.1733 -0.2854
15454TIP3   OH267776   6.350   4.093  13.696 -0.2019  0.0944  0.3556
15454TIP3    H167777   6.438   4.131  13.691  0.5333 -1.7804 -1.6484
15454TIP3    H267778   6.308   4.119  13.615 -0.8442 -0.5745  0.4718
15455TIP3   OH267779   0.212   2.074   0.534 -0.6131  0.1177 -0.0601
15455TIP3    H167780   0.238   2.011   0.601 -1.1280  0.1121  0.1426
15455TIP3    H267781   0.289   2.129   0.521 -1.2745  1.6946  2.3330
15456TIP3   OH267782   0.287   2.344  15.981  0.3252 -0.2440  0.2150
15456TIP3    H167783   0.214   2.282  15.983  1.8232 -2.0926 -0.4044
15456TIP3    H267784   0.360   2.295  16.020  1.3488  1.4261  0.4339
15457TIP3   OH267785   4.537   5.262   4.327  0.4430  0.4453  0.3838
15457TIP3    H167786   4.520   5.356   4.319 -1.6107 -0.0853 -2.3372
15457TIP3    H267787   4.632   5.255   4.333  0.6300  2.7010  0.5099
15458TIP3   OH267788   2.821   3.569  16.907  0.0596 -0.4463  0.2425
15458TIP3    H167789   2.782   3.595  16.991 -0.9467 -1.1326 -0.0087
15458TIP3    H267790   2.758   3.508  16.869 -0.1263  0.9133 -1.6525
15459TIP3   OH267791   4.013   4.544  14.511  0.1487  0.3836  0.4935
15459TIP3    H167792   3.938   4.560  14.454 -1.0934 -1.1367  1.6828
15459TIP3    H267793   4.033   4.629  14.550 -2.8720  0.2368  2.4903
15460TIP3   OH267794   3.698   0.715   2.390 -0.4461  0.0962 -0.6434
15460TIP3    H167795   3.790   0.689   2.381 -0.2769  0.2862  0.3945
15460TIP3    H267796   3.648   0.636   2.374 -0.1514  0.1937 -2.1537
15461TIP3   OH267797   4.446   1.688  13.708  0.0471  0.0285  0.0701
15461TIP3    H167798   4.540   1.695  13.689 -0.2351 -1.2756 -1.9650
15461TIP3    H267799   4.411   1.636  13.636 -2.4842  1.6143  0.0814
15462TIP3   OH267800   2.974   1.270  11.953  0.5134  0.1132  0.2355
15462TIP3    H167801   3.012   1.212  12.019 -0.0278 -0.5023  0.0112
15462TIP3    H267802   2.906   1.318  12.000 -0.0344 -0.4971  0.0768
15463TIP3   OH267803   1.752   3.373  14.390 -0.0609  0.1781  0.4105
15463TIP3    H167804   1.843   3.383  14.416  0.1728 -1.2242  0.1813
15463TIP3    H267805   1.750   3.402  14.298 -0.0372  1.0971  0.6989
15464TIP3   OH267806   1.113   5.326   0.498 -0.2859 -0.3556 -0.3301
15464TIP3    H167807   1.156   5.321   0.584 -0.8068  0.1015 -0.0360
15464TIP3    H267808   1.040   5.386   0.512 -0.3592 -0.2615 -1.1054
15465TIP3   OH267809   3.136   4.304   5.583  0.3663 -0.0507 -0.0388
15465TIP3    H167810   3.132   4.272   5.493 -0.3608  0.3098 -0.1376
15465TIP3    H267811   3.126   4.399   5.575 -0.5604 -0.1000  0.4778
15466TIP3   OH267812   2.496   2.182   1.956  0.4567 -0.1372 -0.6047
15466TIP3    H167813   2.475   2.149   1.868 -0.5560  0.2044 -0.5061
15466TIP3    H267814   2.411   2.210   1.991  0.8196 -0.5212  0.5861
15467TIP3   OH267815   1.502   6.464   0.384 -0.2753  0.4087 -0.0513
15467TIP3    H167816   1.519   6.426   0.298 -0.8260  0.2150 -0.0754
15467TIP3    H267817   1.588   6.465   0.427  0.0303  0.6611 -0.6615
15468TIP3   OH267818   3.268   0.254  15.372 -0.4268 -0.5968 -0.1561
15468TIP3    H167819   3.187   0.300  15.350 -1.6082 -2.7145 -0.3970
15468TIP3    H267820   3.292   0.287  15.458 -0.6850  1.1876 -0.7499
15469TIP3   OH267821   5.828   4.370  15.027  0.0051  0.1077  0.1047
15469TIP3    H167822   5.911   4.333  14.995  0.7591 -0.1599  2.2556
15469TIP3    H267823   5.770   4.295  15.036 -0.3586  0.2437 -1.0316
15470TIP3   OH267824   4.727   0.402  15.793  0.0961  0.8421  0.1481
15470TIP3    H167825   4.634   0.391  15.809  0.1649  0.6150  0.4050
15470TIP3    H267826   4.768   0.380  15.877  0.4109  0.4930 -0.0954
15471TIP3   OH267827   5.416   2.747   6.543 -0.0324  0.0307  0.3976
15471TIP3    H167828   5.360   2.760   6.466  0.4535  1.4129  0.2678
15471TIP3    H267829   5.454   2.833   6.560  0.1118 -0.3380  2.0026
15472TIP3   OH267830   6.043   6.108   0.988  0.2972  0.4170 -0.3664
15472TIP3    H167831   6.055   6.203   0.980 -0.0694  0.5872  0.9993
15472TIP3    H267832   5.953   6.097   1.019  0.0309 -0.4225 -1.4195
15473TIP3   OH267833   2.634   3.527   1.982  0.6948 -0.3830  0.0965
15473TIP3    H167834   2.715   3.527   2.033 -0.6183 -2.7989  2.2982
15473TIP3    H267835   2.646   3.457   1.917  1.2736  0.8663 -1.1852
15474TIP3   OH267836   1.753   5.257  10.493  0.0443 -0.0981 -0.1720
15474TIP3    H167837   1.719   5.335  10.537  0.1481 -0.9623  1.4962
15474TIP3    H267838   1.703   5.252  10.411 -1.1159  0.7949  0.4569
15475TIP3   OH267839   1.564   6.014   2.312  0.2404 -0.4546  0.4857
15475TIP3    H167840   1.587   5.992   2.402  3.0232  1.6223  0.3635
15475TIP3    H267841   1.551   6.109   2.313 -0.3279 -0.4887 -1.1898
15476TIP3   OH267842   5.106   4.077  15.013  0.2266 -0.2693 -0.6125
15476TIP3    H167843   5.014   4.089  15.035  0.6780 -0.8323  1.6986
15476TIP3    H267844   5.106   4.008  14.946 -1.0329 -0.2693 -0.6181
15477TIP3   OH267845   0.602   3.342   0.243 -0.3307 -0.6230  0.2142
15477TIP3    H167846   0.656   3.337   0.164 -0.1546  0.5789  0.2487
15477TIP3    H267847   0.547   3.419   0.229  0.7625  0.4960  1.9211
15478TIP3   OH267848   2.442   4.615   0.436  0.9689 -0.0353  0.1156
15478TIP3    H167849   2.394   4.694   0.461  0.4318 -0.3270  0.0107
15478TIP3    H267850   2.480   4.635   0.351  0.7705  0.0808  0.0551
15479TIP3   OH267851   3.471   4.613   2.456  0.1746 -0.7547  0.6675
15479TIP3    H167852   3.437   4.618   2.366 -0.4799 -2.2365  0.8245
15479TIP3    H267853   3.510   4.699   2.471 -1.4223  0.1835 -0.3663
15480TIP3   OH267854   5.462   3.964   5.771  0.0940  0.1100  0.0772
15480TIP3    H167855   5.378   3.943   5.811  1.0022 -1.6324  1.1064
15480TIP3    H267856   5.440   3.989   5.681 -1.4779 -0.7440  0.2045
15481TIP3   OH267857   5.256   0.415  13.298  0.4076 -0.1631 -0.6994
15481TIP3    H167858   5.300   0.435  13.215 -0.0614 -0.0004 -0.9056
15481TIP3    H267859   5.232   0.501  13.334 -1.0659 -0.3140 -1.2965
15482TIP3   OH267860   0.806   5.569   0.878  0.1935  0.1134  0.4574
15482TIP3    H167861   0.852   5.492   0.911  0.1728 -0.3038 -0.4664
15482TIP3    H267862   0.873   5.621   0.833 -0.2682 -0.6473 -1.1587
15483TIP3   OH267863   3.203   5.980  17.106 -0.4091 -0.6187  0.1912
15483TIP3    H167864   3.217   6.071  17.131 -1.6003 -1.0280  2.5073
15483TIP3    H267865   3.167   5.984  17.017  0.9221  1.0653 -0.2884
15484TIP3   OH267866   0.735   2.608  15.384  0.0507 -0.4137  0.9765
15484TIP3    H167867   0.677   2.645  15.451  0.4556 -0.3880  1.3152
15484TIP3    H267868   0.753   2.519  15.415  1.2169  0.0035  1.5367
15485TIP3   OH267869   0.570   1.462   3.459 -0.3413  0.4914 -0.3609
15485TIP3    H167870   0.640   1.524   3.437 -0.1773  0.1421 -0.8136
15485TIP3    H267871   0.581   1.389   3.398 -0.4161 -0.0792  0.3013
15486TIP3   OH267872   2.538   3.822   3.518  0.3661  0.0082  0.1953
15486TIP3    H167873   2.454   3.799   3.478  0.0377  0.8316  0.4151
15486TIP3    H267874   2.582   3.877   3.453  0.7572 -0.4498  0.0646
15487TIP3   OH267875   5.051   1.178   6.391 -0.9175 -0.0897 -0.7263
15487TIP3    H167876   5.092   1.138   6.314 -0.3795  2.3566 -1.7724
15487TIP3    H267877   5.115   1.242   6.421 -2.0126  0.4420  0.5040
15488TIP3   OH267878   2.221   1.186  12.914  0.7008 -0.3325 -0.1897
15488TIP3    H167879   2.288   1.211  12.851 -0.2726 -0.5599 -1.3243
15488TIP3    H267880   2.270   1.164  12.994  1.9090  0.2626 -0.7572
15489TIP3   OH267881   0.528   0.859  11.210 -0.7445 -0.1913 -0.1392
15489TIP3    H167882   0.562   0.786  11.261  3.3318  1.3680 -0.4345
15489TIP3    H267883   0.542   0.834  11.119  1.7208  1.3455 -0.2242
15490TIP3   OH267884   5.127   2.576   6.237 -0.1701 -0.1786 -0.1955
15490TIP3    H167885   5.169   2.629   6.306  1.3369 -1.9386  0.2973
15490TIP3    H267886   5.035   2.600   6.241  0.3062  1.6061  0.7399
15491TIP3   OH267887   4.283   6.710   2.279 -0.3826 -0.3276  0.4116
15491TIP3    H167888   4.311   6.631   2.326  0.9417 -1.4243 -2.1206
15491TIP3    H267889   4.242   6.677   2.199  0.0656  1.5542 -0.6235
15492TIP3   OH267890   5.105   0.109   3.500  0.2236  0.6518 -0.3663
15492TIP3    H167891   5.060   0.085   3.419  1.3844 -0.0955 -0.8228
15492TIP3    H267892   5.145   0.027   3.530 -1.4638  0.5679  1.8147
15493TIP3   OH267893   2.690   4.823   0.755 -0.4493 -0.6120  0.3041
15493TIP3    H167894   2.698   4.831   0.850  1.8304  1.1936  0.0089
15493TIP3    H267895   2.756   4.757   0.732  1.0491  1.0710 -0.3010
15494TIP3   OH267896   4.195   5.197  15.373 -0.3581  0.7377 -0.0547
15494TIP3    H167897   4.272   5.149  15.403 -0.2137 -0.4211 -2.2155
15494TIP3    H267898   4.132   5.129  15.349 -0.4438  1.6051 -2.4089
15495TIP3   OH267899   5.644   1.002  11.335 -0.4667 -0.3230  0.1767
15495TIP3    H167900   5.609   1.076  11.385 -0.9792 -1.6017  1.7355
15495TIP3    H267901   5.726   1.035  11.298 -0.3396  0.8050  1.4242
15496TIP3   OH267902   0.648   2.771  13.134 -0.3253  0.3204 -0.8386
15496TIP3    H167903   0.706   2.835  13.174  0.1457 -0.8327  0.3246
15496TIP3    H267904   0.668   2.777  13.040  1.0117  0.5684 -0.5480
15497TIP3   OH267905   4.200   0.225  11.868  0.8229 -0.1969  0.3931
15497TIP3    H167906   4.293   0.202  11.874  0.5126 -1.1768  1.5621
15497TIP3    H267907   4.155   0.155  11.915 -0.4342  0.8714  0.7903
15498TIP3   OH267908   0.109   6.443  16.977 -0.6990 -0.5433 -0.8705
15498TIP3    H167909   0.087   6.508  17.045 -1.4785 -0.9522 -0.7249
15498TIP3    H267910   0.165   6.491  16.916  0.7342 -0.4102  0.5135
15499TIP3   OH267911   3.801   3.154   4.921 -0.2138 -0.0191 -0.2215
15499TIP3    H167912   3.764   3.082   4.973  0.3304 -2.3257 -2.9035
15499TIP3    H267913   3.895   3.145   4.931 -0.1447  0.3536 -0.5181
15500TIP3   OH267914   0.507   2.924  13.918  0.4997  0.4340 -0.1317
15500TIP3    H167915   0.568   2.959  13.982 -0.0408 -0.0711  0.6699
15500TIP3    H267916   0.421   2.934  13.959  0.2928 -1.4157 -0.0713
15501TIP3   OH267917   4.260   4.625   2.746  0.7100 -0.0186 -0.0403
15501TIP3    H167918   4.192   4.576   2.792 -0.5814  0.2995 -1.5561
15501TIP3    H267919   4.285   4.694   2.807  0.0035 -0.4297  0.7276
15502TIP3   OH267920   2.676   0.588   1.872  0.2620  0.0303 -0.1515
15502TIP3    H167921   2.730   0.645   1.816  0.5107  0.0373  0.0895
15502TIP3    H267922   2.692   0.621   1.961  1.2974 -1.1306  0.1144
15503TIP3   OH267923   0.781   1.938   6.258  0.2541 -0.2418 -0.2512
15503TIP3    H167924   0.829   1.948   6.340 -0.8482 -1.6136  0.5610
15503TIP3    H267925   0.843   1.969   6.191  1.4160  0.2051  1.0017
15504TIP3   OH267926   6.612   1.081  11.595 -0.1381  0.2158  0.0233
15504TIP3    H167927   6.699   1.043  11.580 -0.4828 -1.4751  2.0489
15504TIP3    H267928   6.615   1.112  11.686 -0.6760  2.9427 -0.8297
15505TIP3   OH267929   1.441   3.461   6.680  0.1883  0.0158  0.1825
15505TIP3    H167930   1.432   3.557   6.681  2.2371  0.2808 -1.5336
15505TIP3    H267931   1.356   3.428   6.709 -0.8329  2.3444 -0.0415
15506TIP3   OH267932   0.303   3.700   5.205  0.3124  0.3883  0.6547
15506TIP3    H167933   0.231   3.724   5.263  0.6176 -0.4900  1.4200
15506TIP3    H267934   0.337   3.783   5.173  0.5301  0.9188  2.2222
15507TIP3   OH267935   4.958   1.772  11.298 -0.3073  0.0013 -0.3008
15507TIP3    H167936   4.912   1.688  11.290  0.3586 -0.1861 -2.3995
15507TIP3    H267937   5.048   1.748  11.319 -0.7195  0.3149  1.9763
15508TIP3   OH267938   0.765   6.590  12.107  0.0718  0.3926 -0.2632
15508TIP3    H167939   0.701   6.563  12.041 -1.3859  1.7164  0.5682
15508TIP3    H267940   0.721   6.658  12.157  2.2698  1.5844  0.1355
15509TIP3   OH267941   0.456   0.666  14.325  0.2963  0.3574 -0.0416
15509TIP3    H167942   0.397   0.618  14.383  0.7618 -1.0254 -0.6696
15509TIP3    H267943   0.496   0.733  14.380  0.2960 -0.5647  1.0989
15510TIP3   OH267944   1.804   6.670   1.038 -0.7030 -0.0888 -0.1036
15510TIP3    H167945   1.755   6.589   1.045 -1.5998  0.4704  0.0779
15510TIP3    H267946   1.882   6.646   0.986 -0.5789 -1.2209  0.5975
15511TIP3   OH267947   3.643   1.875   1.150  0.4478 -0.0508 -0.2363
15511TIP3    H167948   3.712   1.941   1.147 -1.0042  1.6644  2.5211
15511TIP3    H267949   3.629   1.859   1.243 -2.8723 -0.3341 -0.7267
15512TIP3   OH267950   2.205   0.876   4.437 -0.4947  0.0649 -0.0942
15512TIP3    H167951   2.201   0.968   4.412 -0.1890 -0.1977 -1.1443
15512TIP3    H267952   2.131   0.835   4.391 -0.6894 -0.1997  0.4439
15513TIP3   OH267953   5.043   0.522   2.166  0.2476 -0.0175  0.0258
15513TIP3    H167954   5.126   0.566   2.146  0.7291 -1.5018 -1.3286
15513TIP3    H267955   5.060   0.477   2.249  0.8070 -0.3399 -0.2599
15514TIP3   OH267956   2.243   2.409   2.437 -0.1410  0.5519  0.9128
15514TIP3    H167957   2.225   2.500   2.415 -2.6544 -0.0701  0.1707
15514TIP3    H267958   2.159   2.364   2.423  1.2017 -1.9800  0.6316
15515TIP3   OH267959   2.341   6.098   3.554 -0.2526 -0.1802  0.2542
15515TIP3    H167960   2.280   6.036   3.594  1.0448 -1.2867  0.5320
15515TIP3    H267961   2.424   6.084   3.599  1.2471 -1.4446 -2.7280
15516TIP3   OH267962   2.073   4.502   5.173  0.2469 -0.0604 -0.0999
15516TIP3    H167963   1.983   4.511   5.204  0.2037 -2.7262  0.7423
15516TIP3    H267964   2.124   4.558   5.230 -1.0914  3.2591 -2.0090
15517TIP3   OH267965   2.875   4.857   3.845  0.6543 -0.1494  0.0684
15517TIP3    H167966   2.922   4.787   3.799 -0.8431 -0.9701 -0.2285
15517TIP3    H267967   2.871   4.828   3.936 -0.2234 -0.5942 -0.1094
15518TIP3   OH267968   3.369   6.022  11.230  0.1510  0.1025  0.3006
15518TIP3    H167969   3.274   6.032  11.235  0.1468 -0.0811  0.6363
15518TIP3    H267970   3.397   6.015  11.321  0.4324 -0.3300  0.1833
15519TIP3   OH267971   1.834   2.377  11.449 -0.0863  0.5775  0.1774
15519TIP3    H167972   1.748   2.408  11.422 -0.3274 -0.7890 -0.6927
15519TIP3    H267973   1.820   2.337  11.535 -0.3135  0.4393  0.0776
15520TIP3   OH267974   2.291   2.664   0.030 -0.0059 -0.1045 -0.7871
15520TIP3    H167975   2.199   2.651   0.054 -1.4012  2.1807 -4.5441
15520TIP3    H267976   2.324   2.576   0.011 -1.7433 -0.8158 -0.5311
15521TIP3   OH267977   2.720   6.432   5.210  0.4812  0.8046 -0.1848
15521TIP3    H167978   2.747   6.476   5.129 -0.5361 -0.8446 -1.4505
15521TIP3    H267979   2.740   6.340   5.196 -1.2785  0.2506  0.7606
15522TIP3   OH267980   1.476   3.844   2.920  0.1988 -0.0318  1.2251
15522TIP3    H167981   1.568   3.868   2.906  1.0869 -3.6000  0.1420
15522TIP3    H267982   1.465   3.847   3.015  1.4540  0.4239  1.3707
15523TIP3   OH267983   3.925   2.821   5.677  0.2063 -0.1851 -0.2908
15523TIP3    H167984   3.976   2.832   5.597  0.6814 -2.2080 -0.2847
15523TIP3    H267985   3.955   2.738   5.714  0.5614  1.0850  2.4034
15524TIP3   OH267986   2.210   1.151   0.088 -0.5560  1.0818  0.3528
15524TIP3    H167987   2.152   1.226   0.078 -1.1785  0.4979 -0.4872
15524TIP3    H267988   2.283   1.168   0.029 -0.3643  1.3347  0.6583
15525TIP3   OH267989   2.127   0.734   2.565  0.0512  0.7654  0.1934
15525TIP3    H167990   2.133   0.716   2.659  0.0496  1.0146  0.2419
15525TIP3    H267991   2.127   0.830   2.559 -5.2010  0.9138  0.2873
15526TIP3   OH267992   4.071   1.466   4.445 -0.1613 -0.6762  0.7116
15526TIP3    H167993   4.052   1.559   4.431 -0.8638 -0.4879  2.6441
15526TIP3    H267994   4.015   1.420   4.382  0.2668  0.2006 -0.3245
15527TIP3   OH267995   4.175   6.127   1.153  0.0073  0.1877 -0.6669
15527TIP3    H167996   4.095   6.111   1.103 -0.5568 -0.2190  0.3567
15527TIP3    H267997   4.167   6.070   1.230  1.1971  0.2766 -0.4758
15528TIP3   OH267998   0.720   0.414   2.928  0.2549  0.2516  0.2086
15528TIP3    H167999   0.722   0.320   2.942  0.1952  0.5502  2.4401
15528TIP3    H268000   0.674   0.426   2.844  0.6750 -1.6954 -0.3083
15529TIP3   OH268001   3.829   1.773   3.794  0.1394  0.1619 -0.5203
15529TIP3    H168002   3.906   1.777   3.737  1.0974  0.4679  0.7699
15529TIP3    H268003   3.855   1.713   3.864 -0.5305  0.8732  0.3374
15530TIP3   OH268004   4.328   6.400   2.736  0.0218 -0.0971 -0.3819
15530TIP3    H168005   4.323   6.357   2.822  0.5518 -0.6056 -0.5993
15530TIP3    H268006   4.296   6.334   2.675 -1.2328  0.5987 -0.4706
15531TIP3   OH268007   5.600   0.801  16.644 -0.1215  0.2159 -0.0938
15531TIP3    H168008   5.627   0.879  16.692 -0.9904 -0.3037  1.2805
15531TIP3    H268009   5.505   0.795  16.659 -0.5369  0.4218 -2.4694
15532TIP3   OH268010   4.862   6.786   4.793  0.2433  0.6236 -0.8719
15532TIP3    H168011   4.793   6.813   4.853 -0.3945 -0.4216 -1.1259
15532TIP3    H268012   4.878   6.694   4.814  1.8133  0.9668 -0.5709
15533TIP3   OH268013   1.614   5.410  12.151  0.0593 -0.1252  0.2041
15533TIP3    H168014   1.680   5.429  12.218  2.0156  0.4273 -1.8228
15533TIP3    H268015   1.636   5.323  12.120  0.7459  0.6143 -1.4668
15534TIP3   OH268016   4.937   1.819   4.039  0.2442 -0.2354 -0.0092
15534TIP3    H168017   4.887   1.738   4.048  0.2399 -0.3510 -1.0016
15534TIP3    H268018   5.029   1.793   4.049  0.1075  0.0261  2.1372
15535TIP3   OH268019   4.854   1.703  14.885 -0.1756 -0.2599 -0.4819
15535TIP3    H168020   4.767   1.743  14.881  0.7072  1.6191 -1.3144
15535TIP3    H268021   4.881   1.713  14.976 -1.3995 -2.1514  0.1273
15536TIP3   OH268022   4.983   4.990   2.260 -0.4917  0.1823 -0.0325
15536TIP3    H168023   4.942   5.073   2.283 -1.0953 -0.4445  1.2136
15536TIP3    H268024   5.065   5.015   2.216 -1.1922  1.4208 -0.6526
15537TIP3   OH268025   1.564   5.672   4.623 -0.1591  0.0929 -0.2542
15537TIP3    H168026   1.518   5.728   4.685  0.0914  1.4618 -1.2985
15537TIP3    H268027   1.604   5.604   4.677 -0.9410  0.5918  0.9555
15538TIP3   OH268028   4.836   5.194  16.008  0.4111 -0.2932  0.2927
15538TIP3    H168029   4.785   5.265  16.047 -0.5880 -0.9942  0.3028
15538TIP3    H268030   4.837   5.125  16.075  1.3136 -0.3171  0.2603
15539TIP3   OH268031   0.921   3.386   4.685 -0.2064  0.2057  0.6674
15539TIP3    H168032   1.007   3.347   4.671 -0.7769 -1.4632  1.6056
15539TIP3    H268033   0.923   3.416   4.776 -0.7133 -0.1254  0.7893
15540TIP3   OH268034   3.911   2.840  13.734 -0.7326  0.3691  0.1207
15540TIP3    H168035   3.874   2.752  13.740 -0.6576  0.4236  1.4954
15540TIP3    H268036   3.873   2.888  13.807  2.7332  0.1638  2.1585
15541TIP3   OH268037   0.632   6.177   5.237  0.1449  0.3466  0.0184
15541TIP3    H168038   0.705   6.177   5.300 -0.3801  0.3143  0.6401
15541TIP3    H268039   0.624   6.269   5.210  0.6391  0.2906 -0.3110
15542TIP3   OH268040   0.575   1.482  15.298 -0.4818  0.5318  0.1328
15542TIP3    H168041   0.553   1.549  15.234  1.0416  0.4892 -0.4472
15542TIP3    H268042   0.520   1.503  15.374 -1.5317  1.1987 -0.7912
15543TIP3   OH268043   6.443   3.104   1.081  0.2299  0.1967 -0.1838
15543TIP3    H168044   6.502   3.175   1.056 -1.4647  1.7937  0.1840
15543TIP3    H268045   6.378   3.147   1.137 -2.5923 -1.0310 -2.4004
15544TIP3   OH268046   5.140   1.144   0.920 -0.8563  0.3137 -0.0195
15544TIP3    H168047   5.196   1.181   0.852 -0.5814  0.2110  0.1521
15544TIP3    H268048   5.131   1.052   0.896 -0.1393  0.1058  0.5025
15545TIP3   OH268049   0.729   4.145   1.989  0.5132  0.0660 -0.4818
15545TIP3    H168050   0.736   4.063   2.037  0.9263  0.4842  0.1786
15545TIP3    H268051   0.706   4.119   1.900  1.8424 -0.8195 -0.5646
15546TIP3   OH268052   4.876   4.132  14.787 -0.3125 -0.1088  0.2707
15546TIP3    H168053   4.920   4.047  14.795  0.2921  0.0679 -1.1292
15546TIP3    H268054   4.896   4.176  14.869  1.3407 -0.4096  0.0432
15547TIP3   OH268055   4.228   0.510  16.490 -0.4522  0.2823 -0.1628
15547TIP3    H168056   4.136   0.534  16.498 -0.4347  0.1809  0.3796
15547TIP3    H268057   4.227   0.425  16.446 -0.6278  0.1382  0.1270
15548TIP3   OH268058   4.776   6.692  16.004 -0.3583 -0.2924  0.1159
15548TIP3    H168059   4.842   6.750  16.042  0.9312 -1.2400 -0.6210
15548TIP3    H268060   4.760   6.627  16.072 -2.7582  1.5976  1.4488
15549TIP3   OH268061   0.266   2.239   1.018  0.3549 -0.1875  0.2605
15549TIP3    H168062   0.289   2.311   1.076 -0.1223  1.2022 -1.2421
15549TIP3    H268063   0.345   2.223   0.967  0.3539 -0.5205  0.3579
15550TIP3   OH268064   5.711   5.776   4.218 -0.0147  0.0136  0.0123
15550TIP3    H168065   5.782   5.839   4.208  0.1384  0.0252  1.1507
15550TIP3    H268066   5.646   5.821   4.273  1.2690 -1.7580  3.0823
15551TIP3   OH268067   1.093   6.134  13.252 -0.0316 -0.4017  0.2823
15551TIP3    H168068   1.156   6.205  13.261 -1.1506  0.7763 -0.9832
15551TIP3    H268069   1.033   6.164  13.184 -2.5195 -1.0970  2.1302
15552TIP3   OH268070   3.631   3.062  13.693  0.3870 -0.0345  0.0861
15552TIP3    H168071   3.684   3.060  13.773 -1.1279 -0.6785  1.1011
15552TIP3    H268072   3.640   3.151  13.660  1.7899 -0.0410  0.4525
15553TIP3   OH268073   1.111   4.101   3.189 -0.4488 -0.0043 -0.1303
15553TIP3    H168074   1.124   4.007   3.189 -0.2680  0.0211 -0.2180
15553TIP3    H268075   1.085   4.122   3.279 -1.8711 -0.3243 -0.4622
15554TIP3   OH268076   3.896   0.821  10.698  0.2482 -0.0733  0.6390
15554TIP3    H168077   3.844   0.883  10.647  1.6059  0.6328  0.0878
15554TIP3    H268078   3.833   0.755  10.727 -1.2285  1.5830  1.2907
15555TIP3   OH268079   4.119   0.688  10.852  0.3523  0.2571  0.2077
15555TIP3    H168080   4.072   0.772  10.854 -1.1108 -0.4420 -2.3505
15555TIP3    H268081   4.078   0.637  10.922 -0.4312  0.8305  0.1845
15556TIP3   OH268082   1.520   4.689  12.359  0.2730  0.0981  0.5393
15556TIP3    H168083   1.545   4.596  12.367  1.8102  0.5333  0.9403
15556TIP3    H268084   1.603   4.736  12.360 -0.3853  1.3657 -1.6091
15557TIP3   OH268085   0.999   2.816   0.962 -0.2144  0.2442 -0.2952
15557TIP3    H168086   0.945   2.895   0.955 -0.3294  0.3307  1.3339
15557TIP3    H268087   0.987   2.772   0.878 -0.3085  1.8513 -1.1586
15558TIP3   OH268088   4.963   5.067  12.611  0.1281  0.2747  0.3234
15558TIP3    H168089   4.987   4.978  12.587 -0.3108  0.3212 -0.2806
15558TIP3    H268090   4.885   5.058  12.666  1.4286  0.1300  2.2341
15559TIP3   OH268091   4.632   2.426  16.479 -0.4289  0.8684  0.7177
15559TIP3    H168092   4.682   2.470  16.547 -0.3855 -0.0801  1.3171
15559TIP3    H268093   4.552   2.397  16.523 -0.9393  1.2887  0.0712
15560TIP3   OH268094   4.764   0.557  15.572 -0.2349 -0.0085 -0.3357
15560TIP3    H168095   4.754   0.495  15.644 -0.9111  0.9037  0.3608
15560TIP3    H268096   4.848   0.534  15.532  0.1862 -0.4607  0.8010
15561TIP3   OH268097   2.385   1.583  16.096  0.3679  0.3399  0.1558
15561TIP3    H168098   2.449   1.534  16.148  0.8078 -0.0062 -0.6896
15561TIP3    H268099   2.436   1.618  16.022 -1.1015 -3.0612 -2.5972
15562TIP3   OH268100   5.227   3.048   6.301  0.1820 -0.1885 -0.4252
15562TIP3    H168101   5.175   3.127   6.320  0.7458  0.7788 -2.7320
15562TIP3    H268102   5.214   2.992   6.378 -0.9783  1.7528  0.8511
15563TIP3   OH268103   5.836   4.463   1.514  0.0608 -0.0484 -0.1166
15563TIP3    H168104   5.898   4.391   1.505  0.5525  0.0251  2.3823
15563TIP3    H268105   5.853   4.500   1.601 -0.2218  3.0564 -1.3074
15564TIP3   OH268106   0.141   4.970  15.510 -0.0530  0.1517 -0.1003
15564TIP3    H168107   0.193   4.920  15.573 -0.9507  0.1587  0.6672
15564TIP3    H268108   0.129   4.911  15.435 -0.7737 -0.6502  0.6307
15565TIP3   OH268109   1.877   1.609   0.388 -0.4884  0.2285  0.3810
15565TIP3    H168110   1.831   1.594   0.471 -0.7425 -0.3560  0.1412
15565TIP3    H268111   1.806   1.621   0.324 -0.3161 -1.3982 -0.1197
15566TIP3   OH268112   3.857   0.760   0.287  0.0048  0.1893  0.2279
15566TIP3    H168113   3.858   0.853   0.266  0.0710  0.1162 -0.0946
15566TIP3    H268114   3.852   0.757   0.383  2.3411  0.5405  0.4019
15567TIP3   OH268115   1.571   3.051   4.502 -0.3606  0.0350  0.6369
15567TIP3    H168116   1.514   2.978   4.525 -2.0351  0.7464 -1.1266
15567TIP3    H268117   1.596   3.035   4.411  1.2062  0.4174  0.9851
15568TIP3   OH268118   1.414   1.905   0.393 -0.2556  0.1266  0.0463
15568TIP3    H168119   1.448   1.929   0.306 -2.7221 -0.5033 -1.1505
15568TIP3    H268120   1.490   1.911   0.451  0.9163  3.0351 -1.6649
15569TIP3   OH268121   4.679   3.143  11.708 -0.0596 -0.8838 -0.1798
15569TIP3    H168122   4.608   3.093  11.748 -1.7873  0.9214 -0.9079
15569TIP3    H268123   4.722   3.081  11.649  0.3056 -2.5802  1.8067
15570TIP3   OH268124   4.616   0.309   3.165  0.5357  0.9322  0.6649
15570TIP3    H168125   4.584   0.384   3.215 -2.0899  1.5471 -1.7584
15570TIP3    H268126   4.537   0.273   3.124  2.1515 -1.4498 -0.4463
15571TIP3   OH268127   5.438   0.502   4.011 -0.3783 -0.7231 -0.5397
15571TIP3    H168128   5.445   0.565   3.939  0.6522 -0.3848 -0.1453
15571TIP3    H268129   5.392   0.428   3.972  1.8468 -1.3312 -2.0896
15572TIP3   OH268130   6.768   3.509   2.355 -0.0939  0.6654  0.0964
15572TIP3    H168131   6.792   3.537   2.443  1.9893  0.7803 -0.4862
15572TIP3    H268132   6.851   3.483   2.314 -1.1902 -0.5642 -1.4176
15573TIP3   OH268133   2.676   4.209  13.759  0.0862 -0.0451  0.5525
15573TIP3    H168134   2.714   4.174  13.840  0.3097 -0.6285  0.2008
15573TIP3    H268135   2.752   4.233  13.706 -0.0123 -1.4699 -0.2640
15574TIP3   OH268136   1.580   6.248  15.416 -0.1923 -0.5738  0.0406
15574TIP3    H168137   1.638   6.304  15.363  0.2474 -0.5064  0.5846
15574TIP3    H268138   1.566   6.170  15.361 -0.0784 -0.3255 -0.3455
15575TIP3   OH268139   1.124   2.518   3.915 -0.2006 -0.7002 -0.1738
15575TIP3    H168140   1.071   2.505   3.994 -0.6731 -1.2750 -0.5794
15575TIP3    H268141   1.208   2.550   3.948 -1.2651  1.6102  0.3621
15576TIP3   OH268142   5.433   4.391  17.101  0.2472 -0.1858 -0.5947
15576TIP3    H168143   5.402   4.330  17.035 -3.6502 -0.0327  1.0056
15576TIP3    H268144   5.474   4.462  17.051  0.9765 -1.9846 -2.6203
15577TIP3   OH268145   5.933   3.667  12.130 -0.4739  0.0444  0.0943
15577TIP3    H168146   5.965   3.625  12.210 -0.5547  1.0133  0.6509
15577TIP3    H268147   5.884   3.743  12.162 -0.5005  0.4345 -0.8852
15578TIP3   OH268148   6.753   1.292  10.294  0.0803  0.5021  0.5347
15578TIP3    H168149   6.819   1.312  10.360 -0.7828  2.3256  0.8720
15578TIP3    H268150   6.697   1.226  10.335  2.3390 -1.9233 -0.1892
15579TIP3   OH268151   1.934   5.833   4.243  0.1407  0.1222 -0.0037
15579TIP3    H168152   1.859   5.785   4.277 -1.1376  0.6919 -1.9508
15579TIP3    H268153   1.987   5.767   4.198 -0.6279  0.1923 -1.0212
15580TIP3   OH268154   6.197   4.052  16.526 -0.1330 -0.5987  0.5623
15580TIP3    H168155   6.137   3.992  16.482 -0.3164 -0.8213  1.1135
15580TIP3    H268156   6.233   4.002  16.599 -1.2670  0.3504  1.8051
15581TIP3   OH268157   0.323   3.796  15.944  0.5010 -0.2608  0.3171
15581TIP3    H168158   0.393   3.836  15.996 -1.1087  1.3960  1.2835
15581TIP3    H268159   0.242   3.816  15.992 -0.5860 -2.9286 -0.2795
15582TIP3   OH268160   1.139   4.601  13.423 -0.3156  0.4458 -0.4107
15582TIP3    H168161   1.135   4.693  13.448 -0.7136  0.2344  0.3198
15582TIP3    H268162   1.084   4.556  13.487  0.7326 -0.4319 -0.1010
15583TIP3   OH268163   6.187   2.020   6.417 -0.0681 -1.0551 -0.1363
15583TIP3    H168164   6.159   1.994   6.505 -3.5662  0.8183 -0.5850
15583TIP3    H268165   6.206   1.938   6.372  0.7553 -2.0959  2.0075
15584TIP3   OH268166   3.841   5.181  14.831  0.3473 -0.0188  0.0827
15584TIP3    H168167   3.862   5.249  14.895  0.1211 -0.0238  0.1643
15584TIP3    H268168   3.754   5.205  14.798 -0.1479 -0.7842  0.8044
15585TIP3   OH268169   5.137   0.459  10.018 -0.2119 -0.1806  0.1094
15585TIP3    H168170   5.063   0.398  10.015 -1.3022  1.0042  1.6806
15585TIP3    H268171   5.210   0.408  10.053  0.2077 -1.8127 -3.0521
15586TIP3   OH268172   1.293   6.673  11.895  0.0251  0.1196 -0.1185
15586TIP3    H168173   1.383   6.651  11.919  0.1951  1.0018  0.0979
15586TIP3    H268174   1.293   6.769  11.890 -0.8746  0.1169 -0.2260
15587TIP3   OH268175   2.399   4.182   3.443 -0.1430 -0.3095 -0.1627
15587TIP3    H168176   2.479   4.158   3.488  1.4922  1.8519 -1.8049
15587TIP3    H268177   2.402   4.133   3.360 -0.6422 -0.3854 -0.1406
15588TIP3   OH268178   6.176   2.191  14.720  0.0683  0.4101 -0.3738
15588TIP3    H168179   6.229   2.188  14.799 -0.8457  2.0545  0.3314
15588TIP3    H268180   6.215   2.126  14.662  1.7668  0.3562  0.8014
15589TIP3   OH268181   3.065   2.594   1.168  0.4290 -0.0476 -0.3310
15589TIP3    H168182   3.069   2.572   1.075  0.5603  1.3565 -0.6733
15589TIP3    H268183   3.113   2.676   1.175  0.9564 -0.4614  1.0882
15590TIP3   OH268184   5.860   3.009   2.390  0.5930  0.2691 -0.7622
15590TIP3    H168185   5.895   3.092   2.358  1.2785  0.6112  0.8233
15590TIP3    H268186   5.798   3.034   2.458 -0.3320 -0.4713 -1.3171
15591TIP3   OH268187   3.188   1.048  14.156 -0.0387  0.1064 -0.4071
15591TIP3    H168188   3.143   1.066  14.239 -0.1501  0.4483 -0.5412
15591TIP3    H268189   3.163   1.121  14.099  1.9882  1.2118  0.0467
15592TIP3   OH268190   3.405   5.405   3.200  0.4890  0.1679 -1.0899
15592TIP3    H168191   3.311   5.408   3.212  0.1966 -0.1368 -3.1062
15592TIP3    H268192   3.428   5.313   3.206  0.8947  0.3811  0.9208
15593TIP3   OH268193   4.752   1.123   1.699 -0.1571 -0.2710 -0.9503
15593TIP3    H168194   4.819   1.114   1.631 -0.7579 -2.1222 -1.3312
15593TIP3    H268195   4.780   1.062   1.767 -1.0576 -0.5202 -0.7956
15594TIP3   OH268196   6.631   2.629   2.484  0.0932 -0.0607  0.5170
15594TIP3    H168197   6.541   2.600   2.471  0.8215 -1.1838 -2.3825
15594TIP3    H268198   6.677   2.551   2.515  0.3022  0.1965  0.8544
15595TIP3   OH268199   2.799   1.940   4.140  0.0543 -0.6236  0.4804
15595TIP3    H168200   2.858   1.992   4.084 -0.2951 -0.1028  0.5928
15595TIP3    H268201   2.838   1.853   4.141  1.0821 -0.1664  0.9289
15596TIP3   OH268202   6.234   3.878   3.096  0.6739  0.3534  0.3124
15596TIP3    H168203   6.199   3.939   3.031  2.7202  2.3578  1.0213
15596TIP3    H268204   6.253   3.933   3.173  2.9095 -1.0854  0.8339
15597TIP3   OH268205   6.560   1.728  15.405 -0.7570  0.3149 -0.2115
15597TIP3    H168206   6.583   1.641  15.375 -0.8242  0.1011  0.3435
15597TIP3    H268207   6.628   1.785  15.370 -0.5767  0.0013 -0.3702
15598TIP3   OH268208   2.762   1.390   3.693 -0.2555 -0.4427  0.2626
15598TIP3    H168209   2.750   1.475   3.651 -1.1339 -0.4233  0.5568
15598TIP3    H268210   2.853   1.367   3.673 -0.0162  0.5468  0.1573
15599TIP3   OH268211   1.482   2.747   6.101 -0.1769  0.5871 -0.5650
15599TIP3    H168212   1.551   2.687   6.074  0.0925  1.0821 -0.9969
15599TIP3    H268213   1.484   2.744   6.197 -0.9047 -0.9165 -0.5947
15600TIP3   OH268214   3.936   5.668   0.035 -0.3062  0.3836  0.0900
15600TIP3    H168215   3.868   5.704  -0.022 -0.3520  0.9879  0.5262
15600TIP3    H268216   3.888   5.627   0.107 -0.2252  0.2789  0.0827
15601TIP3   OH268217   5.494   6.322  15.024 -0.0211 -0.8775 -0.7182
15601TIP3    H168218   5.525   6.333  14.934 -1.3238  0.4672 -1.0205
15601TIP3    H268219   5.539   6.391  15.073  0.4248 -1.3934 -0.3946
15602TIP3   OH268220   5.830   6.222   5.410  0.1984 -0.8091 -0.6812
15602TIP3    H168221   5.851   6.307   5.371  0.2760 -0.4105  0.1943
15602TIP3    H268222   5.746   6.198   5.373 -1.2072  1.0284  1.2066
15603TIP3   OH268223   2.630   1.741   2.837 -0.0414 -0.7100  0.4630
15603TIP3    H168224   2.701   1.708   2.782 -1.5707  0.0330 -2.0360
15603TIP3    H268225   2.670   1.811   2.888  1.2323 -0.8674 -0.3012
15604TIP3   OH268226   0.062   5.637  16.851 -0.0219  0.4851 -0.4686
15604TIP3    H168227   0.035   5.726  16.831  0.8257  0.9080  0.2036
15604TIP3    H268228   0.016   5.583  16.787  0.2302  1.4967 -1.5310
15605TIP3   OH268229   6.058   0.190  15.900 -0.4767 -0.8356 -0.1540
15605TIP3    H168230   6.117   0.226  15.967 -0.5382 -0.1850 -0.4406
15605TIP3    H268231   6.004   0.265  15.874  0.6809 -0.6555 -2.1410
15606TIP3   OH268232   5.344   2.315  16.375  0.2895 -0.6872  0.3869
15606TIP3    H168233   5.417   2.375  16.356 -1.6403  1.6077 -0.1143
15606TIP3    H268234   5.347   2.303  16.470  0.8231  0.0800  0.4743
15607TIP3   OH268235   0.722   4.364   2.952  0.0769  0.5659 -0.1836
15607TIP3    H168236   0.639   4.412   2.948 -0.3228 -0.0422  0.5845
15607TIP3    H268237   0.752   4.361   2.862 -0.5142  1.1761 -0.4099
15608TIP3   OH268238   2.429   5.542   1.228  0.0290  0.5549  0.5563
15608TIP3    H168239   2.334   5.540   1.219 -0.2825 -0.2858  3.2813
15608TIP3    H268240   2.447   5.474   1.294  2.7110 -0.7468 -1.4354
15609TIP3   OH268241   1.353   4.127   6.372 -0.0320  0.7467 -0.3010
15609TIP3    H168242   1.366   4.036   6.348 -0.3317  0.5877  0.1350
15609TIP3    H268243   1.260   4.142   6.360  0.2168  1.3316 -1.5223
15610TIP3   OH268244   0.154   3.484   2.647  0.0500  0.5918 -0.2837
15610TIP3    H168245   0.227   3.425   2.633 -0.8691 -0.2960 -1.3623
15610TIP3    H268246   0.192   3.572   2.640  1.0844  0.1365 -0.3782
15611TIP3   OH268247   1.752   0.800  14.647  0.7982 -0.2070 -0.1299
15611TIP3    H168248   1.727   0.707  14.649  1.5998 -0.4514 -0.9878
15611TIP3    H268249   1.847   0.798  14.643  0.7922  0.6511 -0.6642
15612TIP3   OH268250   6.557   6.306   1.746  0.5595  0.5925 -0.6396
15612TIP3    H168251   6.628   6.245   1.729  0.8702  0.9738 -0.7233
15612TIP3    H268252   6.539   6.296   1.840  0.6563  0.4207 -0.6395
15613TIP3   OH268253   3.248   2.209   5.863 -0.3143 -0.4242 -0.1702
15613TIP3    H168254   3.251   2.160   5.946 -0.4856 -0.8012 -0.3875
15613TIP3    H268255   3.250   2.301   5.890 -0.5705 -0.5437  0.2611
15614TIP3   OH268256   4.869   5.586  17.016 -0.4109 -0.1136  0.5430
15614TIP3    H168257   4.777   5.562  17.007 -1.4106  3.0946  1.7985
15614TIP3    H268258   4.884   5.584  17.111  0.0256  2.0990  0.5365
15615TIP3   OH268259   0.476   1.262   4.071 -0.0297  0.1568  0.6358
15615TIP3    H168260   0.467   1.351   4.104 -0.3726 -0.3509  1.9544
15615TIP3    H268261   0.465   1.206   4.149  1.3622 -0.9937  0.0347
15616TIP3   OH268262   1.737   0.860  11.570 -0.3392  0.3302 -0.3309
15616TIP3    H168263   1.812   0.894  11.620 -0.2866 -0.3288  0.0445
15616TIP3    H268264   1.767   0.776  11.535 -0.9904 -0.0721  0.0539
15617TIP3   OH268265   3.125   2.236   1.947  0.4898 -0.0450 -0.2990
15617TIP3    H168266   3.082   2.183   1.879 -0.6238 -0.6013  0.8329
15617TIP3    H268267   3.180   2.297   1.897 -0.6838 -0.1114 -1.7248
15618TIP3   OH268268   5.950   1.739   4.879 -0.2992 -0.0289 -0.0219
15618TIP3    H168269   6.044   1.722   4.868 -0.0085  0.8413  1.0211
15618TIP3    H268270   5.945   1.832   4.902 -1.3040 -0.3808  1.2513
15619TIP3   OH268271   1.396   1.309   4.496 -0.0884 -0.0194  0.0686
15619TIP3    H168272   1.435   1.358   4.568  0.7758 -2.0716  1.0499
15619TIP3    H268273   1.472   1.272   4.449 -0.7599 -2.8451  1.1187
15620TIP3   OH268274   2.447   1.826   4.698 -0.0059 -0.1085 -0.2780
15620TIP3    H168275   2.376   1.820   4.634 -0.0036 -0.0804 -0.2833
15620TIP3    H268276   2.524   1.847   4.645  0.2493 -1.3927 -0.4190
15621TIP3   OH268277   1.409   2.348   4.712 -0.3343  0.1364 -0.1626
15621TIP3    H168278   1.347   2.280   4.739  2.2628 -2.0261  0.5523
15621TIP3    H268279   1.360   2.402   4.649 -2.8435 -1.6206  0.2182
15622TIP3   OH268280   4.275   2.115   4.274  0.9070  0.1851 -0.6182
15622TIP3    H168281   4.298   2.108   4.181  2.2147  0.5063 -0.3237
15622TIP3    H268282   4.277   2.209   4.292 -0.0037  0.1674 -0.4273
15623TIP3   OH268283   1.714   3.530   3.509 -0.2235  0.0077  0.2604
15623TIP3    H168284   1.682   3.440   3.513 -0.0316 -0.0534  0.4054
15623TIP3    H268285   1.753   3.538   3.422  0.9700 -0.4568  0.7459
15624TIP3   OH268286   2.016   3.736   2.876 -0.0508 -0.1978  0.3294
15624TIP3    H168287   1.925   3.752   2.852 -0.1903 -1.8830 -0.3546
15624TIP3    H268288   2.031   3.644   2.853  1.0402 -0.7052  2.8910
15625TIP3   OH268289   0.316   0.813  17.221  0.2889 -0.1439  0.4593
15625TIP3    H168290   0.366   0.746  17.267 -1.1574 -1.3841  0.2534
15625TIP3    H268291   0.342   0.895  17.263  0.2235 -1.0866  2.4144
15626TIP3   OH268292   1.053   5.797  16.377  0.1101  0.3967  0.4406
15626TIP3    H168293   1.108   5.863  16.335  1.0660  0.7683  2.2093
15626TIP3    H268294   1.043   5.729  16.311  1.6775  0.9068 -0.3528
15627TIP3   OH268295   4.703   2.271  15.932 -0.5510  0.7332  0.6947
15627TIP3    H168296   4.761   2.345  15.950  0.5971 -0.0319  0.1953
15627TIP3    H268297   4.732   2.202  15.992 -1.0768  0.4227  0.5960
15628TIP3   OH268298   2.021   0.350  16.519  0.4413 -0.5621  0.4317
15628TIP3    H168299   2.072   0.427  16.544  0.6358 -1.4837  3.0318
15628TIP3    H268300   1.956   0.383  16.458  0.6899  1.6294  1.3099
15629TIP3   OH268301   1.510   0.180  11.324  0.1555  0.1974  0.0638
15629TIP3    H168302   1.552   0.119  11.264  1.7873  0.8812  0.4965
15629TIP3    H268303   1.541   0.266  11.297 -0.9712  0.7210  0.3936
15630TIP3   OH268304   0.954   6.528  16.284 -0.8770 -0.3576  0.5868
15630TIP3    H168305   0.902   6.567  16.214  0.9004 -2.6145 -2.1242
15630TIP3    H268306   1.044   6.554  16.264 -0.2004 -2.0209  1.3158
15631TIP3   OH268307   1.188   4.902  13.263 -0.1931  0.0652 -0.0667
15631TIP3    H168308   1.100   4.865  13.253 -0.8620  1.3375  0.9382
15631TIP3    H268309   1.196   4.918  13.357  2.0582 -2.2554  0.1931
15632TIP3   OH268310   4.534   1.227  14.993 -0.5206 -0.1440  0.2710
15632TIP3    H168311   4.599   1.168  14.956  0.2204  0.4379  0.6144
15632TIP3    H268312   4.585   1.289  15.046 -1.3551  0.3052  0.5704
15633TIP3   OH268313   6.710   2.861  13.421  0.4601 -0.1304  0.3158
15633TIP3    H168314   6.672   2.948  13.429 -0.2551 -0.5333  1.2832
15633TIP3    H268315   6.768   2.868  13.345  1.2700  1.5018  1.0437
15634TIP3   OH268316   5.252   4.059  11.098  0.0417 -0.2305 -0.0026
15634TIP3    H168317   5.345   4.039  11.089  0.2126 -0.7700  2.5787
15634TIP3    H268318   5.222   4.074  11.008  2.6140  0.0107 -0.8684
15635TIP3   OH268319   2.804   5.498  15.432 -0.5223 -0.5910  0.7004
15635TIP3    H168320   2.723   5.529  15.473 -1.7689 -0.2839 -1.8624
15635TIP3    H268321   2.788   5.405  15.415  0.4254 -0.9815  1.9006
15636TIP3   OH268322   2.194   4.405   4.183  0.2246 -0.3158 -0.0969
15636TIP3    H168323   2.134   4.369   4.248  0.4205 -0.6425 -0.0938
15636TIP3    H268324   2.272   4.430   4.233  0.0564  0.1891 -0.0875
15637TIP3   OH268325   4.049   3.391  14.755  0.0805 -0.9510  0.3388
15637TIP3    H168326   4.104   3.421  14.828 -0.0460  0.6536 -0.1926
15637TIP3    H268327   4.077   3.302  14.738  1.1498 -0.8216  1.3789
15638TIP3   OH268328   3.657   0.406  12.304 -0.3995 -0.3628  0.3731
15638TIP3    H168329   3.679   0.406  12.211 -0.1067 -0.6600  0.4423
15638TIP3    H268330   3.595   0.334  12.313 -0.1061 -0.6010  0.4846
15639TIP3   OH268331   5.250   0.305  13.962 -0.1514 -0.6907 -0.1447
15639TIP3    H168332   5.292   0.251  14.029 -0.7869 -3.0933 -1.6064
15639TIP3    H268333   5.322   0.344  13.913  0.3544  2.5629  2.9686
15640TIP3   OH268334   4.740   2.136   1.847 -0.4811 -0.0251 -0.3862
15640TIP3    H168335   4.650   2.164   1.860 -0.5438  0.7117 -2.2061
15640TIP3    H268336   4.739   2.091   1.763  1.5282  3.2387 -2.2508
15641TIP3   OH268337   4.090   6.528   4.758  0.4629 -0.6188 -0.3207
15641TIP3    H168338   4.136   6.472   4.696 -0.8947 -1.2386 -0.7822
15641TIP3    H268339   4.017   6.474   4.790 -0.4822  0.6426 -0.2975
15642TIP3   OH268340   5.090   6.654   1.189 -0.2242 -0.0884  0.2659
15642TIP3    H168341   5.094   6.653   1.094 -0.5713  0.7517  0.2406
15642TIP3    H268342   5.007   6.698   1.210 -0.0816 -0.1337  0.9494
15643TIP3   OH268343   0.171   6.371   0.098 -0.2305  0.6088 -0.1208
15643TIP3    H168344   0.187   6.299   0.038 -0.2902  1.5730 -1.3081
15643TIP3    H268345   0.256   6.390   0.137 -0.4880 -1.0618  1.3090
15644TIP3   OH268346   4.351   0.899  16.294 -0.7882 -0.2704  0.0939
15644TIP3    H168347   4.435   0.876  16.254 -0.5607  2.2222 -0.9967
15644TIP3    H268348   4.290   0.907  16.221 -0.0649  5.6482 -0.1442
15645TIP3   OH268349   4.196   5.111  14.309 -0.4017  0.5204  0.5515
15645TIP3    H168350   4.242   5.108  14.225 -0.8009 -2.7324  0.4098
15645TIP3    H268351   4.122   5.170  14.294 -0.3477  0.1267 -1.3098
15646TIP3   OH268352   2.327   1.294   1.809  0.5396 -0.3700 -0.0744
15646TIP3    H168353   2.377   1.365   1.770 -0.0012 -0.2770 -0.6011
15646TIP3    H268354   2.315   1.231   1.738  2.6466 -1.8925  0.8689
15647TIP3   OH268355   4.241   0.155   6.425 -0.8510 -0.1000 -0.6477
15647TIP3    H168356   4.313   0.093   6.441 -0.0052  0.8431 -0.6951
15647TIP3    H268357   4.218   0.142   6.333  2.0322  2.3833 -1.8107
15648TIP3   OH268358   4.692   5.241   1.397 -0.1806  0.4992  0.1921
15648TIP3    H168359   4.773   5.290   1.384 -0.9641  1.9765  0.6488
15648TIP3    H268360   4.717   5.164   1.447  0.8838  1.1958  0.7500
15649TIP3   OH268361   5.183   0.958  17.073 -0.2503 -0.2410  0.4311
15649TIP3    H168362   5.242   0.968  16.999 -0.9753  0.8478 -0.0050
15649TIP3    H268363   5.105   0.917  17.037 -0.2194 -0.6201  0.7856
15650TIP3   OH268364   4.242   0.614  11.559 -0.4461  0.3639 -0.1362
15650TIP3    H168365   4.157   0.636  11.520 -0.5936  1.1124  0.5908
15650TIP3    H268366   4.234   0.522  11.585 -0.8138  0.2532 -0.6462
15651TIP3   OH268367   3.301   0.552  15.558 -0.3279 -0.2068  0.2813
15651TIP3    H168368   3.357   0.573  15.633 -1.6382  2.3865  0.5994
15651TIP3    H268369   3.256   0.472  15.583  0.2089 -0.0739  1.7371
15652TIP3   OH268370   6.490   1.609   0.145 -0.2412  0.6616 -0.4794
15652TIP3    H168371   6.583   1.613   0.167 -0.2036 -1.4613 -0.1267
15652TIP3    H268372   6.445   1.649   0.220  0.2011 -1.5013  0.9809
15653TIP3   OH268373   5.485   3.821  12.500  0.8466 -0.3449 -0.0099
15653TIP3    H168374   5.434   3.879  12.556  1.5560  0.3748 -0.1082
15653TIP3    H268375   5.453   3.840  12.411  0.6802 -0.5210  0.0101
15654TIP3   OH268376   0.067   5.456  15.746 -0.1338 -0.1953  0.3401
15654TIP3    H168377   0.084   5.527  15.808  0.1500  0.2438 -0.2375
15654TIP3    H268378   0.062   5.499  15.661 -2.8639 -0.4747  0.3068
15655TIP3   OH268379   4.900   3.606   2.394  0.2901  0.3938  0.0409
15655TIP3    H168380   4.894   3.644   2.307 -1.7811  0.8894  0.3814
15655TIP3    H268381   4.981   3.642   2.431  1.2686  0.0508 -1.7087
15656TIP3   OH268382   4.664   0.446   4.578  0.1328 -0.2894  0.0985
15656TIP3    H168383   4.728   0.458   4.508 -0.1330  2.4013  0.2898
15656TIP3    H268384   4.700   0.376   4.633  2.2322  0.2944 -0.5254
15657TIP3   OH268385   4.724   1.798  12.917 -0.0845 -0.2249  0.0036
15657TIP3    H168386   4.762   1.770  13.000 -1.2377  0.0359  0.6242
15657TIP3    H268387   4.796   1.787  12.853  1.1089  0.5441  1.2002
15658TIP3   OH268388   4.780   0.502  14.964 -0.2907 -0.0947  0.2415
15658TIP3    H168389   4.844   0.486  14.895  1.6684 -0.3780  2.0763
15658TIP3    H268390   4.819   0.572  15.017 -1.2037 -0.7239  1.7552
15659TIP3   OH268391   0.522   1.018   2.291 -0.0926 -0.8175 -0.2533
15659TIP3    H168392   0.511   0.963   2.368  1.2880 -1.3987 -0.4494
15659TIP3    H268393   0.616   1.035   2.287 -0.4314  1.1502 -0.4880
15660TIP3   OH268394   3.503   2.710  15.512 -0.6613 -0.3587  0.0558
15660TIP3    H168395   3.529   2.767  15.439  0.4613 -1.0719 -0.1113
15660TIP3    H268396   3.441   2.763  15.562 -1.7661 -0.0126 -1.6351
15661TIP3   OH268397   5.514   6.099   1.028  0.3320  0.1707 -0.9455
15661TIP3    H168398   5.491   6.050   0.949  0.3533  0.7035 -1.2843
15661TIP3    H268399   5.433   6.141   1.055  0.8373  1.9296 -2.0605
15662TIP3   OH268400   0.944   3.851   3.668 -0.1763  0.3347 -0.4938
15662TIP3    H168401   0.907   3.932   3.701  1.5917  0.2128  1.9061
15662TIP3    H268402   0.894   3.782   3.711  0.3589  0.1683 -0.1315
15663TIP3   OH268403   1.266   3.392  12.947  0.2895  0.3740  0.0476
15663TIP3    H168404   1.319   3.359  12.875 -0.2434  0.1013 -0.2194
15663TIP3    H268405   1.184   3.343  12.941 -0.2279  1.2279  0.0887
15664TIP3   OH268406   3.598   4.635  15.542 -0.0102 -0.0669 -0.4881
15664TIP3    H168407   3.658   4.563  15.563 -0.7858 -0.4485  0.4061
15664TIP3    H268408   3.533   4.596  15.484 -0.2591 -0.0104 -0.2453
15665TIP3   OH268409   4.517   2.800  13.899 -0.1741 -0.5051  0.0337
15665TIP3    H168410   4.528   2.881  13.950 -0.0291 -0.4094 -0.1488
15665TIP3    H268411   4.452   2.750  13.948  0.0909 -0.4895  0.4093
15666TIP3   OH268412   4.395   2.630   2.587 -0.1041 -0.0356 -0.2563
15666TIP3    H168413   4.433   2.710   2.551 -2.1389  1.3847  0.7165
15666TIP3    H268414   4.326   2.606   2.525 -0.3273 -0.3638  0.1220
15667TIP3   OH268415   0.290   5.640  16.074 -0.2830 -1.0112  0.0214
15667TIP3    H168416   0.284   5.551  16.038 -0.0553 -1.0047 -0.0352
15667TIP3    H268417   0.347   5.631  16.151 -1.3445 -1.1508  0.7935
15668TIP3   OH268418   1.733   4.706   2.805  0.4809 -0.1570 -0.1230
15668TIP3    H168419   1.751   4.717   2.898  0.5526 -0.5604 -0.0872
15668TIP3    H268420   1.642   4.674   2.801  0.4730 -0.1282 -0.1921
15669TIP3   OH268421   4.750   3.587   4.658 -0.4897 -0.6762 -0.5438
15669TIP3    H168422   4.744   3.495   4.632 -2.4963 -0.3277 -1.4133
15669TIP3    H268423   4.799   3.629   4.587 -0.8770 -0.7967 -0.8824
15670TIP3   OH268424   0.575   6.006   1.497  0.0134  0.1373 -0.3956
15670TIP3    H168425   0.519   6.057   1.437  1.0209  1.4725 -0.2334
15670TIP3    H268426   0.518   5.937   1.530 -0.6893 -0.3802 -2.5763
15671TIP3   OH268427   3.231   4.017  15.076 -0.0514  0.2704  0.0145
15671TIP3    H168428   3.270   3.931  15.067  0.0451  0.3430 -0.2602
15671TIP3    H268429   3.244   4.059  14.991  1.5885  1.2618  0.7219
15672TIP3   OH268430   0.049   3.358   1.603 -0.5873 -0.6293  0.4179
15672TIP3    H168431  -0.041   3.328   1.598 -0.8396 -0.0537  1.3980
15672TIP3    H268432   0.073   3.347   1.695  0.1000 -0.0861  0.3095
15673TIP3   OH268433   5.448   3.520  13.962 -0.3140  0.3253 -0.9056
15673TIP3    H168434   5.386   3.569  14.016 -0.6824 -0.5203 -0.5554
15673TIP3    H268435   5.483   3.453  14.021  1.6413  1.3875 -0.8367
15674TIP3   OH268436   2.269   3.783   1.709  0.2195 -0.3437  0.3469
15674TIP3    H168437   2.301   3.851   1.768  0.3684 -0.7618  0.7498
15674TIP3    H268438   2.316   3.704   1.735  0.5530 -0.4521 -0.5683
15675TIP3   OH268439   3.202   1.199  11.271  0.0170 -0.1173 -0.1599
15675TIP3    H168440   3.286   1.245  11.265  1.0017 -1.8883 -0.1533
15675TIP3    H268441   3.177   1.184  11.180  0.1979 -0.4741 -0.1492
15676TIP3   OH268442   3.213   5.829   0.105  0.0759 -0.0585 -0.0972
15676TIP3    H168443   3.188   5.738   0.092 -1.5125  0.2927  0.3691
15676TIP3    H268444   3.197   5.871   0.021  0.0472 -0.0401 -0.0850
15677TIP3   OH268445   3.618   3.634  15.080  0.0056  0.3016  0.2287
15677TIP3    H168446   3.692   3.588  15.041  1.4318  1.1515  1.9025
15677TIP3    H268447   3.642   3.646  15.172 -2.8357 -0.6944  1.1557
15678TIP3   OH268448   4.349   2.239  16.869  0.2705 -0.2596  0.5470
15678TIP3    H168449   4.440   2.222  16.845  0.8718  0.4243  2.2646
15678TIP3    H268450   4.353   2.259  16.963 -1.9953 -2.9174  1.2437
15679TIP3   OH268451   5.411   1.090   0.567  0.0608 -0.6037 -0.2550
15679TIP3    H168452   5.353   1.016   0.579 -0.3222 -0.1139  0.9482
15679TIP3    H268453   5.380   1.132   0.486  0.0041 -1.4839 -0.6909
15680TIP3   OH268454   6.606   1.222  11.843 -0.4573 -0.3610  0.0682
15680TIP3    H168455   6.698   1.232  11.822 -0.6641  1.8323  0.0856
15680TIP3    H268456   6.601   1.140  11.892  1.4119 -0.7052 -0.2996
15681TIP3   OH268457   0.716   4.784  14.317  0.0988 -0.6983 -0.1121
15681TIP3    H168458   0.761   4.868  14.313  0.5830 -0.9749 -0.5250
15681TIP3    H268459   0.667   4.787  14.399  0.0148  0.0368 -0.1869
15682TIP3   OH268460   4.449   5.496  16.245  0.4388 -0.3743 -0.3173
15682TIP3    H168461   4.471   5.524  16.334  0.6594  0.4240 -0.6139
15682TIP3    H268462   4.534   5.491  16.200  0.3461 -0.9739 -0.4233
15683TIP3   OH268463   2.702   1.841  11.678 -0.2444  0.1633 -0.8430
15683TIP3    H168464   2.757   1.888  11.740  0.4196 -0.9489 -0.5800
15683TIP3    H268465   2.729   1.873  11.592 -2.1053  2.7363 -0.5551
15684TIP3   OH268466   2.378   4.895   4.295  0.3615 -0.3352 -0.0418
15684TIP3    H168467   2.415   4.867   4.212  1.1901 -3.5994  1.3217
15684TIP3    H268468   2.452   4.891   4.357 -0.6046  0.3780  1.1943
15685TIP3   OH268469   4.457   0.818  13.057  0.0884  0.5353 -0.4118
15685TIP3    H168470   4.404   0.762  13.113 -1.4473  0.9691 -1.3726
15685TIP3    H268471   4.393   0.866  13.003  1.3850  2.4329 -0.3443
15686TIP3   OH268472   4.892   1.286  11.427 -0.1315  0.3184  0.3200
15686TIP3    H168473   4.862   1.289  11.517 -0.3052  0.4351  0.2576
15686TIP3    H268474   4.858   1.203  11.393  1.5218 -0.6316  0.9246
15687TIP3   OH268475   1.483   5.676  11.757 -0.3721 -0.7512 -0.2236
15687TIP3    H168476   1.389   5.673  11.738 -0.3325  3.0606 -1.5614
15687TIP3    H268477   1.489   5.718  11.842  0.1376  1.3634 -1.2597
15688TIP3   OH268478   5.185   3.969   5.177 -0.0557 -0.1592 -0.0058
15688TIP3    H168479   5.091   3.974   5.157 -0.4014 -3.3470  0.6592
15688TIP3    H268480   5.219   4.055   5.151 -3.0892  0.9369 -0.5516
15689TIP3   OH268481   1.225   5.037  11.116  0.1059  0.4354  0.1596
15689TIP3    H168482   1.270   4.955  11.096  1.8455  1.6414 -1.1221
15689TIP3    H268483   1.168   5.016  11.190  0.9184 -1.7781  0.2053
15690TIP3   OH268484   3.258   6.468  11.861 -0.1867 -0.1715  0.1332
15690TIP3    H168485   3.288   6.399  11.802  0.8180 -0.8718  1.4385
15690TIP3    H268486   3.168   6.443  11.884 -0.3965 -0.1681 -0.6910
15691TIP3   OH268487   0.279   0.679  16.255  0.5124 -0.4127  0.4302
15691TIP3    H168488   0.360   0.643  16.293 -0.6136 -0.1195  3.1806
15691TIP3    H268489   0.237   0.603  16.214  0.8228 -1.1237  1.4126
15692TIP3   OH268490   3.524   1.671   2.755  0.1249  0.2304  0.2703
15692TIP3    H168491   3.593   1.734   2.732  0.8901 -0.0589  1.7171
15692TIP3    H268492   3.476   1.713   2.826 -0.2826 -0.1945  0.2494
15693TIP3   OH268493   0.553   4.469  15.983 -0.0691 -0.1549 -0.4482
15693TIP3    H168494   0.510   4.391  15.949 -1.7188 -1.4126  4.1880
15693TIP3    H268495   0.483   4.517  16.029  1.9269  1.6090  0.8547
15694TIP3   OH268496   6.578   5.612   0.102 -0.0851  0.6224 -0.5304
15694TIP3    H168497   6.494   5.583   0.138  0.0523 -0.2695 -0.8997
15694TIP3    H268498   6.643   5.559   0.148  0.2248  0.8345 -0.7253
15695TIP3   OH268499   0.614   5.664   2.310 -0.4081 -0.5819 -0.4011
15695TIP3    H168500   0.535   5.664   2.365  0.2778 -1.0499  0.5967
15695TIP3    H268501   0.663   5.740   2.341  1.3332 -2.4626  1.6339
15696TIP3   OH268502   3.282   5.791   0.593  0.2541  0.3745 -0.2716
15696TIP3    H168503   3.288   5.785   0.688  0.9260  1.0724 -0.2604
15696TIP3    H268504   3.358   5.742   0.561  1.3141  2.0533 -0.3781
15697TIP3   OH268505   1.952   2.114  15.181 -0.3026  0.2079  0.3634
15697TIP3    H168506   1.901   2.185  15.142  0.0429 -0.2931 -1.0692
15697TIP3    H268507   1.979   2.147  15.267 -1.7256  1.0680  0.4920
15698TIP3   OH268508   6.057   4.784  11.207 -0.1972  0.0396 -0.7730
15698TIP3    H168509   6.025   4.831  11.130 -1.7648 -0.3344 -0.3702
15698TIP3    H268510   6.024   4.834  11.281  2.8726  1.4698 -0.2850
15699TIP3   OH268511   1.533   0.535  15.333  0.3685 -0.5207 -0.4857
15699TIP3    H168512   1.513   0.578  15.416  1.8946  0.7919 -0.7592
15699TIP3    H268513   1.628   0.539  15.326  0.3592 -1.8167 -1.6784
15700TIP3   OH268514   0.794   3.412  13.686 -0.2987  0.5556  0.4920
15700TIP3    H168515   0.872   3.466  13.695  1.7572 -1.9760 -1.5556
15700TIP3    H268516   0.796   3.353  13.762 -0.3918  0.6908  0.5997
15701TIP3   OH268517   1.166   0.504   5.805 -0.0839  0.2560  0.0018
15701TIP3    H168518   1.199   0.593   5.794 -0.2943  0.4653  1.0343
15701TIP3    H268519   1.182   0.484   5.897 -0.7459 -0.4877 -0.0432
15702TIP3   OH268520   5.031   2.928   5.743 -0.4779  0.0535 -0.0031
15702TIP3    H168521   5.112   2.883   5.767  0.4465  1.2281 -0.7871
15702TIP3    H268522   4.979   2.928   5.822  0.3042 -0.7130  0.5239
15703TIP3   OH268523   5.530   6.097   5.683  0.4234 -0.0218 -0.3267
15703TIP3    H168524   5.543   6.006   5.656 -1.5859 -0.3133 -0.4093
15703TIP3    H268525   5.524   6.093   5.778 -1.6687 -0.2854 -0.4427
15704TIP3   OH268526   6.684   5.788   5.059  0.6708 -0.2921  0.6865
15704TIP3    H168527   6.710   5.832   4.978  0.3225 -2.6987 -0.7525
15704TIP3    H268528   6.690   5.857   5.125  2.0227  1.4506 -1.1637
15705TIP3   OH268529   1.427   5.128   3.680 -0.2923  0.2303  0.5236
15705TIP3    H168530   1.373   5.052   3.658 -1.1330  1.1114 -0.5468
15705TIP3    H268531   1.481   5.099   3.753  0.8950 -2.0703 -1.2003
15706TIP3   OH268532   0.994   3.855  15.854  0.2081 -0.1204 -0.6223
15706TIP3    H168533   0.980   3.799  15.778 -0.1698 -0.4073 -0.3447
15706TIP3    H268534   1.078   3.897  15.838  0.1520 -0.2170 -1.1758
15707TIP3   OH268535   6.756   5.087   0.402  0.2360 -0.4379  0.1422
15707TIP3    H168536   6.790   5.097   0.313  2.1921 -1.2097  0.7645
15707TIP3    H268537   6.812   5.144   0.455  0.2700 -1.3714  1.1308
15708TIP3   OH268538   1.353   3.388  16.241 -0.0915  0.3235 -0.0909
15708TIP3    H168539   1.326   3.318  16.182 -2.9050 -0.0469  1.5380
15708TIP3    H268540   1.396   3.342  16.314  0.6578  0.5335 -0.3981
15709TIP3   OH268541   4.984   5.735  11.657 -0.1811  0.4597 -0.3260
15709TIP3    H168542   4.990   5.645  11.691 -1.3341  0.1146 -1.0003
15709TIP3    H268543   5.027   5.788  11.723 -0.8404 -0.4148  0.8387
15710TIP3   OH268544   3.757   1.052  14.753 -0.3896 -0.2751 -0.7026
15710TIP3    H168545   3.833   1.047  14.811  0.7485 -0.9699 -2.2255
15710TIP3    H268546   3.743   0.961  14.725 -0.7370  0.0920 -1.7388
15711TIP3   OH268547   4.067   1.970  16.081  0.3270  0.2064 -0.2403
15711TIP3    H168548   3.978   2.002  16.098  0.6634  0.4633  1.1062
15711TIP3    H268549   4.118   2.049  16.063  0.7268  0.2809  1.1152
15712TIP3   OH268550   4.075   6.594  15.178 -0.3144 -0.9261 -0.0941
15712TIP3    H168551   4.006   6.637  15.127  0.1678 -0.2907 -0.2176
15712TIP3    H268552   4.045   6.600  15.269 -0.0549  0.0536 -0.0660
15713TIP3   OH268553   4.474   6.165   3.744 -0.7619 -0.1837  0.2960
15713TIP3    H168554   4.517   6.087   3.781  0.8431  0.5543  0.0291
15713TIP3    H268555   4.440   6.136   3.660 -1.6390 -1.0362  0.9364
15714TIP3   OH268556   5.720   3.953  16.110 -0.1035  0.0760 -0.5096
15714TIP3    H168557   5.691   3.874  16.155 -1.2665  0.3680 -0.7293
15714TIP3    H268558   5.755   3.921  16.026  1.0959 -0.3656  0.1517
15715TIP3   OH268559   1.100   3.263  16.344 -0.1841 -0.0531 -0.0429
15715TIP3    H168560   1.071   3.172  16.351 -0.1607 -0.0301  0.3261
15715TIP3    H268561   1.155   3.264  16.265 -0.7223 -0.2165 -0.4267
15716TIP3   OH268562   5.933   5.075   1.252 -0.0319 -0.1503  0.0404
15716TIP3    H168563   5.854   5.040   1.295 -0.6283 -0.5971 -1.3712
15716TIP3    H268564   5.979   4.997   1.221  1.0170  0.1100  0.9361
15717TIP3   OH268565   5.529   4.742  13.740 -0.0367  0.4021 -0.7850
15717TIP3    H168566   5.462   4.776  13.799  1.1581  1.1372  0.1835
15717TIP3    H268567   5.525   4.799  13.663 -0.8247  0.1583 -0.9228
15718TIP3   OH268568   2.388   1.880  11.090  0.2573  0.0040 -0.0680
15718TIP3    H168569   2.379   1.948  11.157 -1.2654 -1.5773  1.3938
15718TIP3    H268570   2.321   1.900  11.025  0.6609  0.6308 -0.2847
15719TIP3   OH268571   5.513   3.146   1.769 -0.0111 -0.3576  0.1672
15719TIP3    H168572   5.535   3.227   1.814  0.1966  0.3133 -1.1145
15719TIP3    H268573   5.473   3.174   1.686 -1.6386 -1.5548  0.5136
15720TIP3   OH268574   4.086   3.621   2.070 -0.9237  0.5409 -0.0508
15720TIP3    H168575   4.138   3.645   1.993 -3.7261  0.1276 -2.1709
15720TIP3    H268576   3.996   3.636   2.043 -1.9988  0.1491  3.1193
15721TIP3   OH268577   5.211   1.020   3.928  0.1315 -0.4160 -0.9892
15721TIP3    H168578   5.232   1.096   3.874  0.0306  1.0633  0.9944
15721TIP3    H268579   5.281   0.957   3.910  1.0433  0.7360 -1.5325
15722TIP3   OH268580   0.530   4.406  13.792  0.1053  0.5308  0.0710
15722TIP3    H168581   0.506   4.428  13.882 -0.7127 -1.4029  0.3556
15722TIP3    H268582   0.458   4.351  13.761  0.3135  1.2875 -1.8136
15723TIP3   OH268583   0.376   0.276  14.716  0.4251 -0.1427  0.5510
15723TIP3    H168584   0.358   0.275  14.622 -1.2566  0.2951  0.8451
15723TIP3    H268585   0.359   0.187  14.746 -4.1413  0.8043  1.2787
15724TIP3   OH268586   6.008   2.819  15.941 -0.0389  0.9503 -0.1881
15724TIP3    H168587   6.087   2.766  15.952 -2.1481 -1.5896  3.9177
15724TIP3    H268588   6.035   2.908  15.963  1.7630  0.2044  0.6936
15725TIP3   OH268589   0.628   1.451  17.105  0.0855  0.5622  0.5422
15725TIP3    H168590   0.559   1.400  17.062  0.3108 -0.2872  1.1740
15725TIP3    H268591   0.649   1.521  17.043  0.6824 -0.8557 -0.8877
15726TIP3   OH268592   5.739   5.148   0.041  0.0484  0.5133 -0.3910
15726TIP3    H168593   5.646   5.173   0.041 -0.5223 -1.5540  0.4034
15726TIP3    H268594   5.763   5.146   0.134  0.5678 -0.1822 -0.5421
15727TIP3   OH268595   2.013   4.250   4.336 -0.3068  0.4725 -0.1911
15727TIP3    H168596   2.029   4.289   4.422  1.3486  0.4436 -0.4571
15727TIP3    H268597   1.961   4.172   4.354 -0.5408  0.8384  0.7238
15728TIP3   OH268598   5.554   0.342  16.362  0.5311 -0.2669  0.1232
15728TIP3    H168599   5.563   0.418  16.419  1.4926  0.1292 -0.5527
15728TIP3    H268600   5.533   0.270  16.422  0.3171  0.3815  0.8376
15729TIP3   OH268601   5.535   3.411  11.314 -0.3634 -0.0841  0.0735
15729TIP3    H168602   5.602   3.363  11.265 -0.8809  0.5881 -1.2975
15729TIP3    H268603   5.569   3.500  11.321 -0.1943 -0.2266  1.1341
15730TIP3   OH268604   3.233   5.693   1.301 -0.2713 -0.2894  0.3802
15730TIP3    H168605   3.271   5.676   1.388 -0.5477 -1.4714  0.2865
15730TIP3    H268606   3.296   5.653   1.240  0.8101  2.0649 -0.0843
15731TIP3   OH268607   2.619   4.983   3.040  0.0490  0.3790 -0.5831
15731TIP3    H168608   2.607   4.905   3.095  0.0250 -0.4791 -1.7879
15731TIP3    H268609   2.540   5.035   3.056 -0.2549 -0.1649 -0.2914
15732TIP3   OH268610   3.608   5.173   3.388  0.2432 -0.1095 -0.2016
15732TIP3    H168611   3.691   5.133   3.413 -0.2502 -0.7814  0.3780
15732TIP3    H268612   3.621   5.267   3.406  1.2504 -0.0527 -1.1801
15733TIP3   OH268613   3.171   3.101   2.702 -0.0246 -0.3780  0.0052
15733TIP3    H168614   3.127   3.173   2.658 -0.4875 -0.2229  0.7045
15733TIP3    H268615   3.163   3.027   2.642 -0.4159 -0.1008 -0.2838
15734TIP3   OH268616   4.221   2.876  16.339  0.6287  0.1247  0.0726
15734TIP3    H168617   4.293   2.939  16.332  0.1880  0.6593  0.2930
15734TIP3    H268618   4.168   2.909  16.412  0.1089 -0.2094 -0.1532
15735TIP3   OH268619   2.584   0.955  13.898  0.0747  0.0526 -0.0161
15735TIP3    H168620   2.604   1.039  13.940  2.6392 -0.4303 -0.2041
15735TIP3    H268621   2.554   0.899  13.970  0.7352  0.3944  0.5284
15736TIP3   OH268622   2.169   3.531   5.107 -0.2350  0.4279 -0.9229
15736TIP3    H168623   2.133   3.619   5.098 -1.1809  0.3293  1.5655
15736TIP3    H268624   2.175   3.498   5.017 -0.4700  2.7693 -1.8338
15737TIP3   OH268625   3.595   5.849   0.335  0.7680 -0.0269 -0.0746
15737TIP3    H168626   3.655   5.924   0.336  0.3466  0.3069  1.4070
15737TIP3    H268627   3.568   5.839   0.426 -1.7547  0.1039 -0.7702
15738TIP3   OH268628   5.813   0.636  12.706 -0.0476 -0.4074  0.0930
15738TIP3    H168629   5.883   0.679  12.756  1.2102 -0.8811 -1.2125
15738TIP3    H268630   5.737   0.692  12.718  0.9519  0.9255  0.3380
15739TIP3   OH268631   1.355   6.365  12.189 -0.1965 -0.0353 -0.1889
15739TIP3    H168632   1.370   6.393  12.279  1.5103  0.0940 -0.4833
15739TIP3    H268633   1.351   6.270  12.193 -0.3940 -0.0150  0.0638
15740TIP3   OH268634   1.800   4.517  17.071 -0.7906  0.1483  0.0572
15740TIP3    H168635   1.718   4.545  17.111 -1.4355  0.3968 -1.4235
15740TIP3    H268636   1.814   4.578  16.999 -0.4434 -1.2622 -1.0884
15741TIP3   OH268637   3.302   0.983  14.454  0.1619  0.1285  0.3460
15741TIP3    H168638   3.226   0.926  14.439 -0.3421  0.6681  0.8244
15741TIP3    H268639   3.264   1.069  14.470  0.9333  0.6792 -0.7194
15742TIP3   OH268640   0.999   6.577   2.634 -0.0876  0.4405 -0.3709
15742TIP3    H168641   1.036   6.647   2.688 -0.7679  0.2162  0.3857
15742TIP3    H268642   1.071   6.553   2.575  0.6120  0.7866  0.3221
15743TIP3   OH268643   4.276   4.492   4.327  0.4797  0.0360 -0.4640
15743TIP3    H168644   4.205   4.490   4.263  0.6928 -1.6074 -0.6527
15743TIP3    H268645   4.353   4.465   4.278  1.3359  2.1316 -0.3398
15744TIP3   OH268646   3.377   2.365  13.342  0.1605 -0.5375 -0.1270
15744TIP3    H168647   3.332   2.373  13.426  1.0840 -1.9783  0.5316
15744TIP3    H268648   3.401   2.454  13.318 -1.7994  0.0978  0.1861
15745TIP3   OH268649   1.183   1.534   1.657  0.2172  0.2906 -0.2218
15745TIP3    H168650   1.110   1.497   1.707  1.1388 -0.1852  0.7942
15745TIP3    H268651   1.143   1.605   1.606 -1.2280 -0.9065 -0.8125
15746TIP3   OH268652   1.579   6.131  10.888  0.4802  0.3451  0.3560
15746TIP3    H168653   1.621   6.113  10.972  0.8348 -0.0411  0.0988
15746TIP3    H268654   1.642   6.101  10.823 -0.2393 -0.3401 -0.0324
15747TIP3   OH268655   0.131   3.147  13.815 -0.0249  0.1317  0.2495
15747TIP3    H168656   0.116   3.127  13.723  0.5980  1.2830 -0.1147
15747TIP3    H268657   0.090   3.232  13.829  2.4865  1.4128  0.2456
15748TIP3   OH268658   4.314   4.833   2.026  0.3596 -0.4322 -0.0400
15748TIP3    H168659   4.350   4.921   2.030  1.3163 -0.8053 -0.2050
15748TIP3    H268660   4.297   4.818   1.933 -0.3125 -0.2269  0.0457
15749TIP3   OH268661   5.634   5.485  11.783  0.2356 -0.2121  0.2557
15749TIP3    H168662   5.672   5.408  11.739  2.2044  0.3349  0.9296
15749TIP3    H268663   5.540   5.472  11.777  0.5101 -1.5803 -1.6069
15750TIP3   OH268664   3.837   2.105   6.052 -0.4413  0.1500 -0.5160
15750TIP3    H168665   3.888   2.181   6.080 -0.5954  0.1236 -0.1595
15750TIP3    H268666   3.802   2.129   5.967  0.7516 -0.0997 -1.0955
15751TIP3   OH268667   0.329   1.084  11.076 -0.0490 -0.1503 -0.4513
15751TIP3    H168668   0.380   1.003  11.067 -0.8154 -0.7531  0.4028
15751TIP3    H268669   0.249   1.068  11.026 -0.5667 -0.2545  0.3858
15752TIP3   OH268670   5.323   2.068  12.371 -0.5227 -0.0520 -0.1093
15752TIP3    H168671   5.377   2.115  12.435  0.8930 -0.7704 -0.7496
15752TIP3    H268672   5.378   1.995  12.343 -1.3929 -0.1224 -1.6575
15753TIP3   OH268673   6.369   2.487  13.618  0.1418 -0.1219 -0.6146
15753TIP3    H168674   6.324   2.453  13.695  0.4867 -0.3722 -0.5228
15753TIP3    H268675   6.298   2.511  13.558 -0.1198 -0.3531 -0.4010
15754TIP3   OH268676   0.982   5.604   0.537  0.4738  0.7930  0.0646
15754TIP3    H168677   0.959   5.690   0.503  0.0544  0.5110 -0.3734
15754TIP3    H268678   1.075   5.610   0.558  0.0377  1.9476  1.8229
15755TIP3   OH268679   6.191   3.334  17.079  0.4428 -0.0844 -0.5001
15755TIP3    H168680   6.200   3.292  17.165 -0.9308  0.8227  0.1133
15755TIP3    H268681   6.215   3.267  17.016  0.2283 -1.1510  0.5397
15756TIP3   OH268682   2.734   4.611  10.901  0.5010  0.1215  0.0765
15756TIP3    H168683   2.742   4.585  10.809 -0.0168  0.5851 -0.1009
15756TIP3    H268684   2.808   4.671  10.915  1.0735 -0.6043  0.1962
15757TIP3   OH268685   0.937   1.772  15.209  0.3275 -0.4601 -0.1448
15757TIP3    H168686   0.987   1.811  15.280 -0.9787 -0.2273  0.6610
15757TIP3    H268687   0.967   1.817  15.130  1.8613 -0.7965  0.2288
15758TIP3   OH268688   5.320   0.993   2.527 -0.1410  0.0113  0.2098
15758TIP3    H168689   5.323   0.995   2.431  0.4162  0.6012  0.2395
15758TIP3    H268690   5.227   0.982   2.547 -0.1466 -1.2242 -0.4133
15759TIP3   OH268691   4.034   0.641   5.842 -0.0868 -0.0911  0.6133
15759TIP3    H168692   3.943   0.617   5.860 -0.6174 -0.2702 -2.1200
15759TIP3    H268693   4.050   0.716   5.900 -3.0551  2.0550 -1.1590
15760TIP3   OH268694   1.915   2.507   1.044 -0.3815  0.2389 -0.3211
15760TIP3    H168695   1.946   2.470   1.126 -0.3465  0.8788 -0.0443
15760TIP3    H268696   1.952   2.449   0.977  0.2492  0.1728  0.0734
15761TIP3   OH268697   4.668   5.422   2.367 -0.1464 -0.7118 -0.3256
15761TIP3    H168698   4.669   5.378   2.452 -3.0296 -0.5701 -0.1749
15761TIP3    H268699   4.605   5.372   2.315  0.1493  0.3539 -1.7457
15762TIP3   OH268700   0.956   4.297   3.389 -0.3722 -0.3383  0.0609
15762TIP3    H168701   0.944   4.392   3.390  1.1243 -0.1356  0.3585
15762TIP3    H268702   0.907   4.267   3.313 -0.4510  0.7396 -0.3245
15763TIP3   OH268703   0.555   3.251   0.719 -0.4695  0.0523 -0.5783
15763TIP3    H168704   0.605   3.239   0.638  0.1767  2.2647 -0.5297
15763TIP3    H268705   0.606   3.206   0.786  0.9898  1.5048 -0.7032
15764TIP3   OH268706   6.233   1.175   4.211  0.2015 -0.6448 -0.3290
15764TIP3    H168707   6.292   1.182   4.136 -0.0592 -0.7374 -0.5427
15764TIP3    H268708   6.165   1.240   4.194  1.7239  1.4500  1.2696
15765TIP3   OH268709   5.354   2.551  13.927  0.1368 -0.0562  0.3860
15765TIP3    H168710   5.284   2.490  13.947 -0.7282  0.8865  0.2995
15765TIP3    H268711   5.409   2.505  13.865 -0.1257 -0.9977  0.8455
15766TIP3   OH268712   4.147   4.670  11.204 -0.0579 -0.1398  0.2137
15766TIP3    H168713   4.085   4.603  11.232  0.4520 -0.6529  0.1347
15766TIP3    H268714   4.229   4.646  11.248 -0.5840  2.1291  2.5729
15767TIP3   OH268715   1.275   6.013   4.903  0.2616 -0.1767 -0.1943
15767TIP3    H168716   1.240   5.927   4.927  3.1871 -1.1209  0.9246
15767TIP3    H268717   1.285   6.059   4.987  0.1295  0.6985 -0.6520
15768TIP3   OH268718   5.176   3.784   6.355 -0.4506 -0.2665  0.0807
15768TIP3    H168719   5.094   3.753   6.393 -0.6168 -0.1008 -0.1376
15768TIP3    H268720   5.243   3.765   6.421 -0.7306 -0.0024  0.4430
15769TIP3   OH268721   1.242   2.026   0.865  0.6489  0.0322 -0.0784
15769TIP3    H168722   1.312   2.061   0.810  2.3839 -0.5948  1.7247
15769TIP3    H268723   1.196   2.104   0.897  1.6439  0.5036  0.2055
15770TIP3   OH268724   6.077   2.414   0.632 -0.5505 -0.0588 -0.3126
15770TIP3    H168725   6.059   2.331   0.677 -1.2449 -0.3232 -1.0498
15770TIP3    H268726   6.038   2.402   0.545 -0.5028  0.9827 -0.4780
15771TIP3   OH268727   5.070   4.190   5.607  0.0276  0.2904  0.6512
15771TIP3    H168728   5.157   4.182   5.568  0.4768 -0.0224  1.6946
15771TIP3    H268729   5.061   4.112   5.661 -1.2237 -0.0593 -0.0470
15772TIP3   OH268730   4.359   3.002   2.331 -0.5887  0.3282  0.0074
15772TIP3    H168731   4.454   3.017   2.331 -0.8255  1.9116  0.0079
15772TIP3    H268732   4.338   2.982   2.422 -0.4752  1.4914  0.2963
15773TIP3   OH268733   0.250   4.336  13.835 -0.3030  0.6135  0.3577
15773TIP3    H168734   0.207   4.347  13.919 -3.2165  0.4535 -1.0666
15773TIP3    H268735   0.324   4.278  13.853 -2.3299 -1.4050  2.3250
15774TIP3   OH268736   0.481   1.315   2.527  0.1108  0.1612 -0.0137
15774TIP3    H168737   0.395   1.274   2.519  0.6910 -0.7891 -1.4951
15774TIP3    H268738   0.462   1.408   2.539 -1.1286 -0.0791 -0.0429
15775TIP3   OH268739   0.269   2.800  15.392 -0.4762  0.3314  0.0782
15775TIP3    H168740   0.215   2.825  15.317 -1.9968  1.8527  1.6416
15775TIP3    H268741   0.208   2.797  15.466  1.2703  0.3464  1.5576
15776TIP3   OH268742   1.655   0.240   6.321 -0.4039  0.8968 -0.2383
15776TIP3    H168743   1.602   0.315   6.350  0.8814  1.8400 -0.2708
15776TIP3    H268744   1.654   0.180   6.396 -1.6503  0.8270 -0.3014
15777TIP3   OH268745   4.830   4.161  15.066  0.2913  0.0439  0.2815
15777TIP3    H168746   4.779   4.199  15.137 -1.8669 -1.1733 -0.5746
15777TIP3    H268747   4.777   4.088  15.034  1.0760  0.6950 -2.7132
15778TIP3   OH268748   6.351   6.564   1.246 -0.6746 -0.7035 -0.0930
15778TIP3    H168749   6.394   6.495   1.297  1.4390 -0.5498 -1.5851
15778TIP3    H268750   6.366   6.540   1.155 -0.3417  1.4324 -0.6432
15779TIP3   OH268751   1.792   1.370  13.045 -0.0919 -0.1634 -0.2969
15779TIP3    H168752   1.698   1.381  13.061 -0.1130 -2.3416  1.3023
15779TIP3    H268753   1.831   1.374  13.132  1.0692 -1.2366 -0.7589
15780TIP3   OH268754   6.314   2.805   6.311  0.0592 -0.1852  0.3115
15780TIP3    H168755   6.362   2.802   6.394  1.8393  1.9540 -0.5815
15780TIP3    H268756   6.236   2.858   6.331  1.5260  2.0983  0.1659
15781TIP3   OH268757   5.298   1.085  13.584 -0.7769  0.2356 -0.1327
15781TIP3    H168758   5.289   1.025  13.657  0.6173  1.6208  1.2080
15781TIP3    H268759   5.370   1.049  13.532 -1.3464 -0.3982 -0.4909
15782TIP3   OH268760   4.808   3.846   0.953  0.6886 -0.4262  0.7379
15782TIP3    H168761   4.838   3.765   0.995  0.3029  0.8522  3.5254
15782TIP3    H268762   4.732   3.873   1.003  0.5581  1.4555 -0.4356
15783TIP3   OH268763   1.492   4.462  14.548  0.1041  0.1114  0.9249
15783TIP3    H168764   1.414   4.421  14.583 -1.0707  0.6121 -1.0335
15783TIP3    H268765   1.469   4.554  14.537  0.3974 -0.0533 -1.2275
15784TIP3   OH268766   4.075   3.268  14.128 -0.2976 -0.0525 -0.2322
15784TIP3    H168767   4.132   3.344  14.116  0.2329 -0.4866 -0.5313
15784TIP3    H268768   3.987   3.304  14.134  0.1423  0.7330  1.6447
15785TIP3   OH268769   0.106   0.125  16.228  0.2194 -0.0873  0.0544
15785TIP3    H168770   0.171   0.114  16.297  2.1642 -0.7630 -1.8331
15785TIP3    H268771   0.094   0.038  16.191 -2.4511 -0.1415  0.9335
15786TIP3   OH268772   0.091   6.453   3.360 -0.0596  0.0701 -0.2086
15786TIP3    H168773   0.040   6.384   3.319 -1.1900 -0.5545  2.1681
15786TIP3    H268774   0.028   6.501   3.414  1.6073 -0.1002  1.9950
15787TIP3   OH268775   2.787   3.045   2.940  0.2379  0.0566 -0.7761
15787TIP3    H168776   2.880   3.049   2.962 -0.0034 -0.4174  0.3398
15787TIP3    H268777   2.783   2.993   2.859  0.9494  0.2092 -0.9105
15788TIP3   OH268778   6.178   3.671  14.442 -0.4466 -0.2403 -0.3272
15788TIP3    H168779   6.167   3.601  14.506  1.4124  1.1521  1.6198
15788TIP3    H268780   6.271   3.668  14.419 -0.8142  0.1449 -1.9718
15789TIP3   OH268781   4.146   5.266  12.713 -0.2619 -0.0873  0.2512
15789TIP3    H168782   4.098   5.188  12.684  0.7308 -0.4097 -0.5457
15789TIP3    H268783   4.195   5.294  12.636  2.5459 -1.0493  1.6413
15790TIP3   OH268784   1.623   4.612   0.694  0.4978 -0.4995  0.2710
15790TIP3    H168785   1.624   4.612   0.789 -2.5254  0.8510  0.3700
15790TIP3    H268786   1.620   4.520   0.670  3.8820 -0.9599  1.3471
15791TIP3   OH268787   5.896   5.951  10.637  0.0825 -0.1211  0.4913
15791TIP3    H168788   5.887   5.858  10.660  0.4312 -0.3192 -0.1503
15791TIP3    H268789   5.808   5.977  10.609  0.2372 -0.5677 -0.4290
15792TIP3   OH268790   5.481   1.303   0.123 -0.1058 -0.2556  0.1081
15792TIP3    H168791   5.469   1.244   0.049  1.3519 -1.0485  0.4769
15792TIP3    H268792   5.571   1.336   0.114 -0.5741  1.1422  0.4478
15793TIP3   OH268793   4.258   1.191   6.093  0.0795 -0.0639 -0.6432
15793TIP3    H168794   4.197   1.134   6.140  0.1717 -1.0423 -1.6956
15793TIP3    H268795   4.341   1.183   6.141 -0.5168  0.9933  0.5766
15794TIP3   OH268796   0.590   3.178   1.775 -0.4326  0.3762 -0.5928
15794TIP3    H168797   0.683   3.157   1.781 -0.0433  1.8162 -1.2255
15794TIP3    H268798   0.588   3.270   1.747 -2.0425  0.1834 -1.1846
15795TIP3   OH268799   0.253   6.569   2.509 -0.1104 -0.1358  0.6497
15795TIP3    H168800   0.294   6.653   2.530  0.8667 -0.4089 -0.1369
15795TIP3    H268801   0.193   6.588   2.437  1.1977 -0.3676 -0.5287
15796TIP3   OH268802   4.968   3.731  14.506 -0.4276  0.3037 -0.4076
15796TIP3    H168803   5.026   3.707  14.579  0.1518 -0.1024 -0.9972
15796TIP3    H268804   4.894   3.775  14.548 -0.6439 -0.9289  0.5335
15797TIP3   OH268805   1.372   1.325  12.361  0.3887  0.5954  0.1332
15797TIP3    H168806   1.444   1.290  12.413 -0.3475  1.0126  1.4385
15797TIP3    H268807   1.395   1.417  12.347 -0.6418  1.1331  1.8858
15798TIP3   OH268808   6.093   1.847   5.274 -0.3388  0.1998  0.1983
15798TIP3    H168809   6.023   1.785   5.257  0.0591 -0.4383  0.8986
15798TIP3    H268810   6.075   1.882   5.361  0.9406 -0.9698  0.9615
15799TIP3   OH268811   3.396   3.197   1.701  0.7381 -0.5835  0.5870
15799TIP3    H168812   3.475   3.246   1.682  0.5494 -0.8639 -0.9532
15799TIP3    H268813   3.406   3.169   1.792  2.0022  0.1096  0.6631
15800TIP3   OH268814   4.934   5.322   5.074  0.3271 -0.3801 -0.7073
15800TIP3    H168815   4.850   5.346   5.114  1.2873 -0.1037  1.1774
15800TIP3    H268816   4.961   5.402   5.028  1.4797  0.8886  2.0524
15801TIP3   OH268817   2.749   5.307  11.853 -0.8644 -0.4378 -0.0975
15801TIP3    H168818   2.769   5.344  11.767 -0.9058 -0.7358 -0.2350
15801TIP3    H268819   2.654   5.310  11.859 -0.9193 -1.2640 -0.4431
15802TIP3   OH268820   3.690   2.642   5.482 -0.3166  0.1355 -0.2497
15802TIP3    H168821   3.679   2.645   5.577 -0.5347  0.1620 -0.2750
15802TIP3    H268822   3.601   2.641   5.447 -0.2400  0.7544 -0.4734
15803TIP3   OH268823   2.174   1.233  14.485 -0.1502 -0.0037 -0.3238
15803TIP3    H168824   2.158   1.327  14.477 -0.6582 -0.1896 -1.6109
15803TIP3    H268825   2.089   1.192  14.465  0.4968 -0.7917 -1.5145
15804TIP3   OH268826   2.175   3.085   4.650  0.1365  0.1767  0.1894
15804TIP3    H168827   2.185   3.068   4.556 -1.4694 -0.4083  0.1143
15804TIP3    H268828   2.262   3.067   4.687  0.1755 -1.8522 -0.8371
15805TIP3   OH268829   4.442   3.909   2.598  0.0052 -0.7022 -0.3566
15805TIP3    H168830   4.355   3.913   2.638 -0.0596  0.1546 -0.5795
15805TIP3    H268831   4.456   3.815   2.581 -1.5252 -0.7151 -1.6998
15806TIP3   OH268832   5.455   1.879  15.553  0.2290 -0.1394  0.1593
15806TIP3    H168833   5.457   1.789  15.522  2.5307 -0.0382 -0.0610
15806TIP3    H268834   5.467   1.932  15.474 -0.2112  0.3334  0.4069
15807TIP3   OH268835   4.202   4.226  11.854  0.5499  0.0783 -0.2661
15807TIP3    H168836   4.225   4.178  11.933 -2.4627  0.2610  0.7988
15807TIP3    H268837   4.187   4.315  11.884 -1.9248 -0.1345 -0.7501
15808TIP3   OH268838   3.255   2.387  14.038  0.6124 -0.0355  0.8024
15808TIP3    H168839   3.262   2.482  14.033  2.2934 -0.1160  1.2936
15808TIP3    H268840   3.174   2.366  13.990  1.7004  1.4149 -1.7867
15809TIP3   OH268841   2.365   5.622  13.339  0.3873  0.4844 -0.3242
15809TIP3    H168842   2.449   5.577  13.351 -0.3173 -1.1833 -1.4479
15809TIP3    H268843   2.299   5.553  13.348 -0.7853  1.5210 -0.8526
15810TIP3   OH268844   0.795   1.539  15.436 -0.3679 -0.3773  0.6498
15810TIP3    H168845   0.781   1.459  15.486  0.1473  0.4262  2.1145
15810TIP3    H268846   0.728   1.537  15.368 -1.4165 -1.2493  1.6813
15811TIP3   OH268847   0.692   2.152  12.005 -0.2505  0.1495 -0.4841
15811TIP3    H168848   0.682   2.235  12.053 -1.2027 -0.1482 -0.1729
15811TIP3    H268849   0.686   2.177  11.913 -0.1771  0.4750 -0.4027
15812TIP3   OH268850   1.972   2.372   1.901  0.0367 -0.2416 -0.3456
15812TIP3    H168851   1.941   2.440   1.842  1.2314  1.9813  1.5196
15812TIP3    H268852   2.040   2.414   1.954  1.1199 -2.9878  0.5749
15813TIP3   OH268853   0.857   4.958   1.826 -0.4049 -0.0012  0.4697
15813TIP3    H168854   0.908   5.016   1.769  1.5262 -1.5414  0.5791
15813TIP3    H268855   0.869   4.994   1.914  0.1997 -0.1692  0.4525
15814TIP3   OH268856   4.965   5.986  14.572  0.1678 -0.0155  0.4778
15814TIP3    H168857   5.059   5.998  14.557 -0.0358  0.8216 -0.2124
15814TIP3    H268858   4.958   5.954  14.662  1.1043  0.1439  0.6097
15815TIP3   OH268859   5.422   2.960   2.513 -0.2583 -1.1400  0.2658
15815TIP3    H168860   5.472   2.895   2.464 -0.5073 -0.6465 -0.6449
15815TIP3    H268861   5.373   3.008   2.447  0.2606  0.2676  0.8914
15816TIP3   OH268862   0.126   5.520   1.011  0.6137 -0.3264  0.3287
15816TIP3    H168863   0.073   5.509   1.091  2.9517 -2.2018  1.7038
15816TIP3    H268864   0.207   5.473   1.030  1.9896  0.8085 -2.4769
15817TIP3   OH268865   2.854   3.235  15.529  0.0715  0.8202 -0.1821
15817TIP3    H168866   2.784   3.204  15.587  2.3224 -1.7487  1.2651
15817TIP3    H268867   2.844   3.331  15.530 -0.4598  0.8238  3.8706
15818TIP3   OH268868   2.966   2.205  11.155  0.4464  0.0427  0.3072
15818TIP3    H168869   2.898   2.263  11.189 -1.3253 -0.7418 -1.7385
15818TIP3    H268870   2.951   2.122  11.202 -0.4359 -0.3094 -0.5656
15819TIP3   OH268871   6.426   1.103   6.038 -0.1875 -0.9900 -0.6168
15819TIP3    H168872   6.506   1.066   6.078 -0.9014 -0.9477  0.8849
15819TIP3    H268873   6.453   1.189   6.007  0.3639 -0.9731 -0.1191
15820TIP3   OH268874   6.422   3.690  13.108  0.3317  0.2481 -0.0675
15820TIP3    H168875   6.395   3.685  13.200  1.8989 -0.6873  0.3652
15820TIP3    H268876   6.443   3.782  13.094  1.5031  0.1454  0.9447
15821TIP3   OH268877   6.605   1.837  11.195  0.0363 -0.0384 -0.1377
15821TIP3    H168878   6.684   1.833  11.249  0.1794 -2.1488 -0.4400
15821TIP3    H268879   6.536   1.801  11.250 -0.3335  0.1130 -0.5007
15822TIP3   OH268880   1.706   0.033   4.890  0.0182 -0.0203 -0.3568
15822TIP3    H168881   1.677   0.124   4.898  0.6000  0.1352  0.0329
15822TIP3    H268882   1.631  -0.019   4.917  0.5319  0.4022  1.9699
15823TIP3   OH268883   4.937   0.983   3.951 -0.2572 -0.4316  0.6420
15823TIP3    H168884   4.979   0.981   4.037 -0.1185 -0.0474  0.5803
15823TIP3    H268885   4.979   1.056   3.905  0.6212 -1.4644 -0.2308
15824TIP3   OH268886   3.619   5.268   1.308 -0.0904  0.0201  0.1554
15824TIP3    H168887   3.686   5.250   1.242 -1.1337 -1.9468 -0.4091
15824TIP3    H268888   3.561   5.191   1.306 -1.3879  0.9013  1.8307
15825TIP3   OH268889   1.534   1.383   1.733 -0.0878  0.0676 -0.2260
15825TIP3    H168890   1.477   1.307   1.731 -0.7544  0.5675 -0.3305
15825TIP3    H268891   1.593   1.367   1.807  0.2320 -0.8741 -0.6846
15826TIP3   OH268892   0.690   4.945   3.068 -0.5643 -0.3754  0.7298
15826TIP3    H168893   0.640   5.010   3.117  1.2436  1.7710 -0.1742
15826TIP3    H268894   0.750   4.996   3.015 -1.3256 -2.6619 -2.5325
15827TIP3   OH268895   4.128   2.147   4.501 -0.5588 -0.1663  0.7413
15827TIP3    H168896   4.067   2.220   4.492 -0.0818  0.1826  0.2784
15827TIP3    H268897   4.154   2.126   4.412 -0.3087 -0.5742  0.9083
15828TIP3   OH268898   1.971   1.876  12.026 -0.2768 -0.2932  0.0997
15828TIP3    H168899   1.924   1.959  12.033 -0.0869 -0.0896 -0.9265
15828TIP3    H268900   2.042   1.882  12.090 -0.7942 -0.0232  0.6424
15829TIP3   OH268901   4.157   5.310   3.395  0.0362  0.4183 -0.3204
15829TIP3    H168902   4.181   5.221   3.369  0.8166  0.4874  0.1585
15829TIP3    H268903   4.237   5.361   3.385 -0.0070  0.7385  0.8785
15830TIP3   OH268904   2.581   2.631  16.811 -0.3056 -0.1087  0.0026
15830TIP3    H168905   2.521   2.699  16.779 -1.4436 -1.3381 -0.5347
15830TIP3    H268906   2.657   2.680  16.844 -1.2263  1.4343 -0.0907
15831TIP3   OH268907   3.925   2.133   5.474  0.0158 -0.4353  0.4869
15831TIP3    H168908   3.852   2.128   5.412  1.0826 -1.5475 -0.7018
15831TIP3    H268909   3.936   2.043   5.505  0.0355 -0.0337  1.6534
15832TIP3   OH268910   4.152   0.367  17.226  0.3966  0.3390  0.0649
15832TIP3    H168911   4.205   0.375  17.305 -0.6743 -0.3527  0.8619
15832TIP3    H268912   4.147   0.457  17.192  0.1231  0.7815  1.2628
15833TIP3   OH268913   4.672   3.178  13.173 -0.2149 -0.5994 -0.9005
15833TIP3    H168914   4.674   3.163  13.267 -1.4659 -3.2340 -1.2629
15833TIP3    H268915   4.763   3.196  13.150 -0.1737  2.1193  1.0669
15834TIP3   OH268916   4.061   1.251  11.658 -0.1389 -0.3344  0.3067
15834TIP3    H168917   4.057   1.346  11.670  0.8257 -0.2855  0.2837
15834TIP3    H268918   4.115   1.239  11.579 -0.9437 -0.8742 -0.1760
15835TIP3   OH268919   5.449   5.051  15.019  0.0970  0.2756 -0.1194
15835TIP3    H168920   5.459   4.991  14.945 -0.7062  0.3771 -0.3148
15835TIP3    H268921   5.389   5.005  15.078  0.5992  0.2698  0.3933
15836TIP3   OH268922   2.821   2.019  16.048 -0.0314 -0.0237 -0.2811
15836TIP3    H168923   2.832   2.011  15.953 -1.5357  0.4289 -0.4982
15836TIP3    H268924   2.744   2.074  16.059  0.5611  0.5388  1.2142
15837TIP3   OH268925   3.921   1.012  16.542 -0.3581  0.0444  0.2116
15837TIP3    H168926   3.846   1.020  16.600 -0.4864 -0.4084  0.1089
15837TIP3    H268927   3.898   0.941  16.482 -0.3021  0.6289 -0.5124
15838TIP3   OH268928   3.462   5.046   5.861 -0.0406  0.1053 -0.4348
15838TIP3    H168929   3.518   5.122   5.877  1.3222 -0.4925 -2.1284
15838TIP3    H268930   3.521   4.971   5.870 -1.4170 -0.7813  1.4241
15839TIP3   OH268931   3.676   0.045   3.492 -0.6669 -0.2861 -0.0521
15839TIP3    H168932   3.766   0.047   3.460 -1.2831 -0.9156 -1.9099
15839TIP3    H268933   3.649   0.137   3.494 -0.6356 -0.2415 -1.4361
15840TIP3   OH268934   0.275   0.492   6.366  0.3589 -0.5014 -0.2769
15840TIP3    H168935   0.259   0.434   6.441 -1.1050  0.7629  0.4035
15840TIP3    H268936   0.311   0.571   6.405 -0.5277  0.2086 -0.8920
15841TIP3   OH268937   6.281   4.899   0.856  0.5828  0.4255 -0.0726
15841TIP3    H168938   6.204   4.847   0.830  0.8518  0.8155 -1.7096
15841TIP3    H268939   6.247   4.962   0.920 -0.7212  1.4297 -1.7173
15842TIP3   OH268940   0.170   2.578  16.714  0.2167  0.0258 -0.3328
15842TIP3    H168941   0.210   2.492  16.725 -0.8812 -0.1887  2.1635
15842TIP3    H268942   0.115   2.569  16.636 -0.0090 -1.5518 -0.0010
15843TIP3   OH268943   0.726   1.118  16.672  0.3347 -0.3255  0.0877
15843TIP3    H168944   0.680   1.056  16.728 -0.3530 -1.3724 -1.6039
15843TIP3    H268945   0.769   1.178  16.734 -2.5394  0.1561  1.7245
15844TIP3   OH268946   1.852   4.766   0.998 -0.0267  0.3943  0.4951
15844TIP3    H168947   1.912   4.720   1.056 -0.2509  1.1902  1.3727
15844TIP3    H268948   1.893   4.761   0.911  0.0029 -1.3454  0.5991
15845TIP3   OH268949   0.892   4.710   2.002 -0.3857  0.3581 -0.3921
15845TIP3    H168950   0.886   4.744   2.091  0.8238 -0.5033  0.0421
15845TIP3    H268951   0.910   4.616   2.014  2.3059  0.6805 -1.4922
15846TIP3   OH268952   5.287   6.256   3.479 -0.2931  0.0873  0.1592
15846TIP3    H168953   5.310   6.314   3.406 -2.3357  0.1310 -0.4835
15846TIP3    H268954   5.323   6.299   3.556  0.8637  0.6488 -0.6895
15847TIP3   OH268955   1.197   6.111  10.702  0.0061 -0.2196  0.1527
15847TIP3    H168956   1.252   6.033  10.705  0.2666 -0.0348  0.2297
15847TIP3    H268957   1.125   6.088  10.644 -0.5977 -0.9591  1.1699
15848TIP3   OH268958   6.506   5.153   3.474 -0.0243 -0.1513 -0.2131
15848TIP3    H168959   6.447   5.216   3.433  0.0914  1.2508  1.7485
15848TIP3    H268960   6.560   5.205   3.533  1.2008 -1.8550  0.2005
15849TIP3   OH268961   5.302   4.822  14.510  0.0271  0.0326 -0.1875
15849TIP3    H168962   5.349   4.746  14.544  0.9817 -0.1417 -1.8708
15849TIP3    H268963   5.214   4.813  14.546  0.7148 -0.7049  1.3705
15850TIP3   OH268964   2.127   0.200  14.620  0.3278 -0.2047 -0.3642
15850TIP3    H168965   2.066   0.152  14.676  0.0733  1.5781  0.9341
15850TIP3    H268966   2.197   0.138  14.602  1.1397 -0.4056  3.1459
15851TIP3   OH268967   0.133   1.425  10.554 -0.4807  0.0093  0.5150
15851TIP3    H168968   0.107   1.517  10.558 -0.7913 -0.0488 -0.1506
15851TIP3    H268969   0.228   1.427  10.568 -0.3789  0.4975 -0.2286
15852TIP3   OH268970   2.975   1.018  15.599  0.2986  0.1855  0.4664
15852TIP3    H168971   3.068   1.026  15.575  0.4175  1.0993  1.1931
15852TIP3    H268972   2.948   0.934  15.562  1.0432  0.5542 -0.9679
15853TIP3   OH268973   0.266   6.004  15.239 -0.2325 -0.6626 -0.6424
15853TIP3    H168974   0.353   5.964  15.245 -0.4406 -1.2525 -1.3792
15853TIP3    H268975   0.205   5.929  15.241 -0.6595 -0.3428 -1.3634
15854TIP3   OH268976   2.669   2.928  13.862  0.2088  0.0211  0.5847
15854TIP3    H168977   2.681   2.860  13.795 -0.9445 -0.1417  0.5428
15854TIP3    H268978   2.755   2.937  13.903  1.1499  0.7280 -1.4948
15855TIP3   OH268979   4.517   5.758   2.895  0.2837  0.2204 -0.3696
15855TIP3    H168980   4.436   5.801   2.869 -1.1346 -1.2968  1.4578
15855TIP3    H268981   4.552   5.815   2.964  1.3599  1.4243 -1.8497
15856TIP3   OH268982   2.765   3.933  12.070  0.6242 -0.2880  0.2392
15856TIP3    H168983   2.714   3.998  12.118  2.0982  0.1985  1.1500
15856TIP3    H268984   2.812   3.984  12.003 -0.0262 -0.7308 -0.5683
15857TIP3   OH268985   6.628   1.267  16.310  0.1083 -0.7398 -0.5175
15857TIP3    H168986   6.608   1.336  16.246 -0.9388 -0.8788 -0.3569
15857TIP3    H268987   6.710   1.295  16.351 -0.7662  0.8924  0.1819
15858TIP3   OH268988   4.247   3.892   4.073 -1.0598  0.4195 -0.2121
15858TIP3    H168989   4.276   3.973   4.031  0.8766 -1.1031 -1.9155
15858TIP3    H268990   4.171   3.864   4.022  0.8518 -1.0457 -2.3347
15859TIP3   OH268991   6.570   6.001  11.204  0.1236  0.5776 -0.1970
15859TIP3    H168992   6.573   5.929  11.141  0.6802 -0.3127  0.8332
15859TIP3    H268993   6.613   6.073  11.160 -0.7630  0.3919 -1.3841
15860TIP3   OH268994   5.163   1.333   1.121  0.1385  0.0789  0.7571
15860TIP3    H168995   5.139   1.267   1.055 -0.8115  0.3310  0.8508
15860TIP3    H268996   5.255   1.353   1.101 -0.5997  1.3444 -1.5248
15861TIP3   OH268997   5.861   5.582   0.996  0.4303 -0.0117 -0.2956
15861TIP3    H168998   5.846   5.493   1.028  0.1558  0.0076 -0.3712
15861TIP3    H268999   5.835   5.579   0.904  1.5682 -0.1688 -0.6260
15862TIP3   OH269000   6.496   1.084   0.279  1.0574 -0.2380  0.2171
15862TIP3    H169001   6.561   1.044   0.222 -0.4468  0.3605 -1.9804
15862TIP3    H269002   6.493   1.176   0.253  0.9280  0.2270  1.8230
15863TIP3   OH269003   0.671   5.235   1.225  0.2727  0.0280  0.0813
15863TIP3    H169004   0.654   5.240   1.131  1.8974  0.9051 -0.1729
15863TIP3    H269005   0.594   5.276   1.265 -0.5473 -0.5829 -0.8473
15864TIP3   OH269006   3.295   3.496   6.572  0.3633  0.1666  0.2747
15864TIP3    H169007   3.366   3.555   6.549  1.3443 -1.2668 -0.4147
15864TIP3    H269008   3.317   3.413   6.530 -0.4640 -1.0060  2.0938
15865TIP3   OH269009   0.429   1.636   2.845  0.4043 -0.2107 -0.1391
15865TIP3    H169010   0.382   1.691   2.907  1.6771  0.4967  0.2054
15865TIP3    H269011   0.360   1.587   2.800 -0.9100  2.9281 -1.6981
15866TIP3   OH269012   1.185   6.064   6.194 -0.0763 -0.1943  0.1274
15866TIP3    H169013   1.191   6.018   6.278  0.4191  1.4405  1.0208
15866TIP3    H269014   1.271   6.050   6.154  1.9007  3.8672  2.5643
15867TIP3   OH269015   5.210   1.593  14.267 -0.0401  0.2044  0.2146
15867TIP3    H169016   5.305   1.584  14.265 -0.1181 -0.9078  1.2210
15867TIP3    H269017   5.193   1.674  14.219  1.4664  0.8141  0.6807
15868TIP3   OH269018   2.757   0.365   5.233  0.2015  0.7589 -0.5352
15868TIP3    H169019   2.839   0.320   5.213 -0.2303  0.1971 -1.0316
15868TIP3    H269020   2.736   0.339   5.323 -0.3893 -0.5389 -1.0522
15869TIP3   OH269021   2.147   4.216   2.122 -0.1558  0.0228 -0.2131
15869TIP3    H169022   2.061   4.219   2.164 -0.4972 -0.0688 -0.8845
15869TIP3    H269023   2.178   4.306   2.124 -0.0220 -0.0363  0.5204
15870TIP3   OH269024   5.534   6.386   2.013 -0.2674  0.0816 -0.0634
15870TIP3    H169025   5.578   6.439   1.947 -1.0084  0.9141  0.1080
15870TIP3    H269026   5.442   6.412   2.008 -0.2098  0.7148  1.8226
15871TIP3   OH269027   0.327   3.482  14.574 -0.4645  0.9481 -0.2158
15871TIP3    H169028   0.391   3.452  14.639 -0.1884  0.0309 -0.9002
15871TIP3    H269029   0.248   3.431  14.593  0.2083 -0.7603 -1.7977
15872TIP3   OH269030   3.354   3.355   4.750  0.1841 -0.1244 -0.9444
15872TIP3    H169031   3.432   3.363   4.695  1.0874 -4.4066 -0.4565
15872TIP3    H269032   3.284   3.331   4.689  0.7745 -2.9457 -0.6008
15873TIP3   OH269033   2.431   4.926  12.987 -0.6508  0.1871  0.1135
15873TIP3    H169034   2.521   4.956  12.997 -0.2580 -0.6439 -0.7619
15873TIP3    H269035   2.381   5.005  12.968  0.2215  0.4182 -1.3233
15874TIP3   OH269036   0.241   3.146  12.272 -0.8662  0.6753  0.4075
15874TIP3    H169037   0.299   3.183  12.205 -0.8733 -0.7840 -0.4394
15874TIP3    H269038   0.265   3.053  12.275 -2.7370  0.1887  0.5062
15875TIP3   OH269039   1.885   4.610  13.866  0.0907  0.1487  0.1583
15875TIP3    H169040   1.909   4.525  13.827  1.5959  1.2400 -1.3582
15875TIP3    H269041   1.790   4.612  13.861 -0.0173 -1.7473  0.8361
15876TIP3   OH269042   5.629   3.527  16.002 -0.1195 -0.3750 -0.6057
15876TIP3    H169043   5.583   3.449  15.973 -1.1886 -0.6428  1.6672
15876TIP3    H269044   5.563   3.578  16.049  1.6815 -0.3939  2.0611
15877TIP3   OH269045   0.021   2.155  11.666  0.3360 -0.0052 -0.2504
15877TIP3    H169046  -0.028   2.112  11.595 -0.8516 -0.9636  1.1071
15877TIP3    H269047   0.110   2.165  11.632  0.3554 -2.5554 -1.0396
15878TIP3   OH269048   4.599   2.334  12.869 -0.6954  0.4736 -0.3510
15878TIP3    H169049   4.668   2.278  12.905 -2.1455 -1.3857 -0.4091
15878TIP3    H269050   4.645   2.413  12.841  1.3587 -0.5572  0.0033
15879TIP3   OH269051   6.655   3.468  17.154  0.5391  0.2866 -0.4394
15879TIP3    H169052   6.567   3.491  17.185  0.5214 -0.6022  0.1974
15879TIP3    H269053   6.639   3.424  17.070  0.4412  0.8933 -0.7420
15880TIP3   OH269054   4.763   0.499  12.539  0.2512  0.2215  0.1156
15880TIP3    H169055   4.731   0.575  12.490  2.1886 -0.6767 -2.7012
15880TIP3    H269056   4.836   0.533  12.591  0.6461  0.4352 -0.5721
15881TIP3   OH269057   6.502   0.561   5.511 -0.7549  0.4556 -0.0650
15881TIP3    H169058   6.545   0.523   5.435  1.5396  0.2754  1.2778
15881TIP3    H269059   6.457   0.487   5.552 -3.6585  0.9100 -2.2655
15882TIP3   OH269060   2.035   5.595  12.929  0.0545 -0.4988  0.0712
15882TIP3    H169061   2.037   5.502  12.909 -1.0924 -0.2936 -1.1064
15882TIP3    H269062   2.124   5.625  12.913  0.4929 -1.4492  0.7251
15883TIP3   OH269063   5.590   6.374  14.773 -0.1619  0.0325 -0.2709
15883TIP3    H169064   5.528   6.330  14.714  1.0814  0.5149 -2.0030
15883TIP3    H269065   5.668   6.318  14.771 -0.5891 -0.6852  2.0518
15884TIP3   OH269066   4.704   5.722  12.929 -0.4819 -0.1651 -0.2936
15884TIP3    H169067   4.615   5.690  12.911 -0.3339 -0.1642 -1.0127
15884TIP3    H269068   4.749   5.716  12.845  0.3378 -0.6027  0.1730
15885TIP3   OH269069   5.204   5.728   0.071 -0.1092 -0.5053  1.1045
15885TIP3    H169070   5.189   5.819   0.043  0.0893 -0.2155  1.9143
15885TIP3    H269071   5.128   5.680   0.039 -0.3837  0.0205  0.9611
15886TIP3   OH269072   1.979   6.753  13.374 -0.2973  0.7072  0.4505
15886TIP3    H169073   1.961   6.824  13.435  1.5748  0.3561  1.4735
15886TIP3    H269074   1.923   6.682  13.402  0.9192  0.3756  2.1255
15887TIP3   OH269075   2.876   4.611  12.551  0.0200  0.5440 -1.1393
15887TIP3    H169076   2.803   4.562  12.588  0.5752  0.7949  0.3472
15887TIP3    H269077   2.847   4.702  12.553  1.2372  0.9096  1.6431
15888TIP3   OH269078   4.505   5.484   4.156 -0.1857 -0.3943 -0.6011
15888TIP3    H169079   4.555   5.419   4.106 -1.0206 -2.4813  1.1630
15888TIP3    H269080   4.571   5.546   4.187  1.0429 -1.8879 -0.1459
15889TIP3   OH269081   4.531   5.264  15.334 -0.0522  0.4755 -0.0980
15889TIP3    H169082   4.555   5.271  15.426  0.4657  0.2912 -0.2176
15889TIP3    H269083   4.479   5.342  15.316  1.7861  1.7037 -0.2361
15890TIP3   OH269084   6.007   5.011   2.184 -0.1445  0.9326 -0.2874
15890TIP3    H169085   6.086   5.005   2.131 -0.9778 -0.8563 -1.3535
15890TIP3    H269086   5.939   5.038   2.122 -0.3819  2.5357  0.6380
15891TIP3   OH269087   4.917   6.367   1.318 -0.3169  0.1283 -0.0227
15891TIP3    H169088   4.958   6.452   1.301 -0.6932  0.3557  0.2031
15891TIP3    H269089   4.890   6.336   1.232  3.1906 -1.5091 -0.6349
15892TIP3   OH269090   2.745   5.351  14.638  0.3529  0.1074  0.2896
15892TIP3    H169091   2.821   5.393  14.598  1.1171  0.2819  1.8815
15892TIP3    H269092   2.777   5.318  14.722 -0.9123 -1.2936  0.2461
15893TIP3   OH269093   5.693   5.908  12.847 -0.6005 -0.4500  0.3095
15893TIP3    H169094   5.756   5.866  12.905  0.4634  0.8923  0.1379
15893TIP3    H269095   5.726   5.891  12.759 -1.2780 -0.9863  0.1485
15894TIP3   OH269096   1.259   4.345   3.478 -0.1413 -0.1282  0.1509
15894TIP3    H169097   1.164   4.332   3.476 -0.2081  0.1438  1.1496
15894TIP3    H269098   1.282   4.366   3.388 -1.3836  2.2517  0.3550
15895TIP3   OH269099   2.444   6.271  12.168 -0.1073  0.6747 -0.6112
15895TIP3    H169100   2.350   6.267  12.150  0.0439 -0.0258 -1.2578
15895TIP3    H269101   2.467   6.363  12.154 -0.9056  1.0833  0.6488
15896TIP3   OH269102   1.753   3.771   1.718 -0.3392 -0.1257  0.0743
15896TIP3    H169103   1.702   3.845   1.687  0.1853  0.1625 -0.1029
15896TIP3    H269104   1.844   3.799   1.710 -0.1507 -0.6295  0.4008
15897TIP3   OH269105   4.491   4.321  15.810  0.0230  0.3255 -0.1835
15897TIP3    H169106   4.426   4.391  15.807  0.1004  0.4827  1.4430
15897TIP3    H269107   4.481   4.283  15.897  0.1774 -1.5047 -0.9543
15898TIP3   OH269108   4.283   4.470  15.271  0.2635  0.3788 -0.2010
15898TIP3    H169109   4.200   4.501  15.236 -1.8296 -0.4504  3.7364
15898TIP3    H269110   4.304   4.393  15.218 -1.7047  0.3431 -0.9645
15899TIP3   OH269111   3.937   1.451  13.972  0.2999  0.0662  0.0056
15899TIP3    H169112   4.019   1.474  14.016  0.5976  1.9685 -1.4911
15899TIP3    H269113   3.962   1.385  13.908  0.5452  0.1448  0.0184
15900TIP3   OH269114   6.689   3.597  15.612 -0.2278  0.1373 -0.1696
15900TIP3    H169115   6.748   3.673  15.621  0.0911 -0.1440  0.1492
15900TIP3    H269116   6.736   3.526  15.655 -0.1554 -0.4487 -1.2142
15901TIP3   OH269117   2.679   5.556  14.915 -0.4010 -0.1784  0.3458
15901TIP3    H169118   2.598   5.601  14.937 -0.8347 -0.3406 -0.9164
15901TIP3    H269119   2.685   5.561  14.820  0.7121 -0.7868  0.3736
15902TIP3   OH269120   0.473   3.170  15.956 -0.7701 -0.5536 -0.2018
15902TIP3    H169121   0.558   3.174  15.911 -0.6101  0.2450  0.1587
15902TIP3    H269122   0.485   3.104  16.024 -1.3684 -2.6094 -2.0512
15903TIP3   OH269123   0.085   0.187   6.025  0.3616  0.4871 -0.6283
15903TIP3    H169124   0.091   0.157   5.934  0.6213  2.4742 -1.2844
15903TIP3    H269125   0.176   0.207   6.049  0.2912 -0.0295  0.0829
15904TIP3   OH269126   5.946   0.376   4.908  0.0417  0.5471  0.2571
15904TIP3    H169127   5.970   0.468   4.903  1.1559  0.2770  0.5853
15904TIP3    H269128   5.894   0.360   4.829  0.4410  1.2717 -0.1535
15905TIP3   OH269129   5.649   6.678   0.717 -0.0688 -0.3155 -0.0375
15905TIP3    H169130   5.596   6.700   0.794  1.3792 -0.8440  1.1411
15905TIP3    H269131   5.603   6.604   0.676 -1.6186  0.8842 -0.5096
15906TIP3   OH269132   0.738   5.320   2.146  0.6986  0.0185  0.4109
15906TIP3    H169133   0.687   5.296   2.223 -1.6927 -0.0610 -1.1393
15906TIP3    H269134   0.693   5.397   2.110  2.3082  0.6037 -0.4221
15907TIP3   OH269135   0.801   3.413   3.922  0.3494  0.6093 -0.3197
15907TIP3    H169136   0.856   3.419   4.000  0.3089 -3.7241  0.1771
15907TIP3    H269137   0.834   3.336   3.876 -3.8395 -0.8353 -1.1294
15908TIP3   OH269138   3.585   2.141   1.217 -0.1567  0.5279 -0.6469
15908TIP3    H169139   3.594   2.185   1.132 -0.3631  1.1860 -0.3285
15908TIP3    H269140   3.666   2.162   1.263  0.6455 -1.1247 -1.2696
15909TIP3   OH269141   5.029   3.098  13.837 -0.3090  0.1604  0.0419
15909TIP3    H169142   5.034   3.186  13.873 -1.5812 -0.5164  1.9461
15909TIP3    H269143   5.110   3.056  13.866 -1.8154 -0.7218  3.1590
15910TIP3   OH269144   3.190   5.538  16.512  0.4694 -0.2116  0.9041
15910TIP3    H169145   3.110   5.503  16.473  1.1843 -0.4343 -0.3944
15910TIP3    H269146   3.208   5.479  16.585 -1.7108  1.0909  2.5789
15911TIP3   OH269147   0.098   5.334   5.905 -0.3637 -0.5354 -0.4501
15911TIP3    H169148   0.168   5.315   5.843 -1.2314 -3.0433 -0.7245
15911TIP3    H269149   0.018   5.335   5.852 -0.9675 -1.5191  0.4012
15912TIP3   OH269150   5.299   4.236  15.161 -0.0120 -0.0228  0.1919
15912TIP3    H169151   5.272   4.254  15.251 -1.6195  1.0037 -0.4657
15912TIP3    H269152   5.226   4.186  15.124 -0.1854  1.1084 -1.0468
15913TIP3   OH269153   1.218   4.923   5.800 -0.3833 -0.9297  0.1998
15913TIP3    H169154   1.253   4.850   5.850  1.1363  0.5837  1.4147
15913TIP3    H269155   1.124   4.905   5.793 -0.1337 -2.6171  1.1066
15914TIP3   OH269156   4.997   1.119  10.725  0.7427 -0.7293 -0.2450
15914TIP3    H169157   4.932   1.160  10.782  1.2416 -0.1442 -0.0889
15914TIP3    H269158   5.053   1.191  10.696 -1.0489 -0.6017 -3.5993
15915TIP3   OH269159   6.012   6.058   3.346 -0.8401 -0.3729  0.1261
15915TIP3    H169160   6.025   6.151   3.330  0.4363 -0.4521  0.6334
15915TIP3    H269161   5.981   6.023   3.262 -0.5850  0.3708 -0.2788
15916TIP3   OH269162   1.346   6.261  11.015  0.0991 -0.0445 -0.2537
15916TIP3    H169163   1.420   6.225  10.966  1.0791 -2.0638  2.5870
15916TIP3    H269164   1.281   6.192  11.014  0.5817 -0.5750  2.2128
15917TIP3   OH269165   5.264   1.786  16.205  0.0948 -0.2286 -0.8352
15917TIP3    H169166   5.175   1.766  16.234  0.8024 -1.2018  0.7145
15917TIP3    H269167   5.254   1.864  16.150 -1.6435 -0.0034 -0.2258
15918TIP3   OH269168   1.813   5.633  11.227 -1.0258  0.2220 -0.4559
15918TIP3    H169169   1.719   5.639  11.240 -1.1107 -1.4550 -0.1595
15918TIP3    H269170   1.837   5.716  11.187 -2.5804  0.7820 -0.2634
15919TIP3   OH269171   5.318   4.019   3.769  0.5982 -0.5183 -0.1773
15919TIP3    H169172   5.284   3.959   3.702 -2.0917 -1.3332  1.8243
15919TIP3    H269173   5.261   4.096   3.764  0.4260 -0.5541  1.1074
15920TIP3   OH269174   5.277   0.694  17.122  0.3078  0.1324  1.0537
15920TIP3    H169175   5.236   0.678  17.037  0.9070 -0.0466  0.7905
15920TIP3    H269176   5.266   0.788  17.137  2.6858  0.7400 -0.5796
15921TIP3   OH269177   2.207   6.496  12.355  0.3464 -0.4101 -0.0182
15921TIP3    H169178   2.294   6.523  12.325  0.9095 -1.1374  0.9320
15921TIP3    H269179   2.193   6.547  12.435  0.7170 -1.6742  0.8751
15922TIP3   OH269180   5.824   3.818  14.940 -0.4167  0.1228 -0.5436
15922TIP3    H169181   5.866   3.741  14.979  0.5737 -1.1332 -3.8909
15922TIP3    H269182   5.732   3.794  14.933 -0.4840  0.0956  0.3819
15923TIP3   OH269183   6.514   3.394  16.458  0.0706  0.3376  0.1154
15923TIP3    H169184   6.537   3.469  16.404  3.4141  0.5834  1.7179
15923TIP3    H269185   6.514   3.428  16.547 -1.3215 -0.9408  0.6209
15924TIP3   OH269186   1.807   0.641  11.439 -0.1121  0.1335 -0.0267
15924TIP3    H169187   1.762   0.671  11.360 -2.2605  2.0517  1.8439
15924TIP3    H269188   1.754   0.568  11.471 -0.0351  0.2431  0.3586
15925TIP3   OH269189   5.952   2.335  11.967  0.2783 -0.4312  0.2252
15925TIP3    H169190   5.975   2.406  11.906 -0.3771 -0.7072 -0.3627
15925TIP3    H269191   6.034   2.313  12.011  0.9839 -0.8648 -1.2436
15926TIP3   OH269192   0.447   3.620  16.965  0.1730 -0.3264 -0.0119
15926TIP3    H169193   0.475   3.698  17.013 -0.4617 -0.7381  1.0365
15926TIP3    H269194   0.391   3.573  17.026  1.4623 -2.1906 -0.2273
15927TIP3   OH269195   3.712   1.350  10.667 -0.4942  0.8152  0.2937
15927TIP3    H169196   3.753   1.301  10.738 -0.5012  1.0903  0.4929
15927TIP3    H269197   3.785   1.394  10.623 -0.7281  2.7818  1.7805
15928TIP3   OH269198   3.662   4.448  12.129 -0.3217  0.6312  0.1160
15928TIP3    H169199   3.644   4.533  12.089 -1.1339  0.6347  0.4810
15928TIP3    H269200   3.696   4.394  12.058 -2.8457  0.2752 -0.8590
15929TIP3   OH269201   0.783   5.582  16.069 -0.5718  0.1898 -0.6263
15929TIP3    H169202   0.705   5.552  16.023  0.6520 -1.5345 -1.6241
15929TIP3    H269203   0.827   5.502  16.097  0.3703  1.1593  0.7396
15930TIP3   OH269204   5.241   4.570  11.369 -0.3306 -0.1735  0.5461
15930TIP3    H169205   5.261   4.490  11.321 -0.4753 -0.3559  0.7807
15930TIP3    H269206   5.156   4.551  11.411 -0.5315  0.2322  0.3175
15931TIP3   OH269207   2.334   4.763   2.945 -0.4134  0.1603  0.2084
15931TIP3    H169208   2.429   4.762   2.934 -0.3353  2.4216  0.3903
15931TIP3    H269209   2.301   4.797   2.862 -0.9992  0.3587  0.5214
15932TIP3   OH269210   5.129   2.715   3.522  0.5417  0.5219 -0.6747
15932TIP3    H169211   5.174   2.631   3.532 -1.0177 -0.1678  0.7174
15932TIP3    H269212   5.153   2.765   3.600 -0.3423  0.5139 -0.3977
15933TIP3   OH269213   1.203   6.053  15.893  0.3725  0.2901 -0.0027
15933TIP3    H169214   1.297   6.059  15.878  0.4594 -0.5347  0.2102
15933TIP3    H269215   1.189   6.092  15.979  0.8447 -1.8122  1.0538
15934TIP3   OH269216   4.709   1.995   4.459 -0.2302 -0.3929 -0.8069
15934TIP3    H169217   4.737   1.944   4.383 -0.0865  1.1061 -1.7867
15934TIP3    H269218   4.757   2.078   4.451 -0.6151 -0.0185  0.6361
15935TIP3   OH269219   0.889   0.956   3.794  0.0286  1.1702  0.3046
15935TIP3    H169220   0.796   0.973   3.789 -0.1090  0.9896  1.9861
15935TIP3    H269221   0.928   1.040   3.818  0.2852  1.2273 -0.3155
15936TIP3   OH269222   4.501   1.415  16.430 -0.5353  0.7911  0.4277
15936TIP3    H169223   4.535   1.425  16.341  1.5958 -1.5758  0.9128
15936TIP3    H269224   4.568   1.454  16.486 -0.7757  0.2031  1.1346
15937TIP3   OH269225   6.129   6.559   2.641 -0.0723  0.0497 -0.4015
15937TIP3    H169226   6.104   6.499   2.711 -0.2865  0.1470 -0.3934
15937TIP3    H269227   6.142   6.643   2.685 -2.4604  0.6719 -0.7876
15938TIP3   OH269228   4.005   4.387   4.138 -0.1954  0.3072  0.3547
15938TIP3    H169229   4.011   4.461   4.078 -3.6300 -0.3792 -0.8977
15938TIP3    H269230   4.007   4.310   4.081  1.0559 -0.5281  1.4904
15939TIP3   OH269231   2.703   1.467  16.985 -0.4464  0.2064  0.3816
15939TIP3    H169232   2.775   1.403  16.985 -0.9855 -0.3978  0.1326
15939TIP3    H269233   2.683   1.480  17.078  2.4659  3.1987  0.7296
15940TIP3   OH269234   2.330   3.081   1.674  0.1485  0.1256 -0.6115
15940TIP3    H169235   2.253   3.106   1.622  0.4920 -1.6481 -2.0348
15940TIP3    H269236   2.340   2.988   1.657  1.2529 -0.1440  1.4067
15941TIP3   OH269237   5.849   1.730   1.297 -0.1215 -0.1555 -0.5360
15941TIP3    H169238   5.903   1.679   1.356 -2.0235 -0.4644  1.0168
15941TIP3    H269239   5.904   1.803   1.270  1.7798 -1.6731 -0.7978
15942TIP3   OH269240   4.477   4.225  12.458  0.3960 -0.0426 -0.4868
15942TIP3    H169241   4.403   4.274  12.423 -0.4194 -1.0183 -0.1264
15942TIP3    H269242   4.525   4.289  12.511 -0.4653  0.4519 -0.3053
15943TIP3   OH269243   0.124   3.449   3.601 -0.3721 -0.1708  0.4659
15943TIP3    H169244   0.198   3.388   3.605  0.6137  0.9509 -0.2805
15943TIP3    H269245   0.093   3.443   3.511  0.7218  1.5599 -0.0502
15944TIP3   OH269246   3.371   3.546  15.688 -0.2328  0.2164 -0.4487
15944TIP3    H169247   3.386   3.509  15.775  3.1908  1.9097 -0.2351
15944TIP3    H269248   3.355   3.639  15.703 -2.3132  0.0600 -1.4664
15945TIP3   OH269249   6.115   1.776  11.359 -0.0072  0.0707 -0.6472
15945TIP3    H169250   6.114   1.690  11.317 -2.6392 -0.9317  1.3331
15945TIP3    H269251   6.035   1.818  11.329 -1.6811 -0.4668  2.7780
15946TIP3   OH269252   5.389   0.370   2.662 -0.0856 -0.7379 -0.5478
15946TIP3    H169253   5.478   0.400   2.679 -0.2901 -0.5950  0.3176
15946TIP3    H269254   5.337   0.408   2.733 -0.9519 -0.2742 -1.4220
15947TIP3   OH269255   3.592   3.410   1.343  0.2953  0.3603 -0.4511
15947TIP3    H169256   3.663   3.462   1.307  1.1307 -0.3123  0.2036
15947TIP3    H269257   3.635   3.335   1.385 -0.6389  0.9931  1.7537
15948TIP3   OH269258   2.432   2.097   1.665 -0.2449 -0.2761 -0.1937
15948TIP3    H169259   2.455   2.155   1.593 -0.9126  0.9909  0.5841
15948TIP3    H269260   2.340   2.117   1.683  0.0617 -0.2086  1.3370
15949TIP3   OH269261   3.584   0.444   2.391 -0.3482 -0.5231  0.4824
15949TIP3    H169262   3.639   0.398   2.454  0.6031 -0.5597 -0.3528
15949TIP3    H269263   3.522   0.378   2.360 -0.6055 -0.5873  1.1343
15950TIP3   OH269264   6.098   2.507  15.041  0.2683  0.3321  0.0741
15950TIP3    H169265   6.060   2.481  14.957  1.2256  1.3419 -0.6860
15950TIP3    H269266   6.190   2.521  15.022  0.6265 -0.1221  1.4622
15951TIP3   OH269267   4.616   5.890   4.909  0.1560  0.4032  0.2105
15951TIP3    H169268   4.688   5.827   4.906  0.4952  0.8406 -0.9165
15951TIP3    H269269   4.555   5.853   4.974  0.9925 -0.3878  0.5546
15952TIP3   OH269270   3.626   6.289   1.132  0.4195 -0.0607 -0.4625
15952TIP3    H169271   3.650   6.381   1.136 -2.4394  0.6699  0.7380
15952TIP3    H269272   3.575   6.273   1.212  0.5591 -2.5925 -0.8183
15953TIP3   OH269273   0.587   2.410  12.600  0.2287  0.2017  0.9175
15953TIP3    H169274   0.506   2.440  12.559  2.0016  2.1416 -1.2774
15953TIP3    H269275   0.599   2.468  12.675 -0.2217  0.0883  1.0840
15954TIP3   OH269276   4.646   3.352   2.051  0.0232 -0.5863 -0.5234
15954TIP3    H169277   4.678   3.441   2.063 -0.7794 -0.5387  1.4621
15954TIP3    H269278   4.606   3.351   1.964 -0.5780  1.1737 -0.2702
15955TIP3   OH269279   6.083   2.681  14.671  0.7107  0.0170 -0.1435
15955TIP3    H169280   6.090   2.685  14.575  1.0787  0.3274 -0.1040
15955TIP3    H269281   6.136   2.606  14.696 -0.1723 -0.6557 -0.2611
15956TIP3   OH269282   3.408   6.282   0.390 -0.2291  0.4167 -0.0845
15956TIP3    H169283   3.389   6.203   0.441  0.1296  0.9720  0.9366
15956TIP3    H269284   3.495   6.267   0.354 -1.5208 -1.0828 -2.7198
15957TIP3   OH269285   3.195   2.150  10.371  0.2795  0.2886  0.0766
15957TIP3    H169286   3.281   2.174  10.336 -0.2084  0.3637 -1.0981
15957TIP3    H269287   3.141   2.227  10.357 -0.3770 -0.2851 -0.5596
15958TIP3   OH269288   1.456   2.222  11.625 -0.0291 -0.0195  0.6051
15958TIP3    H169289   1.391   2.168  11.668  0.5344  0.8914  2.6385
15958TIP3    H269290   1.499   2.163  11.562 -1.7829 -0.9849  0.3015
15959TIP3   OH269291   3.750   2.893   3.327  0.4224  0.5613 -0.1816
15959TIP3    H169292   3.810   2.873   3.255 -0.9178  0.2187 -1.2282
15959TIP3    H269293   3.665   2.905   3.285 -0.1346  1.6449  1.2131
15960TIP3   OH269294   4.978   2.801   0.672  0.0864 -0.1776 -1.0065
15960TIP3    H169295   4.934   2.788   0.757  0.0622 -0.3630 -1.0466
15960TIP3    H269296   4.952   2.725   0.620  0.5147 -0.3291 -1.0041
15961TIP3   OH269297   4.345   1.496  13.215  0.2011 -0.4245 -0.1225
15961TIP3    H169298   4.366   1.418  13.164 -0.1741 -0.1252 -0.7563
15961TIP3    H269299   4.329   1.564  13.149  0.1182  0.0799  0.4058
15962TIP3   OH269300   4.626   2.139  11.522 -0.0895 -0.1821 -0.0200
15962TIP3    H169301   4.635   2.045  11.506  1.3654 -0.4949  2.3329
15962TIP3    H269302   4.576   2.172  11.448 -0.3485 -2.7670 -1.0301
15963TIP3   OH269303   5.503   2.705  11.723 -0.0607  0.0422  0.0666
15963TIP3    H169304   5.543   2.693  11.809 -0.6683  2.4233  0.7352
15963TIP3    H269305   5.541   2.637  11.668  2.9345  0.6348  1.3467
15964TIP3   OH269306   0.948   4.794   3.177 -0.3921  0.3768  0.6150
15964TIP3    H169307   0.873   4.739   3.197 -0.4254  1.0639  2.5120
15964TIP3    H269308   0.921   4.882   3.203  1.7010  0.3313  3.1617
15965TIP3   OH269309   3.766   5.472   2.069  0.0763 -0.4654 -0.1244
15965TIP3    H169310   3.733   5.381   2.067  0.1097 -0.4704 -0.4312
15965TIP3    H269311   3.690   5.524   2.095  0.1384 -0.6174  0.3662
15966TIP3   OH269312   2.545   6.084  15.916  0.0866 -0.0672 -0.0190
15966TIP3    H169313   2.590   6.165  15.890  0.3838 -0.1216  0.3201
15966TIP3    H269314   2.513   6.047  15.833  1.1132 -0.2859 -0.3263
15967TIP3   OH269315   4.938   4.722   3.467 -0.7144 -0.2963 -0.6393
15967TIP3    H169316   4.986   4.762   3.394 -0.1476  0.2011 -0.0029
15967TIP3    H269317   4.853   4.698   3.430 -0.8836  1.0663 -1.1501
15968TIP3   OH269318   5.213   1.842   6.450  0.0638 -0.3840  0.9330
15968TIP3    H169319   5.167   1.869   6.371  2.7487 -0.6389 -0.7884
15968TIP3    H269320   5.236   1.925   6.493 -0.5421 -0.2182  0.9457
15969TIP3   OH269321   1.679   2.657   0.591  0.7817  0.1037 -0.1164
15969TIP3    H169322   1.689   2.637   0.684 -0.4498 -1.0580 -0.2068
15969TIP3    H269323   1.752   2.715   0.571  1.1122  0.3117  1.5547
15970TIP3   OH269324   3.578   1.611  14.811  0.4550  0.3531  0.0288
15970TIP3    H169325   3.519   1.679  14.779 -0.4425 -1.3184 -2.0071
15970TIP3    H269326   3.633   1.591  14.735 -0.1120 -2.0418  0.2210
15971TIP3   OH269327   6.083   1.724  10.889 -0.4013  0.1412 -0.2879
15971TIP3    H169328   6.144   1.656  10.915 -3.6756 -2.6706  0.3670
15971TIP3    H269329   6.071   1.777  10.968 -0.5920 -0.7181  0.2653
15972TIP3   OH269330   1.459   3.798   5.329 -0.0937 -0.4023 -0.3332
15972TIP3    H169331   1.489   3.791   5.420 -1.4989 -0.4834  0.1339
15972TIP3    H269332   1.459   3.707   5.298  1.8027 -0.2330 -0.8982
15973TIP3   OH269333   2.727   5.940  14.912 -0.3610 -0.3484  0.1183
15973TIP3    H169334   2.677   5.950  14.993  0.0345 -0.5205  0.3875
15973TIP3    H269335   2.790   5.871  14.932  0.7318  0.6425  0.1560
15974TIP3   OH269336   1.961   2.985   1.137 -0.0758  0.5002 -0.1595
15974TIP3    H169337   1.978   3.009   1.046 -1.6524 -0.4863 -0.7519
15974TIP3    H269338   1.865   2.979   1.142  0.0480 -0.5258  1.2714
15975TIP3   OH269339   2.113   0.460  13.746 -0.0586  0.0568 -0.0674
15975TIP3    H169340   2.166   0.540  13.746 -0.7679  0.5670  2.5597
15975TIP3    H269341   2.171   0.393  13.709  1.9777  0.9059  1.4880
15976TIP3   OH269342   4.153   5.805  16.280 -0.2912  0.7631 -0.2832
15976TIP3    H169343   4.165   5.710  16.280  0.9145  0.8922 -1.6763
15976TIP3    H269344   4.120   5.824  16.192 -1.7156  1.5155  0.3933
15977TIP3   OH269345   0.462   4.928   2.723  0.5662 -0.6460  0.0863
15977TIP3    H169346   0.535   4.923   2.660  0.6493 -2.2562  0.2914
15977TIP3    H269347   0.493   4.879   2.799  0.3503  1.0399  1.2994
15978TIP3   OH269348   5.431   1.153   2.720 -0.3729  0.5992 -0.0472
15978TIP3    H169349   5.409   1.089   2.652  1.8144  0.5984 -0.8042
15978TIP3    H269350   5.526   1.148   2.727 -0.4417  1.6652  2.0008
15979TIP3   OH269351   2.481   2.845   0.933  0.2778  0.0350  0.3173
15979TIP3    H169352   2.470   2.764   0.984  0.8856  0.6725  1.4809
15979TIP3    H269353   2.412   2.841   0.867 -0.5036 -0.8242  1.1703
15980TIP3   OH269354   0.584   4.844  16.700  0.0350  0.0095 -0.1714
15980TIP3    H169355   0.510   4.783  16.706  0.3850 -0.2828  1.5118
15980TIP3    H269356   0.567   4.909  16.769  1.4323 -0.1696  0.3539
15981TIP3   OH269357   2.153   0.963  10.273  0.2630  0.0034  0.0986
15981TIP3    H169358   2.088   0.993  10.337  0.1467  0.5905 -0.2929
15981TIP3    H269359   2.222   1.028  10.277 -0.1644  0.5391 -1.0242
15982TIP3   OH269360   4.890   1.897   1.407 -0.1109  0.1084  0.0515
15982TIP3    H169361   4.959   1.831   1.410  0.7733  0.9869 -0.5977
15982TIP3    H269362   4.933   1.976   1.374 -1.8551  0.0904 -2.4434
15983TIP3   OH269363   4.686   4.791  15.722 -0.0293  0.0244  0.3073
15983TIP3    H169364   4.654   4.881  15.730 -0.8997 -0.2793  0.2198
15983TIP3    H269365   4.755   4.785  15.789  1.5487  1.4019 -1.1243
15984TIP3   OH269366   1.128   2.530   1.273  0.2320 -0.1124 -0.5621
15984TIP3    H169367   1.069   2.524   1.348 -1.1156 -2.6310 -1.7460
15984TIP3    H269368   1.211   2.493   1.304 -0.2293 -0.8570 -0.2106
15985TIP3   OH269369   2.465   6.023   1.715 -0.1244 -0.0241  0.0568
15985TIP3    H169370   2.379   6.060   1.734  0.6804  1.9369 -0.0755
15985TIP3    H269371   2.485   6.052   1.626  1.0583  0.2742  0.4127
15986TIP3   OH269372   5.494   2.987  15.461 -0.0048 -0.0015 -0.1331
15986TIP3    H169373   5.536   3.041  15.528  3.2816 -2.8980  0.3133
15986TIP3    H269374   5.555   2.991  15.387 -1.3242 -0.5004 -1.2478
15987TIP3   OH269375   3.633   6.510  16.438  0.3145  0.3474  0.1757
15987TIP3    H169376   3.593   6.526  16.524  1.4482 -0.4110  0.8550
15987TIP3    H269377   3.719   6.551  16.445  0.6519 -0.2765 -0.3813
15988TIP3   OH269378   1.848   2.381   0.778  0.7314 -0.3651  0.4311
15988TIP3    H169379   1.851   2.334   0.694 -0.1025  1.9312 -0.9267
15988TIP3    H269380   1.757   2.377   0.805  0.5721  0.8105  0.0937
15989TIP3   OH269381   5.899   0.037   5.790  0.1846 -0.4094  0.3248
15989TIP3    H169382   5.836   0.034   5.863  0.7044  0.5050  0.8155
15989TIP3    H269383   5.845   0.033   5.711 -0.4164 -0.8388  0.7544
15990TIP3   OH269384   0.485   0.164  11.318  0.2373 -0.3637 -0.6607
15990TIP3    H169385   0.512   0.115  11.396  0.7643  0.1575 -0.5087
15990TIP3    H269386   0.516   0.111  11.245 -2.3298 -2.0580 -0.5842
15991TIP3   OH269387   0.632   5.646  11.206  0.0913 -0.0817  0.3302
15991TIP3    H169388   0.713   5.648  11.258  0.3517  1.2562 -0.1155
15991TIP3    H269389   0.603   5.555  11.212  0.6909 -0.1861  1.9254
15992TIP3   OH269390   6.025   1.391   5.075 -0.5636  1.4732 -0.9153
15992TIP3    H169391   6.056   1.356   4.992  1.7423 -1.6981  1.1660
15992TIP3    H269392   6.104   1.423   5.119 -1.3059  0.4619  1.2258
15993TIP3   OH269393   4.783   3.737  12.220 -0.1917  0.2751 -0.3039
15993TIP3    H169394   4.749   3.695  12.299  0.5490 -0.2077 -0.2307
15993TIP3    H269395   4.848   3.674  12.186  1.5276  1.7021  0.2670
15994TIP3   OH269396   5.054   1.125  15.765  0.7773 -0.3993 -0.4676
15994TIP3    H169397   5.057   1.072  15.845  1.2560 -1.3971 -1.1392
15994TIP3    H269398   4.961   1.137  15.747  0.6508  1.4511  1.3018
15995TIP3   OH269399   0.027   0.382   5.239 -0.0968  0.4272 -0.2744
15995TIP3    H169400  -0.037   0.325   5.281  0.7679  0.0786  0.5892
15995TIP3    H269401   0.056   0.441   5.308 -0.1406  1.1770 -0.8833
15996TIP3   OH269402   2.512   1.893  14.991  0.4512  0.1207 -0.3700
15996TIP3    H169403   2.540   1.876  15.081 -1.2123  1.4463  0.4409
15996TIP3    H269404   2.558   1.974  14.967 -0.7798  0.9857  0.1100
15997TIP3   OH269405   6.100   1.186  14.395 -0.1425 -0.3776 -0.0171
15997TIP3    H169406   6.149   1.176  14.314  0.8249  2.7918  0.0914
15997TIP3    H269407   6.157   1.148  14.463 -0.1319 -1.3235 -0.5445
15998TIP3   OH269408   1.293   1.320  13.932 -0.2621  0.2840  0.5672
15998TIP3    H169409   1.250   1.236  13.916 -0.4709  0.6040 -0.5551
15998TIP3    H269410   1.331   1.311  14.020  0.1293 -1.1495  0.2579
15999TIP3   OH269411   0.669   3.109   3.140 -0.1665  0.5783 -0.3705
15999TIP3    H169412   0.747   3.150   3.102 -0.9185  0.7631 -1.7434
15999TIP3    H269413   0.620   3.181   3.180  0.7554  0.3476  1.2374
16000TIP3   OH269414   3.599   2.714  14.826  0.6764  0.5909  0.0123
16000TIP3    H169415   3.603   2.634  14.878 -0.0268  1.1565  0.9716
16000TIP3    H269416   3.506   2.724  14.805  0.6324  1.6289  0.6670
16001TIP3   OH269417   5.315   1.620  11.778  0.2966 -0.6144  0.0071
16001TIP3    H169418   5.272   1.705  11.786 -0.7874 -1.0855 -0.7266
16001TIP3    H269419   5.383   1.635  11.712 -0.8317 -0.6572 -1.1982
16002TIP3   OH269420   6.648   5.436   2.692  0.7494  0.2084 -0.4055
16002TIP3    H169421   6.680   5.476   2.773  0.4753  0.2174 -0.3024
16002TIP3    H269422   6.716   5.456   2.628  1.8443 -1.3657  0.2496
16003TIP3   OH269423   3.855   3.591   1.917 -0.1466 -0.1742 -0.4679
16003TIP3    H169424   3.829   3.499   1.925  0.5015 -0.2517  0.9733
16003TIP3    H269425   3.779   3.640   1.952  0.3467 -0.2656  0.7632
16004TIP3   OH269426   0.357   3.254   4.243  0.3945 -0.1657 -0.9091
16004TIP3    H169427   0.380   3.327   4.299 -0.0745 -0.4017 -0.4069
16004TIP3    H269428   0.432   3.244   4.184  0.0481  1.3326 -1.6276
16005TIP3   OH269429   3.080   3.555  16.212 -0.0006  0.3097  0.1687
16005TIP3    H169430   3.133   3.535  16.289 -1.6408  0.3172  1.3320
16005TIP3    H269431   3.016   3.619  16.243 -1.6736 -0.8487 -0.7997
16006TIP3   OH269432   4.650   2.773  15.592  0.4170  0.4248 -0.4641
16006TIP3    H169433   4.612   2.747  15.676  1.2485  2.5302  0.6086
16006TIP3    H269434   4.732   2.723  15.586 -1.3055 -2.3633 -1.6996
16007TIP3   OH269435   3.866   5.333  12.517  0.0903  0.0083 -0.2663
16007TIP3    H169436   3.934   5.266  12.519 -0.6711 -0.8041 -1.2748
16007TIP3    H269437   3.890   5.391  12.445 -0.4308 -0.4503 -0.8169
16008TIP3   OH269438   5.276   1.203   5.639  0.1881 -0.7998  0.1633
16008TIP3    H169439   5.330   1.132   5.605  3.1291  1.2734  0.3256
16008TIP3    H269440   5.331   1.245   5.705 -0.4341  3.1311 -1.6590
16009TIP3   OH269441   0.864   1.242   0.122 -0.3429  0.3774  0.0493
16009TIP3    H169442   0.875   1.167   0.180 -1.5397  0.6994  0.6999
16009TIP3    H269443   0.846   1.315   0.181 -0.2422  0.9710 -0.6489
16010TIP3   OH269444   3.410   3.046   3.435  0.4551  1.4138 -1.0822
16010TIP3    H169445   3.438   3.000   3.355 -0.9563  0.4553 -1.0243
16010TIP3    H269446   3.330   3.001   3.462  1.9482  0.4624  1.9804
16011TIP3   OH269447   1.266   0.682   1.609 -0.3527 -0.1112  0.4765
16011TIP3    H169448   1.312   0.605   1.577  1.2247 -0.3403  3.1367
16011TIP3    H269449   1.180   0.678   1.566  0.2694 -2.4695 -0.6305
16012TIP3   OH269450   6.752   5.739   3.447  0.2003  0.3379 -0.3110
16012TIP3    H169451   6.840   5.754   3.483 -0.2344  1.1810  0.4127
16012TIP3    H269452   6.753   5.785   3.363 -0.2565  2.2779  0.7021
16013TIP3   OH269453   4.950   1.962  12.495 -0.1273  0.1248 -0.1001
16013TIP3    H169454   5.008   1.919  12.431  0.3066  0.8019 -0.1740
16013TIP3    H269455   4.894   2.018  12.442  0.1267  0.5689  0.1030
16014TIP3   OH269456   2.737   5.092   3.890  0.2532  0.2335 -0.1279
16014TIP3    H169457   2.822   5.052   3.871  0.4643 -0.7479  2.6914
16014TIP3    H269458   2.734   5.097   3.986 -2.1091  1.9231 -0.2563
16015TIP3   OH269459   0.465   2.545  14.491 -0.3391 -0.1003  0.3967
16015TIP3    H169460   0.519   2.499  14.427 -2.0544 -2.0153  0.3084
16015TIP3    H269461   0.423   2.615  14.441 -0.4115 -0.5812 -0.2194
16016TIP3   OH269462   6.199   0.286   3.081  0.3267 -0.4428 -0.1994
16016TIP3    H169463   6.291   0.310   3.093  0.3936 -1.0343  0.4750
16016TIP3    H269464   6.190   0.273   2.987  0.9247 -0.3427 -0.2742
16017TIP3   OH269465   0.353   0.421   0.368  0.3267  0.0676 -0.0692
16017TIP3    H169466   0.381   0.358   0.302 -1.2352  0.2097 -0.8863
16017TIP3    H269467   0.344   0.503   0.320 -1.9739 -0.0858  0.0386
16018TIP3   OH269468   1.271   3.617   5.627  0.0611  0.1299 -0.7602
16018TIP3    H169469   1.268   3.535   5.677  1.9487 -0.7631 -2.0513
16018TIP3    H269470   1.242   3.592   5.539 -0.2043  1.0436 -0.9341
16019TIP3   OH269471   5.295   6.511   3.328  0.2350  0.5111  0.3615
16019TIP3    H169472   5.283   6.606   3.321  0.2734  0.5325  0.5778
16019TIP3    H269473   5.218   6.474   3.285  0.4714  0.6378 -0.1693
16020TIP3   OH269474   4.342   6.362   3.468  0.3922 -0.0216 -0.1792
16020TIP3    H169475   4.358   6.374   3.374 -0.1071  0.5265 -0.1996
16020TIP3    H269476   4.309   6.273   3.475 -0.0585  0.1089 -0.5926
16021TIP3   OH269477   4.368   5.436  11.371 -0.1360  0.4443 -0.2110
16021TIP3    H169478   4.286   5.392  11.348 -0.3432  0.4624  0.4652
16021TIP3    H269479   4.347   5.486  11.450  1.3021 -2.0150  1.8417
16022TIP3   OH269480   5.731   1.744   2.968  0.7980 -0.8294  0.0883
16022TIP3    H169481   5.812   1.697   2.950 -0.1045 -1.5625 -2.4095
16022TIP3    H269482   5.745   1.831   2.931  0.6962 -0.7635  0.2078
16023TIP3   OH269483   2.063   0.689  13.181 -0.4072  0.3599 -0.7209
16023TIP3    H169484   2.123   0.716  13.111 -2.9449  0.0307 -3.1031
16023TIP3    H269485   2.032   0.602  13.155 -1.9592  0.5328  0.4369
16024TIP3   OH269486   3.792   2.374  13.323 -0.1368 -0.0382  0.1085
16024TIP3    H169487   3.730   2.379  13.250  1.0923 -2.2088 -1.1582
16024TIP3    H269488   3.744   2.331  13.393 -0.5964 -0.0880 -0.2329
16025TIP3   OH269489   6.142   4.864   4.854  0.3607 -0.3807 -0.1199
16025TIP3    H169490   6.103   4.895   4.936  1.1548  0.8039 -0.1739
16025TIP3    H269491   6.130   4.937   4.793 -0.4401 -1.3418 -1.1432
16026TIP3   OH269492   0.446   1.336   1.951  0.2503 -0.1618 -0.5167
16026TIP3    H169493   0.397   1.363   1.873 -1.3957 -0.5535  0.3690
16026TIP3    H269494   0.417   1.395   2.020 -0.3884 -1.6063  0.4681
16027TIP3   OH269495   1.862   0.227   2.887 -0.3754  0.0480  0.7485
16027TIP3    H169496   1.885   0.143   2.927  1.1069  0.9234  1.7690
16027TIP3    H269497   1.944   0.260   2.851 -1.2111  0.4539 -0.8364
16028TIP3   OH269498   5.267   2.831  11.323 -0.1124  0.2176 -0.2788
16028TIP3    H169499   5.183   2.822  11.277  0.3219 -0.8730 -0.8606
16028TIP3    H269500   5.283   2.746  11.363  2.8737 -1.1117 -3.9227
16029TIP3   OH269501   0.019   3.312   1.319  0.7665  0.0782 -0.1826
16029TIP3    H169502   0.033   3.304   1.414  0.5976 -1.3093 -0.2623
16029TIP3    H269503  -0.067   3.353   1.311  0.0295 -1.3546  0.2723
16030TIP3   OH269504   0.499   0.287   2.690  0.6262  0.0238  0.2299
16030TIP3    H169505   0.520   0.197   2.714 -0.2267 -0.3624 -0.4575
16030TIP3    H269506   0.445   0.280   2.612 -0.0675  1.0959  0.5942
16031TIP3   OH269507   5.692   0.695   2.201 -0.0531  0.2762 -0.0586
16031TIP3    H169508   5.631   0.744   2.256  0.8560  2.6652 -1.1076
16031TIP3    H269509   5.768   0.679   2.257 -0.1704  0.4666  0.1539
16032TIP3   OH269510   2.177   5.117  13.167  0.0586  0.0817 -0.0648
16032TIP3    H169511   2.149   5.072  13.087 -2.2407  0.7498  0.3408
16032TIP3    H269512   2.189   5.208  13.140  2.1543 -0.2203 -0.2804
16033TIP3   OH269513   3.994   0.792   1.409 -0.5452  0.3233  0.1462
16033TIP3    H169514   4.025   0.729   1.475 -2.6530 -1.4819 -0.5118
16033TIP3    H269515   4.007   0.878   1.449  0.1508 -0.6455  2.0731
16034TIP3   OH269516   3.699   5.478   3.206  0.1236  0.0055 -0.1068
16034TIP3    H169517   3.691   5.462   3.300 -0.3376  0.5795 -0.0458
16034TIP3    H269518   3.609   5.475   3.174 -0.0461  2.9029 -0.0182
16035TIP3   OH269519   6.001   5.150   0.704 -0.0378  0.2362  0.3154
16035TIP3    H169520   6.001   5.060   0.673 -3.0525  0.9696 -2.0053
16035TIP3    H269521   6.049   5.199   0.637  1.9950  0.3429  1.7972
16036TIP3   OH269522   4.449   4.650  12.635 -0.0641  0.1097  0.3267
16036TIP3    H169523   4.421   4.559  12.651 -0.8492 -0.0263 -1.7133
16036TIP3    H269524   4.513   4.643  12.565  0.8531  1.0195  1.0633
16037TIP3   OH269525   3.997   3.193  17.032  0.0615 -0.2231 -0.3567
16037TIP3    H169526   4.055   3.239  17.093 -3.1439  1.1315  1.8319
16037TIP3    H269527   4.035   3.209  16.946  2.9723  0.4791  0.9803
16038TIP3   OH269528   0.777   5.348  14.186 -0.6351 -0.0599  0.9892
16038TIP3    H169529   0.838   5.339  14.113 -0.7438  1.8096  0.6498
16038TIP3    H269530   0.702   5.293  14.162  0.0079 -0.6793  0.4228
16039TIP3   OH269531   2.468   2.126   5.409 -0.0613 -0.1936 -0.1971
16039TIP3    H169532   2.517   2.096   5.486  2.3135  2.6514 -0.5103
16039TIP3    H269533   2.377   2.130   5.438  0.6489 -0.2247  2.1049
16040TIP3   OH269534   3.374   3.084  12.823 -0.0577 -0.6921  0.1742
16040TIP3    H169535   3.332   3.131  12.895  0.3356  0.5000 -0.3577
16040TIP3    H269536   3.388   3.151  12.756  0.2597 -1.6336 -0.7100
16041TIP3   OH269537   0.843   1.089  16.011  0.0039  0.0820 -0.0718
16041TIP3    H169538   0.827   1.024  16.079  0.2191  0.1447  0.0377
16041TIP3    H269539   0.843   1.038  15.930 -0.7300  0.0767 -0.0735
16042TIP3   OH269540   5.052   4.138  13.427  0.0572  0.6233 -0.0623
16042TIP3    H169541   5.007   4.107  13.349 -0.1080  1.5874 -0.3476
16042TIP3    H269542   4.984   4.182  13.478  0.4671  1.2174 -0.0301
16043TIP3   OH269543   0.852   5.019   5.110 -0.8431  0.0750 -0.0321
16043TIP3    H169544   0.904   4.952   5.155  0.1246  1.9602  1.7330
16043TIP3    H269545   0.858   4.996   5.018  1.4350 -0.9149  0.3387
16044TIP3   OH269546   4.500   5.423   1.728  0.3876  1.0931  0.5328
16044TIP3    H169547   4.575   5.459   1.776  0.4225  2.0573 -0.2310
16044TIP3    H269548   4.453   5.370   1.792  2.6259 -0.8582  0.6291
16045TIP3   OH269549   2.600   5.456  12.807 -0.0028  0.1359 -0.2509
16045TIP3    H169550   2.540   5.414  12.868  1.2439 -0.4081  0.6005
16045TIP3    H269551   2.579   5.417  12.722 -1.0383  0.1589 -0.0146
16046TIP3   OH269552   0.102   0.997  13.461  0.5970 -0.6291  0.3951
16046TIP3    H169553   0.153   0.939  13.518  0.5256  0.5947  1.7357
16046TIP3    H269554   0.161   1.070  13.442  0.0732 -0.2555  0.2033
16047TIP3   OH269555   3.735   3.960   0.197 -0.3053 -0.7505 -0.0249
16047TIP3    H169556   3.746   4.031   0.260 -0.6099 -0.1035 -0.6920
16047TIP3    H269557   3.821   3.919   0.192 -0.1041 -0.3722  0.2958
16048TIP3   OH269558   6.436   3.173   5.203  0.4504  0.1395 -0.6849
16048TIP3    H169559   6.479   3.091   5.177  2.3031  0.6074  0.8380
16048TIP3    H269560   6.459   3.235   5.134  1.4277  0.1343 -0.3645
16049TIP3   OH269561   4.204   1.233   4.898 -0.4203  0.3705 -0.2397
16049TIP3    H169562   4.205   1.234   4.802  1.9677 -1.3144 -0.2901
16049TIP3    H269563   4.125   1.185   4.921 -0.2536 -0.5039 -1.4209
16050TIP3   OH269564   6.677   5.250  14.560 -0.0706 -0.3562 -0.1936
16050TIP3    H169565   6.627   5.276  14.483  0.5272  0.4850 -0.2998
16050TIP3    H269566   6.610   5.226  14.625 -0.6148  0.7841 -0.3290
16051TIP3   OH269567   5.896   3.320  11.655 -0.8205  0.8176  0.1154
16051TIP3    H169568   5.865   3.230  11.643 -1.7976  1.1871 -0.1312
16051TIP3    H269569   5.824   3.375  11.625 -0.5885  1.7032  1.1482
16052TIP3   OH269570   3.526   4.229   3.625  0.3453 -0.0798  0.5943
16052TIP3    H169571   3.454   4.203   3.568 -1.1290 -0.4253  2.5618
16052TIP3    H269572   3.604   4.215   3.572 -1.0186  0.4140 -1.6291
16053TIP3   OH269573   2.853   0.094  12.634 -0.2673 -0.2584  0.0593
16053TIP3    H169574   2.877   0.020  12.577 -0.2077  0.1295 -0.4201
16053TIP3    H269575   2.917   0.161  12.614 -0.6855  0.1426  0.0576
16054TIP3   OH269576   3.066   6.534  11.010  0.1010 -0.4967  0.0083
16054TIP3    H169577   3.051   6.500  11.098 -0.0127  0.3445  0.3238
16054TIP3    H269578   3.146   6.586  11.017  1.1260 -1.9409 -0.8221
16055TIP3   OH269579   0.351   6.531   3.363  0.7903 -0.3988 -0.1349
16055TIP3    H169580   0.270   6.485   3.341  1.4084 -0.7793 -1.6744
16055TIP3    H269581   0.397   6.472   3.423 -0.0875 -0.1451  0.8138
16056TIP3   OH269582   0.206   0.259   1.847  0.2996  0.4575 -0.0355
16056TIP3    H169583   0.264   0.326   1.883  0.5334  0.1035  0.2484
16056TIP3    H269584   0.189   0.200   1.920  1.0845 -0.4769 -0.5921
16057TIP3   OH269585   3.606   0.296   2.916  0.2133  0.4745  0.4137
16057TIP3    H169586   3.659   0.364   2.874 -0.2836  1.8284  1.9523
16057TIP3    H269587   3.646   0.214   2.887  3.2359  1.4525  1.5488
16058TIP3   OH269588   2.102   4.199   0.291 -0.3300 -0.4403 -0.5459
16058TIP3    H169589   2.031   4.156   0.339  0.2084 -0.9883 -0.2394
16058TIP3    H269590   2.166   4.221   0.358 -0.1016 -0.1518 -0.8590
16059TIP3   OH269591   2.383   5.526  15.065  0.2749 -0.4855  0.6230
16059TIP3    H169592   2.309   5.479  15.026  0.4365 -1.2774  1.2489
16059TIP3    H269593   2.376   5.615  15.031 -1.7684 -0.1827  1.7261
16060TIP3   OH269594   1.190   3.678  10.946 -0.1520 -0.2732 -0.1564
16060TIP3    H169595   1.188   3.764  10.989  0.1468  0.2068 -1.0837
16060TIP3    H269596   1.115   3.680  10.887  0.8145 -0.0041 -1.3910
16061TIP3   OH269597   2.279   6.096   5.082  0.1368  0.2399  0.5358
16061TIP3    H169598   2.232   6.157   5.026  1.5508 -0.1744 -1.1459
16061TIP3    H269599   2.210   6.042   5.122 -1.0597  2.2762  1.3247
16062TIP3   OH269600   2.136   1.271   2.037 -0.7654  0.4825  0.2158
16062TIP3    H169601   2.207   1.276   1.973  0.2092 -0.7026  1.1654
16062TIP3    H269602   2.111   1.362   2.052  0.3652  0.9037 -0.3645
16063TIP3   OH269603   5.538   4.569  16.640  0.1968 -0.2120  0.8339
16063TIP3    H169604   5.520   4.476  16.630  1.5460 -0.8000  3.5160
16063TIP3    H269605   5.457   4.606  16.676  0.0195 -0.5195  0.7541
16064TIP3   OH269606   5.849   4.896  15.588 -0.2280 -0.3537 -0.7156
16064TIP3    H169607   5.839   4.820  15.530 -0.8407  0.6558 -1.9577
16064TIP3    H269608   5.930   4.879  15.636 -0.1733 -1.6255 -1.2400
16065TIP3   OH269609   0.013   3.389  14.092  0.3557  0.2218  0.1829
16065TIP3    H169610  -0.083   3.391  14.098  0.4326  1.4318  1.0406
16065TIP3    H269611   0.031   3.404  13.999 -0.2882  0.2590  0.0627
16066TIP3   OH269612   4.710   6.300   0.707  0.0703 -0.3825 -0.1909
16066TIP3    H169613   4.763   6.337   0.637  0.4394  1.2546  0.9220
16066TIP3    H269614   4.641   6.251   0.662  0.7665 -0.0135 -1.6771
16067TIP3   OH269615   1.402   1.752  13.084 -0.0458  0.6008  0.1869
16067TIP3    H169616   1.431   1.827  13.136  0.9526  0.5770 -0.3299
16067TIP3    H269617   1.308   1.767  13.072  0.2145  1.9684 -0.2546
16068TIP3   OH269618   4.263   4.384  14.957 -0.0946  0.5169  0.1158
16068TIP3    H169619   4.356   4.404  14.966  0.2478 -0.4067 -1.2526
16068TIP3    H269620   4.227   4.459  14.911  0.0290  0.7207  0.3489
16069TIP3   OH269621   6.495   3.385  15.530 -0.2375  0.6127 -0.6759
16069TIP3    H169622   6.528   3.441  15.600  0.6956 -0.9611  0.1750
16069TIP3    H269623   6.409   3.357  15.561  0.6228 -0.9679  0.4081
16070TIP3   OH269624   2.409   2.269   0.220 -0.5019 -0.1857  0.2727
16070TIP3    H169625   2.389   2.263   0.127  0.9770  0.8426 -0.1362
16070TIP3    H269626   2.325   2.288   0.262 -1.4321 -2.1166 -0.6666
16071TIP3   OH269627   1.383   5.420   0.981 -0.0822 -0.0166  0.1737
16071TIP3    H169628   1.439   5.344   0.966 -0.6731 -0.8590  2.0263
16071TIP3    H269629   1.431   5.473   1.045  0.1707  1.0296 -0.8540
16072TIP3   OH269630   6.389   3.888   4.035  0.0271  0.5468 -0.3935
16072TIP3    H169631   6.389   3.869   3.941  1.5617 -0.1709 -0.2609
16072TIP3    H269632   6.430   3.811   4.075 -0.2511  1.0269  0.8257
16073TIP3   OH269633   1.972   4.046  15.748 -0.8731  0.1286 -0.7807
16073TIP3    H169634   1.930   4.132  15.755 -2.3561 -0.7333  1.0573
16073TIP3    H269635   1.944   4.013  15.663 -0.4841  1.3407 -1.4035
16074TIP3   OH269636   1.383   4.485  15.059 -0.0233  0.5291 -0.1769
16074TIP3    H169637   1.434   4.423  15.112  1.6537  3.7211  2.0695
16074TIP3    H269638   1.294   4.480  15.096  0.8593  1.8331  2.2410
16075TIP3   OH269639   4.880   4.241  10.718 -0.1116 -0.5086 -0.1674
16075TIP3    H169640   4.825   4.254  10.795  0.6090 -3.1308  0.8497
16075TIP3    H269641   4.852   4.309  10.657 -2.3656  0.1035  1.4699
16076TIP3   OH269642   2.088   4.159  13.208 -0.4093 -0.0450  0.2481
16076TIP3    H169643   2.106   4.116  13.124  0.5750 -0.9888  0.9316
16076TIP3    H269644   2.095   4.253  13.188 -0.9645 -0.2398 -0.8962
16077TIP3   OH269645   3.811   3.020  13.154 -0.1213  0.2048 -0.1258
16077TIP3    H169646   3.803   3.075  13.077  0.3258 -0.6041 -0.7656
16077TIP3    H269647   3.894   3.045  13.193  1.3649 -1.7710 -1.8643
16078TIP3   OH269648   1.487   0.507   5.721 -0.3254 -0.7428 -0.1129
16078TIP3    H169649   1.541   0.584   5.704 -1.1702 -0.3758 -1.1562
16078TIP3    H269650   1.507   0.484   5.812 -1.5943  1.9269  0.8831
16079TIP3   OH269651   3.762   5.401  13.703 -0.1278  0.0202 -0.2292
16079TIP3    H169652   3.687   5.353  13.739 -0.6724  0.1596 -1.1665
16079TIP3    H269653   3.796   5.343  13.634 -0.0968  0.4839 -0.6022
16080TIP3   OH269654   2.747   5.486   1.688  1.1044 -0.0291 -0.8250
16080TIP3    H169655   2.835   5.449   1.695  1.0783  0.2089  0.9823
16080TIP3    H269656   2.703   5.458   1.767 -0.1699  0.6090 -1.2960
16081TIP3   OH269657   5.681   6.096  13.195  0.2488  0.4707 -0.4868
16081TIP3    H169658   5.655   6.188  13.188  1.2749  0.6806 -1.8653
16081TIP3    H269659   5.774   6.099  13.219 -0.2475 -0.2278  1.5708
16082TIP3   OH269660   1.426   5.753  12.566 -0.4322  0.2496  0.1042
16082TIP3    H169661   1.374   5.771  12.644  0.0655 -0.2151  0.5552
16082TIP3    H269662   1.389   5.672  12.530 -1.8079  1.4305 -1.1589
16083TIP3   OH269663   4.820   2.571  11.714  0.3370 -0.2102  0.0438
16083TIP3    H169664   4.865   2.654  11.728 -0.9927  0.6079 -0.4064
16083TIP3    H269665   4.794   2.574  11.622 -0.6483 -0.6580  0.3036
16084TIP3   OH269666   4.458   0.374  13.548 -0.1861  0.2701 -0.7142
16084TIP3    H169667   4.371   0.391  13.584 -0.3252 -0.1869 -0.8263
16084TIP3    H269668   4.498   0.460  13.541 -0.4067  0.4292 -0.0994
16085TIP3   OH269669   2.722   4.618   0.536  0.1573  0.7392 -0.2092
16085TIP3    H169670   2.739   4.702   0.492  2.7385  1.1314  1.4188
16085TIP3    H269671   2.627   4.609   0.535 -0.0593  2.6907 -2.2138
16086TIP3   OH269672   3.417   3.172   2.334 -0.0632  0.3096  0.3564
16086TIP3    H169673   3.326   3.179   2.305  1.0618  0.3486 -3.5039
16086TIP3    H269674   3.460   3.248   2.295  1.7492  0.0402  1.7449
16087TIP3   OH269675   1.294   0.979  13.334  0.0179 -0.2659 -0.3480
16087TIP3    H169676   1.286   0.908  13.398  0.3662  0.1617  0.1736
16087TIP3    H269677   1.384   1.009  13.342  0.1333 -0.3763 -1.2248
16088TIP3   OH269678   6.283   6.629  10.425 -0.2491 -0.5915  0.3149
16088TIP3    H169679   6.296   6.605  10.334 -0.4487  0.8295 -0.1020
16088TIP3    H269680   6.247   6.550  10.466  1.1301 -1.6794 -0.5195
16089TIP3   OH269681   3.215   3.965   0.341 -0.0617  0.0749 -0.2505
16089TIP3    H169682   3.263   3.891   0.305  2.9485  2.1418 -0.6422
16089TIP3    H269683   3.229   4.036   0.278  0.1288  1.9781  1.8702
16090TIP3   OH269684   0.760   0.708   4.531  0.1959  0.3692 -0.1749
16090TIP3    H169685   0.768   0.801   4.509 -1.0287  0.4554 -0.2966
16090TIP3    H269686   0.816   0.697   4.608 -0.6112  1.4784  0.5986
16091TIP3   OH269687   2.765   3.720   4.976  0.4565 -0.4663 -0.6817
16091TIP3    H169688   2.711   3.798   4.959  2.2893  0.9615 -0.1787
16091TIP3    H269689   2.801   3.697   4.890 -0.3932 -1.0006 -0.8982
16092TIP3   OH269690   6.078   4.493  11.461 -0.0464  0.3151 -0.3910
16092TIP3    H169691   6.020   4.568  11.449  0.1903  0.8452  1.6467
16092TIP3    H269692   6.164   4.525  11.432 -0.4952 -0.1158 -2.3121
16093TIP3   OH269693   1.976   2.805   4.718  0.1666 -0.0516 -0.3604
16093TIP3    H169694   1.881   2.798   4.728  0.0279  0.6524 -1.0750
16093TIP3    H269695   1.991   2.899   4.705  0.8077 -0.3282 -1.7063
16094TIP3   OH269696   5.986   0.782  14.328 -0.3605 -0.4508  0.1715
16094TIP3    H169697   5.996   0.728  14.249 -1.0409  0.0337 -0.2550
16094TIP3    H269698   6.021   0.868  14.302  1.6396 -0.9441  1.1510
16095TIP3   OH269699   6.020   2.465  11.722  0.1343  0.1402  0.3580
16095TIP3    H169700   5.970   2.428  11.650 -0.5170  2.2095 -0.2600
16095TIP3    H269701   6.101   2.414  11.723 -0.8703 -1.5284 -0.2385
16096TIP3   OH269702   4.663   0.483  11.881  0.2388  0.3387  0.6015
16096TIP3    H169703   4.583   0.501  11.832 -0.1516 -0.9872  0.7430
16096TIP3    H269704   4.720   0.438  11.819  0.0879 -0.5394  1.0964
16097TIP3   OH269705   4.584   4.744   2.426 -0.1690  0.6528 -0.2013
16097TIP3    H169706   4.573   4.716   2.335  1.4258  0.1351 -0.2563
16097TIP3    H269707   4.538   4.678   2.478 -0.9004  0.8307 -0.6236
16098TIP3   OH269708   1.915   1.927   5.895  0.1222  0.1053 -0.0327
16098TIP3    H169709   1.960   1.853   5.935 -2.3145 -0.9180  0.8924
16098TIP3    H269710   1.888   1.896   5.808 -0.2020  0.1702  0.0426
16099TIP3   OH269711   6.342   0.614   2.439 -0.1815  0.1201  0.2997
16099TIP3    H169712   6.254   0.583   2.458 -0.5212  1.5104  1.0527
16099TIP3    H269713   6.331   0.677   2.368  0.5354 -1.6109 -1.3989
16100TIP3   OH269714   0.051   1.759   3.419  0.3893 -0.3434 -0.1167
16100TIP3    H169715   0.136   1.749   3.462  1.4543  0.5785 -1.9516
16100TIP3    H269716   0.060   1.838   3.366 -1.7795  0.0421  0.0146
16101TIP3   OH269717   4.864   2.453   5.621 -0.0588  0.3266  0.0500
16101TIP3    H169718   4.809   2.516   5.667  0.9464  0.9523  0.4102
16101TIP3    H269719   4.944   2.447   5.674  0.2937 -0.4345 -0.5544
16102TIP3   OH269720   4.802   1.927   3.099 -0.1209  0.1001 -0.5277
16102TIP3    H169721   4.891   1.948   3.129 -0.3987  0.7044 -0.0925
16102TIP3    H269722   4.754   2.009   3.111 -1.0703 -0.5907  0.5223
16103TIP3   OH269723   5.249   0.069   0.839  0.5016  0.2081 -0.3861
16103TIP3    H169724   5.205   0.151   0.859 -2.7791 -1.4140 -0.7065
16103TIP3    H269725   5.263   0.072   0.745 -1.3168 -0.3894 -0.6869
16104TIP3   OH269726   3.229   5.323  16.760  0.2672  0.1550  0.3102
16104TIP3    H169727   3.309   5.372  16.781 -0.5571  1.9110 -0.4730
16104TIP3    H269728   3.255   5.231  16.763  3.1446  0.7310 -2.9967
16105TIP3   OH269729   0.682   5.245   2.905 -0.2640 -0.4349 -0.5604
16105TIP3    H169730   0.622   5.216   2.975  0.7622 -0.0541  0.4903
16105TIP3    H269731   0.758   5.187   2.914  1.0164  1.3307  0.3765
16106TIP3   OH269732   2.004   3.981  16.524 -0.1548  0.3078  0.8108
16106TIP3    H169733   1.916   3.968  16.490  0.4766 -1.0139 -0.3562
16106TIP3    H269734   2.003   3.940  16.610 -0.3389 -0.7694  0.2952
16107TIP3   OH269735   2.228   5.795  10.711 -0.1171  1.0975 -0.2058
16107TIP3    H169736   2.184   5.848  10.644 -1.0527  2.1470  1.2007
16107TIP3    H269737   2.262   5.719  10.664 -2.7153  0.6906 -1.4754
16108TIP3   OH269738   4.532   6.519   5.787 -0.2210  0.3060 -0.0117
16108TIP3    H169739   4.572   6.552   5.705  0.3451 -0.9280 -0.2390
16108TIP3    H269740   4.460   6.464   5.758  0.3813 -0.6576  0.2891
16109TIP3   OH269741   4.195   6.197   2.457 -0.4961 -0.0061 -0.2141
16109TIP3    H169742   4.110   6.222   2.422 -0.1091  1.1973 -0.3143
16109TIP3    H269743   4.209   6.108   2.425 -1.2635  0.1586 -1.0190
16110TIP3   OH269744   0.370   0.962  12.822  0.2043 -0.0969 -0.1130
16110TIP3    H169745   0.425   0.999  12.891  0.9584 -2.0200  0.3573
16110TIP3    H269746   0.430   0.911  12.768 -0.0601  2.7003 -3.2469
16111TIP3   OH269747   2.106   2.652   2.632 -0.1066  0.0753  0.1096
16111TIP3    H169748   2.042   2.634   2.564  0.3864 -1.0265 -0.0693
16111TIP3    H269749   2.060   2.710   2.694 -1.5391 -1.3507  0.4031
16112TIP3   OH269750   1.758   6.711  14.823 -0.5037  0.1348 -0.0007
16112TIP3    H169751   1.666   6.737  14.813 -0.8527 -1.0579  0.0925
16112TIP3    H269752   1.776   6.657  14.746  0.1742  0.5125 -0.1098
16113TIP3   OH269753   5.040   1.754  12.836 -0.1919 -0.7430  0.1304
16113TIP3    H169754   5.038   1.773  12.930  0.1982  0.5597 -0.1210
16113TIP3    H269755   5.022   1.838  12.794 -0.7050 -1.3845 -0.9660
16114TIP3   OH269756   3.349   2.467   5.966  0.1572  0.2895  0.3315
16114TIP3    H169757   3.403   2.526   6.018  0.3156 -0.0778  0.5808
16114TIP3    H269758   3.293   2.525   5.915 -0.1206  0.6453  1.0403
16115TIP3   OH269759   4.542   4.070   4.761  0.3441 -0.2280  0.2027
16115TIP3    H169760   4.504   4.005   4.820 -2.1236 -0.5643 -1.6545
16115TIP3    H269761   4.594   4.018   4.699  1.3237 -0.0529  0.8554
16116TIP3   OH269762   3.140   1.891  13.902 -0.9820 -0.2777  0.4667
16116TIP3    H169763   3.100   1.920  13.820 -0.3791 -2.2256 -0.5464
16116TIP3    H269764   3.191   1.967  13.931  0.1179 -0.0799 -1.8195
16117TIP3   OH269765   2.860   2.370   5.120  0.2099 -0.6181 -0.0537
16117TIP3    H169766   2.881   2.438   5.184  1.7039 -0.7357 -0.3965
16117TIP3    H269767   2.769   2.347   5.139  0.7801 -1.0406  2.4119
16118TIP3   OH269768   6.783   4.270   2.376 -0.5526  0.4173 -0.0624
16118TIP3    H169769   6.872   4.286   2.407 -0.8996  0.9619  0.6835
16118TIP3    H269770   6.786   4.290   2.283 -0.4555  2.7888  0.4148
16119TIP3   OH269771   1.171   1.664  13.415  0.4162  0.2993 -0.0956
16119TIP3    H169772   1.249   1.619  13.448  0.2604  0.0223 -0.1054
16119TIP3    H269773   1.184   1.756  13.440  1.2312  0.4329 -1.0010
16120TIP3   OH269774   2.900   5.044  15.746 -0.3055  0.2775  0.2096
16120TIP3    H169775   2.929   5.130  15.716 -2.6567  0.5991 -1.1883
16120TIP3    H269776   2.855   5.061  15.829  0.1606  0.2346  0.4775
16121TIP3   OH269777   0.471   5.989  12.570 -0.0224 -0.5134 -0.2663
16121TIP3    H169778   0.385   6.025  12.547  2.1933  3.7205 -2.4763
16121TIP3    H269779   0.504   5.952  12.488  0.7090 -1.2493  0.3495
16122TIP3   OH269780   4.923   4.021  14.079  0.0597 -0.2563 -0.1202
16122TIP3    H169781   4.946   4.055  13.992  1.2039 -0.1586  0.2069
16122TIP3    H269782   4.868   4.089  14.117  1.4987  0.7917  0.1290
16123TIP3   OH269783   5.811   5.845   3.845 -0.4454 -0.4760  0.0374
16123TIP3    H169784   5.832   5.784   3.915 -0.2891 -1.3302 -0.7543
16123TIP3    H269785   5.887   5.844   3.787 -0.5591  0.2527 -0.1411
16124TIP3   OH269786   0.387   6.117   1.323  0.5588 -0.0660  0.6150
16124TIP3    H169787   0.305   6.165   1.316  1.0979  0.5957 -1.6699
16124TIP3    H269788   0.409   6.094   1.233  2.0281 -1.6888  1.3655
16125TIP3   OH269789   3.357   4.735   3.465  0.2933  0.2015  0.1398
16125TIP3    H169790   3.428   4.714   3.404  0.4007  0.8532  0.0294
16125TIP3    H269791   3.397   4.796   3.527 -0.0064  0.0919  0.4369
16126TIP3   OH269792   5.925   5.467   4.945 -0.1573 -0.0379  0.2320
16126TIP3    H169793   5.920   5.545   5.001  0.0099 -0.9640  1.5779
16126TIP3    H269794   5.901   5.395   5.003  1.0494 -1.1542 -0.6204
16127TIP3   OH269795   5.419   0.368   5.527 -0.0882  0.3050  0.0687
16127TIP3    H169796   5.393   0.354   5.618  2.7753 -1.4861  0.6994
16127TIP3    H269797   5.507   0.331   5.522  0.4187  1.7649 -3.0647
16128TIP3   OH269798   6.005   1.199   3.358  0.1812  0.5678  0.5052
16128TIP3    H169799   5.975   1.289   3.370  0.2040  0.8323 -1.2777
16128TIP3    H269800   6.087   1.208   3.308 -0.0902 -0.4580 -0.1458
16129TIP3   OH269801   5.831   0.915   2.026  0.4461  0.5103 -0.4086
16129TIP3    H169802   5.779   0.872   2.093 -0.5245  1.1071 -0.7759
16129TIP3    H269803   5.912   0.865   2.022 -0.1486 -0.4881  0.0843
16130TIP3   OH269804   5.042   1.586   1.132 -0.6951  0.2634  0.3326
16130TIP3    H169805   5.039   1.592   1.228  0.7612 -0.4946  0.4486
16130TIP3    H269806   5.087   1.503   1.115  1.6955  1.7493 -0.9550
16131TIP3   OH269807   5.295   1.457   2.327 -0.6476 -0.1150 -0.0088
16131TIP3    H169808   5.259   1.407   2.254 -1.6865  0.2785  0.2200
16131TIP3    H269809   5.257   1.417   2.405 -0.5535  0.2847  0.2424
16132TIP3   OH269810   0.116   0.139  15.549 -0.2686  0.1725 -0.1798
16132TIP3    H169811   0.114   0.231  15.524 -0.5443 -0.0283 -0.9102
16132TIP3    H269812   0.209   0.119  15.561 -0.1994  0.5039 -0.1589
16133TIP3   OH269813   1.654   2.366  12.407 -0.2870 -0.4319  0.4806
16133TIP3    H169814   1.598   2.403  12.476 -0.4388 -0.6598  0.4824
16133TIP3    H269815   1.703   2.296  12.451 -0.4019 -0.5948  0.3551
16134TIP3   OH269816   6.242   1.221  12.375  0.2971 -0.8176 -0.0593
16134TIP3    H169817   6.245   1.246  12.468 -1.3469  0.4158 -0.3227
16134TIP3    H269818   6.318   1.164  12.364  0.4251 -1.1380  2.0935
16135TIP3   OH269819   0.230   5.097   6.596 -0.0701 -0.1333  0.0566
16135TIP3    H169820   0.325   5.102   6.592 -0.0263  2.6153  2.3887
16135TIP3    H269821   0.211   5.043   6.672 -0.3413  1.0135  0.8143
16136TIP3   OH269822   2.946   6.677   0.495  0.5199  0.3288  0.3153
16136TIP3    H169823   2.890   6.751   0.520  0.5076  0.7279 -0.8182
16136TIP3    H269824   2.933   6.670   0.400  1.4668 -0.3509  0.2378
16137TIP3   OH269825   1.295   2.017  15.488  0.5690 -0.6831 -1.1336
16137TIP3    H169826   1.227   1.992  15.425  0.5593 -1.3251 -0.8793
16137TIP3    H269827   1.293   2.112  15.490  0.4014 -0.6699 -1.9202
16138TIP3   OH269828   2.539   1.384  16.800  0.0778  0.0207  0.5506
16138TIP3    H169829   2.469   1.408  16.860  0.4998  0.8850  0.7071
16138TIP3    H269830   2.619   1.408  16.846  0.4249  0.3237 -0.2050
16139TIP3   OH269831   2.287   1.654  12.063 -0.5008  0.7914 -0.3962
16139TIP3    H169832   2.221   1.656  11.994 -0.5684 -1.9432 -0.4700
16139TIP3    H269833   2.239   1.671  12.143 -0.6259  2.7057 -0.8402
16140TIP3   OH269834   1.533   3.571  11.401  0.3724 -0.1575  0.4049
16140TIP3    H169835   1.454   3.572  11.347 -0.5548 -0.6614  1.7073
16140TIP3    H269836   1.500   3.561  11.491  1.9362 -0.6800  0.9379
16141TIP3   OH269837   2.085   2.599   2.045 -0.0731  0.6664 -0.3384
16141TIP3    H169838   2.131   2.682   2.039 -1.7391  1.8221  2.1542
16141TIP3    H269839   1.994   2.622   2.061 -0.4764 -1.6254  0.9814
16142TIP3   OH269840   4.572   2.012  15.288 -0.2099 -0.1824  0.2395
16142TIP3    H169841   4.593   1.920  15.272  0.5854  0.0999 -0.3575
16142TIP3    H269842   4.655   2.052  15.311 -0.4358  0.5250 -0.1556
16143TIP3   OH269843   5.871   5.033  12.219 -0.0434 -0.9467 -0.1873
16143TIP3    H169844   5.923   5.041  12.139 -0.0426 -2.1313 -0.3025
16143TIP3    H269845   5.897   4.950  12.258  1.3157  0.4817  2.0442
16144TIP3   OH269846   6.246   2.885  17.016  0.0412  0.6688 -0.9846
16144TIP3    H169847   6.325   2.860  16.968 -0.1653 -0.3858 -0.7866
16144TIP3    H269848   6.265   2.863  17.107 -0.4503  0.4737 -0.9217
16145TIP3   OH269849   6.080   1.456  13.714 -0.5240  0.4853  0.3087
16145TIP3    H169850   6.029   1.411  13.781 -1.5096  1.0461 -0.0494
16145TIP3    H269851   6.167   1.465  13.752 -1.0831  0.8270  1.5362
16146TIP3   OH269852   5.369   2.073  15.757  0.0804  0.1126  0.2970
16146TIP3    H169853   5.313   2.018  15.812  1.0856 -1.4450 -0.1980
16146TIP3    H269854   5.412   2.011  15.697  2.2227  1.2862  0.5707
16147TIP3   OH269855   4.614   5.769  13.353 -0.0698 -0.0048 -0.4032
16147TIP3    H169856   4.579   5.800  13.270 -0.7113  0.4724  0.0399
16147TIP3    H269857   4.589   5.836  13.416 -1.4823 -1.4241  0.5778
16148TIP3   OH269858   6.517   0.872   2.980  0.1205  0.3953  0.2458
16148TIP3    H169859   6.463   0.793   2.980  3.6092 -2.1067 -0.5045
16148TIP3    H269860   6.504   0.911   2.894  0.9445 -1.2804 -0.6671
16149TIP3   OH269861   6.578   4.806   4.356 -0.5688  0.0833  0.0113
16149TIP3    H169862   6.491   4.830   4.325  0.3082 -0.0172 -2.6543
16149TIP3    H269863   6.593   4.718   4.320  0.8851  0.3684 -0.1088
16150TIP3   OH269864   5.497   4.154  14.200  0.3682 -0.1326 -0.3218
16150TIP3    H169865   5.553   4.139  14.277  2.2074  0.8853 -1.4281
16150TIP3    H269866   5.511   4.247  14.179 -1.9918  0.2152 -0.4439
16151TIP3   OH269867   3.473   5.807   0.926 -0.5151 -0.2549 -0.1639
16151TIP3    H169868   3.429   5.890   0.946 -0.1878  0.4035 -2.0309
16151TIP3    H269869   3.560   5.833   0.896  0.5327 -1.4507  1.7356
16152TIP3   OH269870   5.220   2.524   5.989  0.4445 -0.0693  0.6673
16152TIP3    H169871   5.189   2.539   6.078 -1.0888  0.0415  0.1241
16152TIP3    H269872   5.315   2.516   5.998  0.4296  1.1937  2.1383
16153TIP3   OH269873   3.514   1.539  13.254 -0.3928  0.0961 -0.4060
16153TIP3    H169874   3.468   1.547  13.171 -0.3320 -2.7583 -0.7569
16153TIP3    H269875   3.559   1.455  13.249  0.6209  0.4416  2.0247
16154TIP3   OH269876   4.697   1.888  15.616 -0.0537  0.4952 -0.1325
16154TIP3    H169877   4.667   1.978  15.625 -0.1581  0.6280 -1.6484
16154TIP3    H269878   4.792   1.895  15.603  0.0991  0.3118  0.8385
16155TIP3   OH269879   1.991   4.147  13.911  0.1388 -0.1002 -0.1968
16155TIP3    H169880   2.064   4.103  13.868 -0.2764 -1.6346  0.6223
16155TIP3    H269881   1.914   4.094  13.887 -0.2653 -0.2582  1.3965
16156TIP3   OH269882   6.492   2.958   1.341 -0.3534  0.4912 -0.6134
16156TIP3    H169883   6.488   2.879   1.287 -1.0117  0.3410 -0.3505
16156TIP3    H269884   6.488   3.030   1.278  2.5234  0.3533 -1.0334
16157TIP3   OH269885   6.090   3.999   2.892 -0.3060 -0.2791 -0.5710
16157TIP3    H169886   6.042   3.945   2.829 -1.6584  0.8432 -0.5292
16157TIP3    H269887   6.114   4.078   2.843 -1.2464  0.5428  0.2503
16158TIP3   OH269888   6.135   5.824  15.339  0.3671 -0.6649 -0.8714
16158TIP3    H169889   6.096   5.816  15.426 -0.0760 -0.5439 -1.0529
16158TIP3    H269890   6.069   5.786  15.280 -0.3184  1.2944 -1.3887
16159TIP3   OH269891   2.371   6.226   3.333 -0.2350  0.3712  0.3407
16159TIP3    H169892   2.355   6.195   3.422 -1.8239 -0.3832 -0.1935
16159TIP3    H269893   2.433   6.299   3.344 -0.6245  0.4669  2.0791
16160TIP3   OH269894   3.541   2.623   4.339 -0.0513  0.9010 -0.5238
16160TIP3    H169895   3.636   2.610   4.343 -0.2728 -1.0386 -1.1002
16160TIP3    H269896   3.508   2.585   4.421 -0.4116  0.8677 -0.6820
16161TIP3   OH269897   5.490   6.773   0.397 -0.4622 -0.7156  0.2879
16161TIP3    H169898   5.585   6.787   0.390 -0.2449 -1.0677  2.2808
16161TIP3    H269899   5.470   6.707   0.331  0.6028 -0.2867 -0.4716
16162TIP3   OH269900   5.534   6.710  15.913 -0.3964  0.7877  0.1127
16162TIP3    H169901   5.563   6.741  15.999  1.0736  1.6783 -0.6744
16162TIP3    H269902   5.590   6.756  15.851 -1.7866  0.5355 -1.3574
16163TIP3   OH269903   5.009   0.180  11.189 -0.7116 -0.0519 -0.2993
16163TIP3    H169904   5.070   0.253  11.178 -0.8705  0.0912 -0.2414
16163TIP3    H269905   5.065   0.103  11.193 -0.4628  0.1727  0.7428
16164TIP3   OH269906   2.850   0.345  10.715  0.5163 -0.0977  0.0698
16164TIP3    H169907   2.848   0.322  10.808  0.9440 -0.5100 -0.0242
16164TIP3    H269908   2.913   0.285  10.676  1.3289  0.9522 -0.2542
16165TIP3   OH269909   1.899   5.733  12.405 -0.0997  0.1874  0.1242
16165TIP3    H169910   1.905   5.720  12.500  0.5537  0.7406  0.1558
16165TIP3    H269911   1.989   5.739  12.375 -0.3015 -0.1035 -0.5553
16166TIP3   OH269912   0.673   5.819   2.043 -0.2090 -0.4252  0.0163
16166TIP3    H169913   0.757   5.822   2.089 -0.2371 -0.3582  0.0634
16166TIP3    H269914   0.607   5.821   2.113 -0.2690  0.7090 -0.0685
16167TIP3   OH269915   5.484   5.697  12.849  0.6664 -0.1271 -0.0879
16167TIP3    H169916   5.531   5.657  12.922  0.1151 -1.2045 -0.3195
16167TIP3    H269917   5.521   5.785  12.843  1.5605 -0.4348  0.7217
16168TIP3   OH269918   5.307   5.342  13.437  0.4185 -0.1606 -0.1531
16168TIP3    H169919   5.260   5.298  13.367  0.6724 -0.5074 -0.1073
16168TIP3    H269920   5.339   5.271  13.493  0.6594  0.0907  0.0305
16169TIP3   OH269921   0.770   1.551  11.063  0.1570  0.2721  0.4084
16169TIP3    H169922   0.854   1.595  11.075 -0.8229  2.3241 -0.1071
16169TIP3    H269923   0.756   1.550  10.969 -1.6014  2.2952  0.6221
16170TIP3   OH269924   2.028   6.069   5.228 -0.0547  0.5570  0.1252
16170TIP3    H169925   1.978   6.082   5.309 -1.0011 -0.8434 -0.2236
16170TIP3    H269926   1.965   6.083   5.158  0.1984 -0.5109 -0.3263
16171TIP3   OH269927   5.335   4.567   5.228 -0.0131  0.3418 -0.5983
16171TIP3    H169928   5.350   4.661   5.213 -0.7579  0.7286  0.9824
16171TIP3    H269929   5.285   4.564   5.310 -0.5496 -1.4042 -0.9785
16172TIP3   OH269930   5.254   6.519  12.672 -0.5067  0.0369 -0.4426
16172TIP3    H169931   5.296   6.434  12.691 -1.6020 -0.6994 -1.2673
16172TIP3    H269932   5.167   6.496  12.641 -0.3197  1.4178 -2.0416
16173TIP3   OH269933   5.437   2.426  14.751  0.2228 -0.3288 -0.3038
16173TIP3    H169934   5.526   2.394  14.736  0.8823  1.2773  0.1309
16173TIP3    H269935   5.381   2.359  14.711  1.5531 -2.2132  0.8798
16174TIP3   OH269936   3.511   4.129   0.667  0.1729  0.4383  0.2211
16174TIP3    H169937   3.536   4.175   0.587 -0.0105  1.9913  1.0244
16174TIP3    H269938   3.482   4.043   0.637  0.7117  0.7704 -1.3132
16175TIP3   OH269939   0.159   2.339  15.673 -0.2310  0.4151 -0.5592
16175TIP3    H169940   0.199   2.417  15.709  1.1035  0.0924 -1.3093
16175TIP3    H269941   0.107   2.302  15.745  1.9957  0.0272  0.8776
16176TIP3   OH269942   3.122   3.280  14.141  0.3051  0.7405  0.3285
16176TIP3    H169943   3.144   3.326  14.061 -0.0884  2.7534  1.3476
16176TIP3    H269944   3.035   3.244  14.125  0.9264 -0.3008 -0.7457
16177TIP3   OH269945   5.908   1.878  11.226  0.2150 -0.4975 -0.3584
16177TIP3    H169946   5.823   1.892  11.266  0.1173  0.4013 -0.8678
16177TIP3    H269947   5.929   1.961  11.184  1.1788 -0.8244 -0.5430
16178TIP3   OH269948   1.348   1.112  16.503 -0.9042  0.1437 -0.1338
16178TIP3    H169949   1.326   1.146  16.417 -0.9250 -1.3655 -0.7503
16178TIP3    H269950   1.266   1.119  16.553 -1.0786  0.3800 -0.4467
16179TIP3   OH269951   0.753   4.210  16.203 -0.2788 -0.5777  0.9362
16179TIP3    H169952   0.730   4.187  16.293  2.2627  0.0258  1.7828
16179TIP3    H269953   0.805   4.136  16.173 -0.1606 -0.2524  0.3505
16180TIP3   OH269954   1.105   3.243   3.992 -0.5529  0.5888  0.1909
16180TIP3    H169955   1.049   3.253   4.069 -0.2677  1.5452  0.2834
16180TIP3    H269956   1.188   3.284   4.018  0.4908 -1.5708  0.3676
16181TIP3   OH269957   0.037   4.195   0.913  0.0791 -0.4417  0.3329
16181TIP3    H169958  -0.003   4.143   0.982 -0.0798 -2.0252 -0.9267
16181TIP3    H269959   0.100   4.136   0.871 -0.1726  0.3359 -1.1817
16182TIP3   OH269960   5.427   6.232  14.619 -0.5389 -0.2019  0.2417
16182TIP3    H169961   5.403   6.184  14.698 -0.5710 -0.5926 -0.0029
16182TIP3    H269962   5.376   6.190  14.549  1.5726 -1.6914 -0.4465
16183TIP3   OH269963   1.541   5.667  15.555  0.3095 -0.9394 -0.3241
16183TIP3    H169964   1.635   5.682  15.559  0.8806 -3.2021 -3.0031
16183TIP3    H269965   1.502   5.736  15.608  3.4842 -0.1771  1.0961
16184TIP3   OH269966   1.611   2.555  15.890 -0.2899 -0.3692 -0.1992
16184TIP3    H169967   1.673   2.550  15.817 -0.1863 -1.5920 -0.0298
16184TIP3    H269968   1.659   2.602  15.959  0.6558 -1.7532  0.1171
16185TIP3   OH269969   2.535   6.748  15.888 -0.4324  0.0862  0.3231
16185TIP3    H169970   2.507   6.790  15.969 -1.0812 -4.0915  2.4138
16185TIP3    H269971   2.501   6.804  15.818 -0.7002  3.2575  2.8892
16186TIP3   OH269972   0.226   0.600   3.818  0.1695  0.8182 -0.3387
16186TIP3    H169973   0.306   0.645   3.790  0.3337  0.7590  0.0356
16186TIP3    H269974   0.240   0.509   3.795 -0.2917  1.0008 -1.3856
16187TIP3   OH269975   5.214   5.869  14.962 -0.1426  0.0390 -0.1381
16187TIP3    H169976   5.243   5.891  15.051  2.2217 -2.8669 -0.1030
16187TIP3    H269977   5.156   5.794  14.973  0.1048 -0.2922 -1.0166
16188TIP3   OH269978   4.473   5.990  11.905 -0.2386  0.0332 -0.5274
16188TIP3    H169979   4.510   6.021  11.822 -0.8499  0.0194 -0.8077
16188TIP3    H269980   4.491   6.061  11.967  1.1178 -0.3951 -0.4290
16189TIP3   OH269981   3.526   0.563   1.568  0.4717  0.2035  0.1132
16189TIP3    H169982   3.498   0.505   1.498 -1.3598  1.0876  0.0731
16189TIP3    H269983   3.497   0.518   1.648 -0.4340  0.7592  0.1097
16190TIP3   OH269984   4.816   0.715  12.353  0.2997  0.1925 -0.1270
16190TIP3    H169985   4.786   0.775  12.421 -0.7116 -0.0366 -0.3609
16190TIP3    H269986   4.889   0.761  12.312  0.4939  0.6184  0.6728
16191TIP3   OH269987   5.467   3.595  13.720 -0.1206  0.6475 -0.4693
16191TIP3    H169988   5.417   3.529  13.673  0.0056  0.0935  0.1575
16191TIP3    H269989   5.450   3.576  13.813 -0.2117  1.5928 -0.2948
16192TIP3   OH269990   4.477   0.579  16.457 -0.7222  0.2156 -0.9095
16192TIP3    H169991   4.468   0.573  16.362 -0.6517 -0.9193 -0.8494
16192TIP3    H269992   4.390   0.555  16.490 -0.7919  0.7598 -0.6852
16193TIP3   OH269993   2.390   1.090  14.404 -0.2374  0.6063 -0.2684
16193TIP3    H169994   2.316   1.148  14.419 -0.6492  0.5310 -1.9220
16193TIP3    H269995   2.460   1.126  14.457 -0.9535  1.6987 -0.0522
16194TIP3   OH269996   4.534   3.481   4.777 -0.2060  0.1723 -0.3242
16194TIP3    H169997   4.483   3.529   4.843  0.6887 -1.0700  1.3038
16194TIP3    H269998   4.622   3.517   4.784  0.5275 -1.8111  1.0637
16195TIP3   OH269999   0.378   4.989   5.580 -0.3156 -0.0237  0.1833
16195TIP3    H170000   0.378   5.073   5.533 -0.9803  0.1682  0.5211
16195TIP3    H270001   0.441   4.935   5.532  0.2169  0.7142  0.0429
16196TIP3   OH270002   0.603   4.068  16.408  0.2636  0.1615 -0.3761
16196TIP3    H170003   0.656   3.990  16.427  0.6926  0.7904  1.1039
16196TIP3    H270004   0.513   4.035  16.403  0.8252 -1.0535 -3.7716
16197TIP3   OH270005   6.396   3.903   3.473 -0.3700 -0.1605 -0.2024
16197TIP3    H170006   6.434   3.851   3.543  0.1288  0.9182  0.3268
16197TIP3    H270007   6.410   3.850   3.394  1.7163 -0.0424  0.0622
16198TIP3   OH270008   5.269   3.704   6.783  0.1393  0.3102 -0.0990
16198TIP3    H170009   5.335   3.761   6.821 -0.0416 -0.8570  2.0524
16198TIP3    H270010   5.279   3.715   6.688  1.5976  2.1668  0.2474
16199TIP3   OH270011   4.804   5.470  14.453  0.0959  0.0196  0.4075
16199TIP3    H170012   4.712   5.445  14.444  0.1516 -0.5622  1.3509
16199TIP3    H270013   4.807   5.561  14.423 -0.7249 -0.0557  0.0793
16200TIP3   OH270014   3.182   4.955   0.440 -0.3531  0.4514 -0.0278
16200TIP3    H170015   3.248   5.018   0.469  0.8142  0.4718 -2.6642
16200TIP3    H270016   3.106   5.009   0.418 -0.1509  0.7079 -0.0959
16201TIP3   OH270017   4.730   6.331  14.255 -0.3768  0.1363 -0.1303
16201TIP3    H170018   4.719   6.423  14.231  1.8342  0.4774  0.1119
16201TIP3    H270019   4.781   6.333  14.336 -0.7027 -1.2901  0.1268
16202TIP3   OH270020   3.116   3.538  12.630 -0.1381 -0.2315  0.3792
16202TIP3    H170021   3.087   3.446  12.626  0.3595 -0.4300  1.2654
16202TIP3    H270022   3.057   3.584  12.570 -0.6711 -1.0621  0.2536
16203TIP3   OH270023   3.061   0.797  14.431 -0.3304 -0.3371 -0.4351
16203TIP3    H170024   2.975   0.836  14.416 -1.1213 -1.6342  0.6716
16203TIP3    H270025   3.053   0.707  14.402  0.1497 -0.9366  1.2027
16204TIP3   OH270026   3.392   0.805   1.684 -0.3909 -0.1311  0.3079
16204TIP3    H170027   3.377   0.864   1.610  0.0114 -0.3624  0.0449
16204TIP3    H270028   3.414   0.721   1.645  0.9337  0.0302  0.6909
16205TIP3   OH270029   2.478   2.348   0.549  0.2243 -0.8985 -0.8185
16205TIP3    H170030   2.410   2.405   0.584  0.0190 -1.6792  0.0520
16205TIP3    H270031   2.523   2.402   0.484  0.4176  0.4353  0.4261
16206TIP3   OH270032   4.863   2.383  14.615 -0.4939  0.0641  0.6109
16206TIP3    H170033   4.892   2.441  14.685  1.0475  0.5308 -0.3822
16206TIP3    H270034   4.944   2.358  14.569 -1.2581 -1.9077  0.2879
16207TIP3   OH270035   2.244   5.809   4.837  0.0834  0.1421 -0.1162
16207TIP3    H170036   2.211   5.748   4.903 -1.4522  1.7911  0.6905
16207TIP3    H270037   2.316   5.855   4.881  0.7844 -0.5661 -0.4954
16208TIP3   OH270038   5.124   0.814   5.218 -0.0236 -0.0313  0.3949
16208TIP3    H170039   5.066   0.879   5.178  0.2520  0.5636  0.9528
16208TIP3    H270040   5.084   0.729   5.195  0.0559  0.3003 -0.9972
16209TIP3   OH270041   4.692   3.069  11.292 -0.2213 -0.4658 -0.1242
16209TIP3    H170042   4.673   3.155  11.255  0.2592 -0.1260  0.4159
16209TIP3    H270043   4.787   3.060  11.284 -0.2994 -1.0591 -0.4271
16210TIP3   OH270044   2.526   4.847  13.615 -0.0430 -0.1073  0.4128
16210TIP3    H170045   2.514   4.923  13.558  1.3303 -1.8496 -2.3553
16210TIP3    H270046   2.619   4.826  13.607  0.0290 -0.8381  2.8058
16211TIP3   OH270047   0.040   4.234   4.197  0.3520 -0.3347  0.3347
16211TIP3    H170048  -0.053   4.234   4.173  0.7633  0.7844 -1.3209
16211TIP3    H270049   0.053   4.149   4.240 -1.5099 -0.3449  0.9511
16212TIP3   OH270050   1.848   4.788   4.807  0.5954  0.3609 -0.1374
16212TIP3    H170051   1.826   4.809   4.717 -1.9576  1.1713  0.6151
16212TIP3    H270052   1.939   4.814   4.817  0.3141  2.1038 -1.9234
16213TIP3   OH270053   2.474   5.903  16.128 -0.3428 -0.4908  0.1741
16213TIP3    H170054   2.455   5.958  16.204 -0.4860 -0.5815  0.2066
16213TIP3    H270055   2.514   5.962  16.064 -0.5298 -0.3414  0.1944
16214TIP3   OH270056   1.508   5.113  15.574  0.1734  0.5974  0.1216
16214TIP3    H170057   1.587   5.069  15.543  0.3683  0.7101  0.4663
16214TIP3    H270058   1.532   5.206  15.578  0.8657  0.3284  2.8543
16215TIP3   OH270059   5.032   5.326  14.361  0.2652 -0.3107 -0.1280
16215TIP3    H170060   5.103   5.370  14.407  0.6564 -1.7708  0.7111
16215TIP3    H270061   4.952   5.364  14.398  0.6062  0.7179 -0.4540
16216TIP3   OH270062   0.100   2.366   4.086  0.6885  0.1451  0.4556
16216TIP3    H170063   0.042   2.416   4.029 -3.3106 -0.9606  3.3429
16216TIP3    H270064   0.128   2.291   4.033 -1.7150 -0.0644 -0.5629
16217TIP3   OH270065   6.480   5.351  12.182  0.0761  0.4746 -0.1146
16217TIP3    H170066   6.388   5.325  12.191  0.4816 -0.5407  1.2699
16217TIP3    H270067   6.501   5.394  12.265  0.9557  0.4012 -0.2983
16218TIP3   OH270068   4.831   5.004   0.657 -0.3838  0.5525 -0.3383
16218TIP3    H170069   4.807   4.936   0.720 -1.2644  0.3969 -0.8295
16218TIP3    H270070   4.927   4.999   0.651 -0.4685 -0.9329 -0.6816
16219TIP3   OH270071   0.058   6.653  16.258  0.3970  0.0508  0.4788
16219TIP3    H170072   0.018   6.623  16.340  0.8270 -0.5552  0.4697
16219TIP3    H270073  -0.015   6.653  16.196  0.3435 -0.7882  0.5326
16220TIP3   OH270074   0.907   2.118  11.572  0.0037  0.3625 -0.0624
16220TIP3    H170075   0.920   2.186  11.506  0.2133  0.3778 -0.0074
16220TIP3    H270076   0.967   2.142  11.643 -1.0868  1.0033  0.6481
16221TIP3   OH270077   0.648   5.008  12.707 -0.3559 -0.3663 -0.8362
16221TIP3    H170078   0.677   5.096  12.685 -0.0860 -0.5973 -1.4117
16221TIP3    H270079   0.718   4.951  12.676  0.0136 -0.7057  0.5768
16222TIP3   OH270080   6.581   2.470   2.768  0.1780  0.9149  0.2477
16222TIP3    H170081   6.648   2.403   2.752 -0.2957  0.4708  0.1187
16222TIP3    H270082   6.630   2.547   2.797  0.9384  1.2910 -1.9098
16223TIP3   OH270083   1.711   5.697   4.399  0.0019 -0.0139  0.0735
16223TIP3    H170084   1.775   5.626   4.410  0.0393  0.0612  0.3311
16223TIP3    H270085   1.655   5.691   4.476 -0.5090 -0.2870 -0.3104
16224TIP3   OH270086   5.248   5.364   2.601  0.8512 -0.1135 -0.1801
16224TIP3    H170087   5.283   5.407   2.679 -1.6054  0.4916  0.6308
16224TIP3    H270088   5.257   5.429   2.532 -1.8205  1.3660  0.7960
16225TIP3   OH270089   1.808   4.433   6.128  0.5837 -0.5594 -0.6794
16225TIP3    H170090   1.823   4.433   6.033  0.7294  1.0869 -0.6581
16225TIP3    H270091   1.736   4.371   6.141  2.1432 -2.6607 -1.6019
16226TIP3   OH270092   1.430   0.569  12.890 -0.1735 -0.1424  0.0421
16226TIP3    H170093   1.476   0.521  12.822 -0.6752 -0.6918  0.0819
16226TIP3    H270094   1.405   0.502  12.954 -0.0336  0.3144  0.5793
16227TIP3   OH270095   3.035   3.594   2.932 -0.5563  0.2173 -0.5396
16227TIP3    H170096   3.081   3.583   2.849 -0.2370 -0.3129 -0.2958
16227TIP3    H270097   2.982   3.514   2.941  0.2722 -0.2430  0.3045
16228TIP3   OH270098   4.240   5.813  14.553 -0.4968 -0.6616 -0.0618
16228TIP3    H170099   4.268   5.729  14.589  1.8934 -1.1649 -2.9420
16228TIP3    H270100   4.320   5.855  14.524 -1.8854  1.6675 -0.6587
16229TIP3   OH270101   6.756   2.356   0.911  0.1895  0.2033 -0.6343
16229TIP3    H170102   6.693   2.375   0.842  1.0266 -0.5903 -1.6397
16229TIP3    H270103   6.771   2.261   0.904  1.3511  0.3558 -0.3160
16230TIP3   OH270104   3.057   5.954  14.819 -0.5810  0.4181 -0.5311
16230TIP3    H170105   2.989   5.944  14.752 -0.3188  3.3930 -1.3447
16230TIP3    H270106   3.029   5.899  14.891 -0.2125 -4.0071 -3.5367
16231TIP3   OH270107   2.684   3.478  14.953  0.3779 -0.3381 -0.2406
16231TIP3    H170108   2.660   3.501  15.043 -1.0172  1.3102 -0.9964
16231TIP3    H270109   2.749   3.409  14.963  0.4150 -0.0362  2.0406
16232TIP3   OH270110   1.015   4.101   0.926 -0.3774 -0.0655 -0.0989
16232TIP3    H170111   0.955   4.089   0.852 -2.4742  1.2748  1.3313
16232TIP3    H270112   1.093   4.141   0.889 -0.8490 -0.6994 -1.7963
16233TIP3   OH270113   6.480   3.621  14.652  0.3483 -0.0424 -0.0229
16233TIP3    H170114   6.504   3.584  14.737  2.3851  0.4572 -0.3566
16233TIP3    H270115   6.495   3.715  14.661  1.4179 -0.0960 -1.2145
16234TIP3   OH270116   6.116   3.784  11.539  0.1132  0.1032  0.1921
16234TIP3    H170117   6.120   3.715  11.605 -0.7887 -0.5189 -0.3896
16234TIP3    H270118   6.112   3.865  11.590 -0.1349 -0.3458  0.8991
16235TIP3   OH270119   5.794   1.288  15.829 -0.6654  0.5011  0.5975
16235TIP3    H170120   5.866   1.308  15.889  1.1402  0.6377 -1.5522
16235TIP3    H270121   5.769   1.372  15.791 -1.7893  0.4124  1.0944
16236TIP3   OH270122   3.979   1.297  17.149  0.3341 -0.1231  0.1643
16236TIP3    H170123   3.943   1.368  17.097  3.3365  1.6412  0.3636
16236TIP3    H270124   3.975   1.221  17.091 -2.2855  0.3007 -0.2904
16237TIP3   OH270125   2.361   3.592  15.597  0.2956  0.0000 -0.1424
16237TIP3    H170126   2.270   3.611  15.621 -0.1270 -1.2586 -0.7058
16237TIP3    H270127   2.387   3.664  15.540 -0.5578  0.0380 -0.4834
16238TIP3   OH270128   0.184   0.749  11.264 -0.2968 -0.0908 -0.4270
16238TIP3    H170129   0.191   0.684  11.195 -0.6991 -1.7349  1.0504
16238TIP3    H270130   0.116   0.810  11.234  1.0685  0.4862 -2.4545
16239TIP3   OH270131   1.601   4.602   0.951  0.1472 -0.3858 -0.1552
16239TIP3    H170132   1.670   4.653   0.994 -0.2047  0.7621 -0.9331
16239TIP3    H270133   1.526   4.607   1.010 -0.0983  0.5630 -0.5422
16240TIP3   OH270134   4.518   1.888   4.089 -0.3351 -0.5512 -0.0446
16240TIP3    H170135   4.521   1.829   4.165  0.5364 -0.5683 -0.0862
16240TIP3    H270136   4.483   1.834   4.018 -0.1365 -0.8452  0.0782
16241TIP3   OH270137   1.766   1.335  12.343  0.7697 -0.2403 -0.7985
16241TIP3    H170138   1.741   1.402  12.280 -4.1138  0.5130  1.6660
16241TIP3    H270139   1.774   1.382  12.427 -0.2248 -2.2310  0.4697
16242TIP3   OH270140   1.880   2.469  15.797  0.1565 -0.0945  0.0354
16242TIP3    H170141   1.930   2.543  15.833 -0.4017 -0.0299  0.6740
16242TIP3    H270142   1.919   2.392  15.838 -0.8260  0.0169  1.1858
16243TIP3   OH270143   3.946   1.359  15.104  0.0185  0.0845  0.1725
16243TIP3    H170144   3.995   1.408  15.170  1.0729 -0.7765  0.0334
16243TIP3    H270145   3.906   1.287  15.153  1.3009 -0.9108 -0.2129
16244TIP3   OH270146   3.201   6.002   3.011  0.7890 -0.0725 -0.2883
16244TIP3    H170147   3.275   5.944   3.030 -0.0076 -0.5716  1.3767
16244TIP3    H270148   3.125   5.955   3.044 -0.3876  0.0731 -2.7487
16245TIP3   OH270149   1.544   0.924   3.170  0.3729  0.0327  0.2144
16245TIP3    H170150   1.510   0.959   3.252 -1.3829 -0.4857 -0.2853
16245TIP3    H270151   1.604   0.854   3.197 -1.4302 -1.2141  1.0170
16246TIP3   OH270152   4.320   4.047  11.657  0.0904  0.8540 -0.0104
16246TIP3    H170153   4.271   3.965  11.660  0.4719  0.5727 -1.4526
16246TIP3    H270154   4.276   4.103  11.722  1.2104 -1.2167  2.6369
16247TIP3   OH270155   3.624   4.074  12.165  0.2606  0.6427  0.0288
16247TIP3    H170156   3.701   4.051  12.216  0.9349  1.2398 -0.7078
16247TIP3    H270157   3.559   4.101  12.229  0.4200 -0.5394  0.7023
16248TIP3   OH270158   4.424   0.384   1.319  0.2761 -0.4455  0.4037
16248TIP3    H170159   4.425   0.340   1.404  1.7992 -0.5006  0.3575
16248TIP3    H270160   4.333   0.375   1.289  0.4051 -2.9439  0.6910
16249TIP3   OH270161   1.608   0.447  11.546 -0.0634  0.4900 -0.3249
16249TIP3    H170162   1.537   0.384  11.556 -0.2169  0.6490 -0.4149
16249TIP3    H270163   1.666   0.408  11.482 -2.0461  2.1124 -3.2420
16250TIP3   OH270164   0.367   4.888  12.473 -0.0692  0.2928  0.1358
16250TIP3    H170165   0.283   4.843  12.465  0.3544 -0.4368 -0.2711
16250TIP3    H270166   0.376   4.905  12.567 -0.4322 -0.0658  0.2376
16251TIP3   OH270167   0.672   4.540   2.204 -0.4094  0.0199  0.0577
16251TIP3    H170168   0.749   4.483   2.207 -1.3376 -1.2237  0.7326
16251TIP3    H270169   0.638   4.539   2.294 -1.6925 -0.1096 -0.4167
16252TIP3   OH270170   0.149   1.870   6.012  0.6502 -0.0167  0.1812
16252TIP3    H170171   0.195   1.919   6.080 -0.4098  2.0711 -0.5449
16252TIP3    H270172   0.056   1.889   6.028  0.3315 -0.3283 -1.2039
16253TIP3   OH270173   6.603   5.260   5.543  0.0470 -0.1493 -0.1249
16253TIP3    H170174   6.686   5.308   5.539 -0.1606  0.2017 -0.2752
16253TIP3    H270175   6.545   5.316   5.594 -1.2347  1.3798 -3.1209
16254TIP3   OH270176   1.577   5.902   1.986  0.2456  0.2118 -0.7538
16254TIP3    H170177   1.511   5.849   2.031 -0.2248 -0.7293 -2.4839
16254TIP3    H270178   1.544   5.992   1.992 -0.8478 -0.1611 -0.9566
16255TIP3   OH270179   0.917   5.634  16.554  0.1040 -0.5728 -0.0385
16255TIP3    H170180   0.957   5.682  16.482 -0.2295 -1.3134 -0.7372
16255TIP3    H270181   0.856   5.696  16.594  1.7576  0.4749  0.8801
16256TIP3   OH270182   1.502   2.247   5.233 -0.8718  0.5526 -0.2327
16256TIP3    H170183   1.417   2.220   5.199 -1.6461  0.7648  1.4941
16256TIP3    H270184   1.484   2.325   5.285 -0.0255 -0.7205  2.0620
16257TIP3   OH270185   5.066   5.145  14.175  0.4142 -0.0248 -0.0318
16257TIP3    H170186   5.060   5.205  14.249 -1.6893 -0.8540  0.5007
16257TIP3    H270187   5.010   5.184  14.108  0.6974 -0.3306 -0.4513
16258TIP3   OH270188   2.030   0.252  12.120  0.2309 -0.3249  0.2027
16258TIP3    H170189   1.962   0.318  12.119  2.0879  1.6186 -0.8802
16258TIP3    H270190   2.004   0.189  12.053 -0.2744  0.6308 -0.5030
16259TIP3   OH270191   4.922   3.707  13.118  0.1429  0.3821 -0.0995
16259TIP3    H170192   4.975   3.783  13.092  2.0123 -0.6856  0.4892
16259TIP3    H270193   4.939   3.697  13.211 -1.5296  0.3263  0.2057
16260TIP3   OH270194   1.124   0.858   2.191 -0.1814  0.2764  0.3724
16260TIP3    H170195   1.041   0.811   2.190 -0.3044  0.4669  1.0776
16260TIP3    H270196   1.118   0.919   2.118 -0.1726 -0.5449 -0.3197
16261TIP3   OH270197   4.390   6.385  13.220 -0.1543 -0.5034  0.6239
16261TIP3    H170198   4.360   6.396  13.310 -0.8144  0.0702  0.3440
16261TIP3    H270199   4.382   6.473  13.181  0.5682 -0.6469  0.1438
16262TIP3   OH270200   2.313   2.089   5.906  0.1677  0.0743  0.0374
16262TIP3    H170201   2.300   2.158   5.841  1.3530  0.4562  0.2093
16262TIP3    H270202   2.237   2.097   5.964  0.3538  1.2866  0.1128
16263TIP3   OH270203   3.468   3.267   4.990 -0.7266  0.4183 -0.1067
16263TIP3    H170204   3.518   3.339   5.028  0.3360  0.8934 -2.2955
16263TIP3    H270205   3.402   3.309   4.935 -2.0275 -0.2517  0.9015
16264TIP3   OH270206   0.337   5.863  11.976 -0.4640  0.2963 -0.2209
16264TIP3    H170207   0.336   5.955  12.003  1.3359  0.6811 -1.3945
16264TIP3    H270208   0.326   5.814  12.057 -1.9406  1.5424  0.3632
16265TIP3   OH270209   4.173   4.720   1.169 -0.1253  0.1069 -0.3741
16265TIP3    H170210   4.079   4.707   1.183 -0.3173  0.6371 -1.1715
16265TIP3    H270211   4.204   4.755   1.252 -0.9360  1.5232 -0.6542
16266TIP3   OH270212   1.422   2.414  16.073 -0.0979 -0.1508  0.1195
16266TIP3    H170213   1.455   2.368  16.151 -1.0214  1.5625  1.5484
16266TIP3    H270214   1.491   2.477  16.052 -0.2929  0.0628  0.1307
16267TIP3   OH270215   3.578   6.453  14.867 -0.5593 -0.7239 -0.4005
16267TIP3    H170216   3.544   6.409  14.789  0.7664  0.1321 -1.4925
16267TIP3    H270217   3.666   6.479  14.842 -0.0637 -0.5721  1.4637
16268TIP3   OH270218   6.378   1.919  11.389  0.4828  0.1883 -0.2067
16268TIP3    H170219   6.435   1.857  11.435  1.1946 -0.4090 -1.8573
16268TIP3    H270220   6.293   1.876  11.385 -0.2118  1.2453  2.6161
16269TIP3   OH270221   1.676   5.103  11.757 -0.5316 -0.4249 -0.1986
16269TIP3    H170222   1.628   5.024  11.785 -1.2295 -0.2865 -0.9871
16269TIP3    H270223   1.608   5.161  11.722 -0.3172  1.3704  2.2108
16270TIP3   OH270224   2.734   2.821   2.512  0.8242  0.1275  0.0238
16270TIP3    H170225   2.665   2.886   2.499  1.1385  0.5952  0.6174
16270TIP3    H270226   2.806   2.852   2.457  1.1570  0.5673  0.7025
16271TIP3   OH270227   3.741   4.854  12.075  0.0336  0.0727 -0.6655
16271TIP3    H170228   3.650   4.828  12.062  0.1516 -0.2544 -0.8753
16271TIP3    H270229   3.773   4.874  11.987  0.5400 -1.1094 -0.7693
16272TIP3   OH270230   3.815   4.170   0.403  0.0933  0.1964  0.1639
16272TIP3    H170231   3.804   4.188   0.496 -3.0059  1.2864 -0.3415
16272TIP3    H270232   3.869   4.242   0.371  0.9692 -0.0496  1.0740
16273TIP3   OH270233   5.307   5.339   0.253 -0.0897 -0.2121 -0.0690
16273TIP3    H170234   5.233   5.392   0.224 -0.7166 -0.3210  1.3103
16273TIP3    H270235   5.269   5.255   0.277  0.6521 -0.6800 -0.5174
16274TIP3   OH270236   5.885   5.592   2.062 -0.0882  0.2619  0.8829
16274TIP3    H170237   5.953   5.568   1.999 -0.4100 -1.4994  1.1802
16274TIP3    H270238   5.843   5.509   2.086  0.4136  0.8120  3.8863
16275TIP3   OH270239   0.139   5.242   4.358 -0.2054 -0.2337  0.4680
16275TIP3    H170240   0.202   5.218   4.291 -2.4717  1.2908 -2.2915
16275TIP3    H270241   0.104   5.158   4.389 -0.3107 -0.9171 -1.4241
16276TIP3   OH270242   2.109   0.997   1.946 -0.2800 -0.1616  0.4786
16276TIP3    H170243   2.113   1.092   1.960  0.2734 -0.1568  0.2602
16276TIP3    H270244   2.074   0.987   1.858 -0.7195 -0.1688  0.6490
16277TIP3   OH270245   3.635   1.381  14.420  0.1159 -0.7134 -0.2919
16277TIP3    H170246   3.701   1.426  14.471 -0.7700 -0.4834  0.6685
16277TIP3    H270247   3.675   1.297  14.397  1.6102  0.3765 -1.7417
16278TIP3   OH270248   6.085   4.898   0.047  0.2158 -0.0734  0.2191
16278TIP3    H170249   6.064   4.991   0.039 -0.1876 -0.0898  1.0277
16278TIP3    H270250   6.180   4.896   0.056  0.1072  0.3510  1.4833
16279TIP3   OH270251   0.144   1.698   2.990  0.1547 -0.2144 -0.2957
16279TIP3    H170252   0.074   1.740   3.041  0.8891  0.3457  0.2505
16279TIP3    H270253   0.108   1.612   2.967 -0.2505 -0.4037  1.0178
16280TIP3   OH270254   4.562   0.037   2.527  0.0009 -0.1381 -0.0167
16280TIP3    H170255   4.606   0.096   2.588  1.1989  0.9905 -1.8992
16280TIP3    H270256   4.472   0.031   2.559  1.0116 -0.9727  2.8180
16281TIP3   OH270257   5.516   0.042   5.732  0.2288  0.0449  0.3863
16281TIP3    H170258   5.438  -0.003   5.764 -0.1251  1.5719  1.7232
16281TIP3    H270259   5.574   0.046   5.808  1.2584 -0.3020 -0.3719
16282TIP3   OH270260   6.427   3.488  13.815 -0.3908  0.0726  0.5146
16282TIP3    H170261   6.415   3.441  13.897 -0.4530  1.1061  1.1047
16282TIP3    H270262   6.479   3.565  13.838 -0.0776  0.1650 -0.4801
16283TIP3   OH270263   0.592   3.219   4.072 -0.0061 -0.5347 -0.0180
16283TIP3    H170264   0.580   3.201   3.979 -1.2518  0.6016 -0.1024
16283TIP3    H270265   0.675   3.265   4.077 -0.4322  0.3333 -0.7208
16284TIP3   OH270266   2.870   2.403   3.674 -0.4941 -0.2525 -0.2045
16284TIP3    H170267   2.884   2.308   3.670 -0.0787 -0.3214  2.0230
16284TIP3    H270268   2.815   2.416   3.752 -0.3460  1.3497 -0.3435
16285TIP3   OH270269   4.411   4.268   4.494 -0.1100 -0.8979 -0.3572
16285TIP3    H170270   4.325   4.308   4.480  0.2706 -0.2278 -0.7966
16285TIP3    H270271   4.421   4.265   4.589  0.3219  1.0958 -0.3139
16286TIP3   OH270272   4.780   1.621   4.117  0.5646 -0.3215  0.1888
16286TIP3    H170273   4.728   1.616   4.037 -0.1486  0.1885  0.6145
16286TIP3    H270274   4.809   1.531   4.132  0.6163 -0.4391 -0.5851
16287TIP3   OH270275   1.766   5.377  16.275  0.4484 -0.3529  0.9002
16287TIP3    H170276   1.710   5.299  16.281  0.2404 -0.1365  1.7837
16287TIP3    H270277   1.846   5.345  16.232  0.3772 -1.0619  1.2779
16288TIP3   OH270278   3.043   0.992   1.104 -0.7014  0.1101 -0.0507
16288TIP3    H170279   3.088   1.062   1.057 -0.2749  0.0349  0.2453
16288TIP3    H270280   2.993   0.946   1.037 -0.9867  0.6964 -0.2517
16289TIP3   OH270281   2.653   0.289   3.051 -0.3675  0.4051  0.3868
16289TIP3    H170282   2.620   0.271   3.139 -0.6583 -0.2545  0.1462
16289TIP3    H270283   2.631   0.211   3.000 -1.4832  1.3566 -0.6315
16290TIP3   OH270284   4.013   5.302  14.260  0.0307 -0.4972  0.4989
16290TIP3    H170285   3.969   5.307  14.176 -0.0481  2.1235  0.6407
16290TIP3    H270286   3.943   5.297  14.324 -0.0683  1.7381  0.6119
16291TIP3   OH270287   2.689   1.020   5.422 -0.2085  0.1611  0.2901
16291TIP3    H170288   2.661   1.107   5.391  2.1032  0.7479 -0.2682
16291TIP3    H270289   2.690   1.028   5.517 -0.2492  0.6961  0.2490
16292TIP3   OH270290   3.413   0.335  12.772  0.3381 -0.5607 -0.3715
16292TIP3    H170291   3.460   0.307  12.693  1.3409 -2.3662  0.8351
16292TIP3    H270292   3.340   0.273  12.780  0.7775 -0.9642  0.6182
16293TIP3   OH270293   5.051   3.420  17.204  0.1662  0.0854  0.1810
16293TIP3    H170294   4.995   3.410  17.128 -0.3507 -1.5436  0.7433
16293TIP3    H270295   5.090   3.333  17.217  0.9498  0.5751  1.2143
16294TIP3   OH270296   2.945   1.170  14.768  0.3343  0.0462  0.3037
16294TIP3    H170297   3.023   1.213  14.732  0.3245 -0.3904 -0.2449
16294TIP3    H270298   2.954   1.078  14.742 -0.6130  0.0864 -0.2016
16295TIP3   OH270299   1.166   5.972   0.200 -0.0037 -0.3752 -0.1457
16295TIP3    H170300   1.137   6.058   0.231 -0.7795 -0.1570 -1.4372
16295TIP3    H270301   1.205   5.931   0.277 -0.5481  0.7314  0.7443
16296TIP3   OH270302   3.860   4.398   0.161 -0.0825  0.0612  0.8028
16296TIP3    H170303   3.837   4.326   0.101  0.6036 -0.1375  0.7730
16296TIP3    H270304   3.813   4.474   0.126  2.0245  0.4584 -1.3075
16297TIP3   OH270305   4.444   6.075   4.784  0.0515  1.0700 -0.7429
16297TIP3    H170306   4.509   6.018   4.826 -1.8691 -0.8500 -0.2925
16297TIP3    H270307   4.488   6.160   4.776  2.7242 -0.2732 -0.7594
16298TIP3   OH270308   5.123   6.498  17.206  0.0180  0.2723 -0.2901
16298TIP3    H170309   5.093   6.585  17.235  3.0403  1.3889 -0.2900
16298TIP3    H270310   5.042   6.449  17.189 -1.7817  2.3837  1.7692
16299TIP3   OH270311   5.086   2.580   2.546  0.1906  0.0442  0.2145
16299TIP3    H170312   4.999   2.581   2.586 -0.1336  2.3100 -0.5377
16299TIP3    H270313   5.100   2.488   2.522 -2.9063  0.0114 -1.6873
16300TIP3   OH270314   0.149   5.812  13.315 -0.0143 -0.1043  0.3132
16300TIP3    H170315   0.237   5.808  13.279 -0.0118 -1.7990  0.4654
16300TIP3    H270316   0.154   5.763  13.397 -1.3698 -1.2613 -0.2801
16301TIP3   OH270317   2.728   6.176  14.749 -0.0803 -0.1173 -0.0481
16301TIP3    H170318   2.640   6.180  14.711 -0.2380  2.4519  0.4888
16301TIP3    H270319   2.725   6.101  14.808 -1.7287 -0.4316 -0.5006
16302TIP3   OH270320   0.804   2.332  13.806  0.3955 -0.2722 -0.0521
16302TIP3    H170321   0.821   2.402  13.869  0.4996 -0.5906  0.2737
16302TIP3    H270322   0.747   2.373  13.740  1.3196  0.4225 -0.4431
16303TIP3   OH270323   1.064   6.678  14.368 -0.3146  0.1793  0.1337
16303TIP3    H170324   0.978   6.701  14.332 -0.5827  1.1961  1.3842
16303TIP3    H270325   1.107   6.762  14.382  0.5723 -0.2921  0.2715
16304TIP3   OH270326   0.981   2.477  14.492 -0.1687 -0.3572 -0.2251
16304TIP3    H170327   0.974   2.531  14.570 -1.9988  1.0521 -1.3153
16304TIP3    H270328   1.075   2.471  14.475  0.0972  2.5348 -0.0952
16305TIP3   OH270329   1.619   4.625  12.633 -0.0079  0.0787 -0.2933
16305TIP3    H170330   1.685   4.648  12.568  0.0785 -0.0596 -0.2532
16305TIP3    H270331   1.662   4.564  12.691  1.1388  3.0606  2.1349
16306TIP3   OH270332   5.824   2.529  13.949 -0.4792 -0.4730 -0.3848
16306TIP3    H170333   5.781   2.465  14.006 -2.4766 -0.0079 -1.3368
16306TIP3    H270334   5.863   2.476  13.880 -0.1493 -0.8438  0.0774
16307TIP3   OH270335   2.228   2.507  16.804  1.0979  0.3712  0.2214
16307TIP3    H170336   2.299   2.444  16.817 -0.4246 -1.3903  0.2273
16307TIP3    H270337   2.232   2.530  16.711  0.7014 -0.9385 -0.1320
16308TIP3   OH270338   2.969   1.719  11.725 -0.3218 -0.1172  0.1112
16308TIP3    H170339   3.037   1.665  11.763  0.0778  1.9597  2.4492
16308TIP3    H270340   2.892   1.662  11.720  1.0734 -1.9670 -1.0007
16309TIP3   OH270341   3.102   3.485   1.068  0.2326  0.2156  0.3047
16309TIP3    H170342   3.047   3.475   0.991  0.6524  0.6950 -0.0601
16309TIP3    H270343   3.188   3.454   1.040  0.8050  1.9703  0.0637
16310TIP3   OH270344   1.251   2.168   4.852  0.2823  0.4173  0.2297
16310TIP3    H170345   1.163   2.196   4.827  0.7125  0.9758 -0.6807
16310TIP3    H270346   1.248   2.162   4.947 -0.8960 -0.0927  0.1775
16311TIP3   OH270347   1.779   5.550  12.977  0.1100  0.4197  0.1628
16311TIP3    H170348   1.772   5.645  12.967 -1.5032  0.4410  1.2350
16311TIP3    H270349   1.873   5.533  12.986  0.2047  2.3217  3.3759
16312TIP3   OH270350   5.915   4.672  15.405 -0.2062  0.3796 -0.6439
16312TIP3    H170351   5.986   4.734  15.390 -0.9808  1.7259  0.9894
16312TIP3    H270352   5.864   4.672  15.324  1.4759 -0.3752 -1.7072
16313TIP3   OH270353   5.895   0.964  10.468 -0.4012 -0.0466  0.2867
16313TIP3    H170354   5.844   0.891  10.506 -2.0660  0.7187 -0.4149
16313TIP3    H270355   5.892   1.032  10.535 -0.0076 -0.1205  0.3805
16314TIP3   OH270356   4.094   0.527   3.432 -0.0360 -0.2094 -0.1510
16314TIP3    H170357   4.154   0.509   3.359  0.7532  0.4882  0.3137
16314TIP3    H270358   4.092   0.445   3.481 -1.2506 -0.9692 -1.4207
16315TIP3   OH270359   1.727   5.567   5.641  0.1762 -0.1160  0.2782
16315TIP3    H170360   1.743   5.493   5.583 -3.1557  0.0592 -0.9806
16315TIP3    H270361   1.723   5.528   5.729  2.4741 -0.7991  0.0950
16316TIP3   OH270362   0.901   3.611  11.017  0.5726 -0.1508 -0.3976
16316TIP3    H170363   0.886   3.618  10.922  0.0534  0.0765 -0.2975
16316TIP3    H270364   0.841   3.542  11.045 -0.7994  1.2180  0.1130
16317TIP3   OH270365   0.471   6.639  14.083  0.0421 -0.2476  0.2368
16317TIP3    H170366   0.566   6.641  14.081  0.0444  0.4098  0.6549
16317TIP3    H270367   0.449   6.626  14.176 -0.2745  0.3204  0.2465
16318TIP3   OH270368   4.372   6.315  12.788 -0.1831 -0.1322 -0.0830
16318TIP3    H170369   4.390   6.404  12.817  0.1316 -0.3678  0.4690
16318TIP3    H270370   4.453   6.267  12.806  0.6390  0.0794 -2.9363
16319TIP3   OH270371   3.373   2.007  13.496 -0.6357  0.4773 -0.0498
16319TIP3    H170372   3.338   1.931  13.449  0.3390  1.0110 -1.6745
16319TIP3    H270373   3.303   2.031  13.558 -1.3762 -1.0842 -0.2509
16320TIP3   OH270374   4.095   3.479  16.320 -0.0094 -0.9811 -0.0382
16320TIP3    H170375   4.114   3.481  16.226 -0.7237  3.2340 -0.2202
16320TIP3    H270376   4.181   3.488  16.362 -0.0018  1.3667 -0.4639
16321TIP3   OH270377   0.896   2.525   5.933  0.5124  0.9338 -0.8454
16321TIP3    H170378   0.861   2.556   6.017 -0.0325 -0.0488 -0.7012
16321TIP3    H270379   0.842   2.569   5.867 -1.1871 -0.7815 -0.6167
16322TIP3   OH270380   5.166   3.590   3.505  0.2654  0.3900 -0.0020
16322TIP3    H170381   5.179   3.499   3.532 -2.5545 -0.1906 -0.5135
16322TIP3    H270382   5.198   3.594   3.415 -3.0543 -1.0545 -1.3035
16323TIP3   OH270383   1.054   6.370   6.616  1.0994  0.2540 -0.6537
16323TIP3    H170384   0.966   6.346   6.586  0.4269 -0.4599  1.8032
16323TIP3    H270385   1.079   6.443   6.560  0.0928 -1.3242 -3.2660
16324TIP3   OH270386   3.019   0.587  15.569 -0.3915 -0.1408 -0.2929
16324TIP3    H170387   3.115   0.593  15.571 -0.3463 -1.0663  0.4780
16324TIP3    H270388   3.001   0.494  15.571 -1.3204  0.0423  0.0054
16325TIP3   OH270389   4.883   4.324   2.406  0.2497 -0.2400 -0.0093
16325TIP3    H170390   4.956   4.336   2.467  2.0721  1.1845 -2.3566
16325TIP3    H270391   4.807   4.359   2.451  1.1016 -1.3085  2.3114
16326TIP3   OH270392   3.632   5.190   6.137 -0.2549  0.2897  0.3911
16326TIP3    H170393   3.668   5.102   6.145 -1.0968 -0.2221 -1.4430
16326TIP3    H270394   3.605   5.213   6.227 -1.4280 -1.9069  0.6336
16327TIP3   OH270395   1.533   5.680  15.269  0.7477 -0.1538 -0.9194
16327TIP3    H170396   1.493   5.675  15.355  2.1257  0.2211 -0.2522
16327TIP3    H270397   1.483   5.619  15.215  1.2381 -1.9849  0.6832
16328TIP3   OH270398   3.109   2.794  12.473  0.1181  0.7001 -0.6942
16328TIP3    H170399   3.029   2.820  12.519  0.1707 -0.3908  0.0299
16328TIP3    H270400   3.164   2.872  12.475 -0.5732  1.1826 -0.4116
16329TIP3   OH270401   0.077   2.303   3.377  0.0845  0.1972 -0.0628
16329TIP3    H170402   0.058   2.214   3.405  0.3837 -0.4227 -1.7802
16329TIP3    H270403  -0.002   2.353   3.398 -0.8091 -0.8828 -0.8298
16330TIP3   OH270404   5.985   4.666   0.158 -0.0456  0.3264  0.1566
16330TIP3    H170405   6.016   4.749   0.120 -1.7181  0.4690 -0.9311
16330TIP3    H270406   5.904   4.647   0.111  0.5432 -2.1694  0.0734
16331TIP3   OH270407   2.633   1.334  12.284 -0.3193  0.2973  0.3398
16331TIP3    H170408   2.537   1.340  12.278 -0.3851 -1.1725 -0.3231
16331TIP3    H270409   2.662   1.425  12.286 -1.6388  0.7978 -1.2458
16332TIP3   OH270410   1.694   1.014  15.607  0.2462  0.4842 -0.6984
16332TIP3    H170411   1.719   0.925  15.630  0.4290  0.8270  0.5091
16332TIP3    H270412   1.756   1.069  15.656  0.4682  1.2621 -1.8342
16333TIP3   OH270413   3.262   5.254   1.254 -0.0314  0.7363  0.3597
16333TIP3    H170414   3.354   5.237   1.275  0.2175  1.6607  0.0297
16333TIP3    H270415   3.264   5.292   1.166 -0.7978  0.0543  0.0374
16334TIP3   OH270416   4.830   4.681  13.145 -0.1160  0.5225  0.2957
16334TIP3    H170417   4.853   4.632  13.223 -0.5565  0.0474  0.1268
16334TIP3    H270418   4.904   4.741  13.132  0.9859 -0.9132 -0.1787
16335TIP3   OH270419   4.482   6.766  10.922 -0.0256 -0.4082  0.0917
16335TIP3    H170420   4.427   6.698  10.883 -1.7231  1.8691 -1.5900
16335TIP3    H270421   4.421   6.837  10.943  1.8712  1.0439  0.8116
16336TIP3   OH270422   1.962   6.404   5.613 -0.3955 -0.1530  0.4545
16336TIP3    H170423   1.970   6.392   5.518 -0.8206  0.3622  0.3543
16336TIP3    H270424   2.053   6.410   5.644 -0.1479 -2.9525  0.4300
16337TIP3   OH270425   1.034   3.987  15.506 -0.3679 -0.5590  0.3772
16337TIP3    H170426   0.964   4.053  15.512 -1.5347 -1.7663  0.4060
16337TIP3    H270427   0.988   3.903  15.511  1.0274 -1.3862 -0.3213
16338TIP3   OH270428   3.835   0.813  12.486  0.5950 -0.3988 -0.1714
16338TIP3    H170429   3.884   0.734  12.510  0.3643  0.0107  1.7538
16338TIP3    H270430   3.771   0.823  12.557  0.7734  1.6387 -0.2879
16339TIP3   OH270431   3.071   2.723  14.335 -0.1094  0.0678 -0.6380
16339TIP3    H170432   3.044   2.633  14.320 -0.0673 -0.0041 -0.2879
16339TIP3    H270433   3.068   2.764  14.249  0.1686 -0.3484 -0.8472
16340TIP3   OH270434   5.596   0.597  11.978  0.1589  0.3122 -0.7182
16340TIP3    H170435   5.611   0.528  12.042 -0.1455  2.4291  1.7264
16340TIP3    H270436   5.501   0.611  11.979  0.0968  0.0219 -2.0075
16341TIP3   OH270437   3.257   1.398   1.120  0.1935 -0.1388  0.1770
16341TIP3    H170438   3.236   1.489   1.097 -0.3834  0.2032  1.9616
16341TIP3    H270439   3.350   1.399   1.142 -0.0397  0.2528  1.1924
16342TIP3   OH270440   0.787   3.949  11.181  0.1958  0.2968  0.0910
16342TIP3    H170441   0.822   4.020  11.127  0.9250  1.0916  1.5977
16342TIP3    H270442   0.748   3.888  11.117  2.6584  0.2947 -1.4906
16343TIP3   OH270443   3.298   3.711  14.534  0.2937  0.4151  0.1457
16343TIP3    H170444   3.253   3.627  14.527  0.0580  0.6342 -1.1083
16343TIP3    H270445   3.235   3.768  14.578  0.9877 -0.4260  2.3090
16344TIP3   OH270446   1.269   0.425  14.520 -0.2315 -0.4201 -0.6202
16344TIP3    H170447   1.202   0.486  14.489  1.1363  1.0466 -0.7890
16344TIP3    H270448   1.238   0.397  14.606  0.1290  2.2141  0.4238
16345TIP3   OH270449   1.924   5.214  12.416  0.2109 -0.6529 -0.2007
16345TIP3    H170450   1.954   5.260  12.494  0.8855  0.4788 -1.0994
16345TIP3    H270451   2.000   5.163  12.388 -0.1179 -1.2767  0.0407
16346TIP3   OH270452   4.939   3.364  13.689 -0.1138  0.0155 -0.2788
16346TIP3    H170453   4.940   3.273  13.718  0.7513  0.2081  0.3396
16346TIP3    H270454   4.983   3.412  13.760 -0.8009  0.9486 -0.4780
16347TIP3   OH270455   2.850   3.083   3.765  0.1052  0.2100  0.0496
16347TIP3    H170456   2.820   3.156   3.819  1.9638  0.4746  0.7974
16347TIP3    H270457   2.910   3.122   3.702  1.5949 -0.6998  0.8408
16348TIP3   OH270458   3.663   3.612   4.724 -0.8580  0.0820  0.3280
16348TIP3    H170459   3.574   3.587   4.751 -0.4530 -0.4366  1.1757
16348TIP3    H270460   3.713   3.616   4.805  0.1213 -0.5182 -0.2368
16349TIP3   OH270461   1.351   0.104   0.785 -0.1607 -0.1593 -0.3070
16349TIP3    H170462   1.442   0.096   0.814  0.5338  3.0790 -1.3407
16349TIP3    H270463   1.299   0.097   0.865  1.2686  1.4419  0.7978
16350TIP3   OH270464   5.833   0.045   5.498 -0.2913 -0.0323 -0.0786
16350TIP3    H170465   5.907   0.053   5.438 -0.4437  0.4859 -0.2003
16350TIP3    H270466   5.758   0.074   5.446 -0.3209  1.0907  0.5870
16351TIP3   OH270467   2.122   0.297   2.749  0.0746  0.0924 -0.0489
16351TIP3    H170468   2.142   0.275   2.658 -0.9498  1.8326 -0.7184
16351TIP3    H270469   2.198   0.267   2.799  1.1238  0.0980 -1.6241
16352TIP3   OH270470   2.068   4.199   5.295 -0.5489  0.6668 -0.1429
16352TIP3    H170471   2.120   4.136   5.344 -2.2510  0.3177  1.2240
16352TIP3    H270472   2.086   4.178   5.203 -0.0432 -0.9087  0.3036
16353TIP3   OH270473   0.382   2.215  15.594  0.0071 -0.1337 -0.1763
16353TIP3    H170474   0.314   2.280  15.613  1.1856  1.4418 -1.2721
16353TIP3    H270475   0.461   2.266  15.577  1.0411 -1.8657 -0.7363
16354TIP3   OH270476   4.080   2.282  16.804  0.1611 -0.3524 -0.0489
16354TIP3    H170477   4.163   2.304  16.847  0.9165 -0.4126 -1.4735
16354TIP3    H270478   4.045   2.366  16.775  0.6582 -0.5214 -1.1436
16355TIP3   OH270479   1.549   2.541   1.240  0.5114 -0.0867 -0.1971
16355TIP3    H170480   1.457   2.517   1.255  0.2013  1.4329  0.3717
16355TIP3    H270481   1.596   2.457   1.243 -0.7998 -0.8324 -0.0932
16356TIP3   OH270482   5.120   2.686  12.183 -0.0974  0.1181 -0.2955
16356TIP3    H170483   5.035   2.663  12.144  0.2770 -3.9287  1.0306
16356TIP3    H270484   5.179   2.693  12.108 -0.6141 -1.9050 -0.9326
16357TIP3   OH270485   6.581   1.567  15.725 -0.3683 -0.2480 -0.1406
16357TIP3    H170486   6.504   1.526  15.764  0.1417  0.0466  1.2100
16357TIP3    H270487   6.564   1.661  15.730 -0.4365 -0.2213 -0.9157
16358TIP3   OH270488   1.496   0.943   2.503  0.0799  0.3364 -0.5029
16358TIP3    H170489   1.436   1.005   2.462  0.2495  0.3661 -0.7044
16358TIP3    H270490   1.512   0.978   2.590  0.6958  0.9213 -0.8478
16359TIP3   OH270491   5.487   2.999   5.763 -0.3260 -0.1810  0.1868
16359TIP3    H170492   5.414   2.983   5.703 -0.3986 -2.7371  0.9063
16359TIP3    H270493   5.450   2.985   5.850  0.3625  1.2025  0.7118
16360TIP3   OH270494   6.159   5.798   4.575  0.0912  0.1137  0.1049
16360TIP3    H170495   6.145   5.850   4.654  1.2751  1.6858 -0.7006
16360TIP3    H270496   6.238   5.835   4.535  0.5893 -1.8684 -0.8426
16361TIP3   OH270497   5.432   0.538   5.278 -0.1822  0.1784 -0.2637
16361TIP3    H170498   5.371   0.466   5.261  0.2260 -0.2164 -0.0897
16361TIP3    H270499   5.518   0.502   5.254  0.1993  0.1412  1.1382
16362TIP3   OH270500   2.496   0.970  12.710 -0.7127 -0.1463 -0.4679
16362TIP3    H170501   2.569   1.010  12.758 -1.1239 -1.3223  1.1910
16362TIP3    H270502   2.491   1.020  12.628  1.8252  0.0764 -0.5350
16363TIP3   OH270503   5.023   2.404   4.167 -0.1557  0.0754  0.6103
16363TIP3    H170504   5.087   2.475   4.172 -1.3221  1.1174  1.0322
16363TIP3    H270505   4.972   2.424   4.088 -1.1107  0.2647  1.2620
16364TIP3   OH270506   4.098   3.749  15.641 -0.5324 -0.0617  0.4406
16364TIP3    H170507   4.155   3.721  15.569  0.8777  0.0719  1.4829
16364TIP3    H270508   4.090   3.671  15.697  1.8647  0.9637  2.3510
16365TIP3   OH270509   2.753   3.451   5.068  0.2566 -0.2806 -0.7385
16365TIP3    H170510   2.748   3.544   5.047 -0.6129  0.0162  0.7547
16365TIP3    H270511   2.718   3.407   4.990 -2.2221  0.7668 -0.2690
16366TIP3   OH270512   0.064   6.113  15.084 -0.5200 -0.2684  0.0237
16366TIP3    H170513   0.144   6.072  15.118 -0.1836 -0.0594 -0.5083
16366TIP3    H270514   0.012   6.133  15.162 -0.0340 -0.3643  0.3730
16367TIP3   OH270515   4.426   0.891  16.724 -0.7495 -0.2163  0.4325
16367TIP3    H170516   4.408   0.890  16.818 -0.6421 -0.6752  0.4459
16367TIP3    H270517   4.340   0.907  16.684 -0.8875 -0.5451  0.5887
16368TIP3   OH270518   3.331   6.675  15.136 -0.3116  0.1827 -0.2047
16368TIP3    H170519   3.310   6.716  15.052 -2.3447  1.6475  0.9872
16368TIP3    H270520   3.246   6.648  15.172  0.4640  0.2691  1.7401
16369TIP3   OH270521   0.812   4.407  16.003 -0.0827 -0.3414 -0.1116
16369TIP3    H170522   0.717   4.412  16.008  0.0294  0.4219  1.4589
16369TIP3    H270523   0.830   4.315  15.984 -1.1104 -0.6166  0.2221
16370TIP3   OH270524   6.444   6.715  10.909  0.0469 -0.5680  0.1294
16370TIP3    H170525   6.516   6.702  10.971  0.2007  2.6227  0.7285
16370TIP3    H270526   6.486   6.711  10.823  0.8529  0.6203  0.4532
16371TIP3   OH270527   4.462   3.574   6.019  0.7690 -0.2704 -0.1590
16371TIP3    H170528   4.512   3.558   6.099 -1.0941 -0.7959  0.9381
16371TIP3    H270529   4.414   3.655   6.037 -0.8122 -1.1979 -0.1627
16372TIP3   OH270530   5.146   4.644   2.777 -0.2324  0.6342 -0.4759
16372TIP3    H170531   5.131   4.714   2.713  0.0047  1.6658  0.5775
16372TIP3    H270532   5.088   4.666   2.850 -1.7443 -1.4484 -1.0120
16373TIP3   OH270533   5.547   3.775  14.854 -0.1787 -0.1881 -0.0686
16373TIP3    H170534   5.503   3.823  14.924 -0.3005  0.8440 -0.8480
16373TIP3    H270535   5.499   3.693  14.847 -1.7551  0.7591 -0.6409
16374TIP3   OH270536   6.748   2.137   5.470  1.0295 -0.2752 -0.0577
16374TIP3    H170537   6.738   2.179   5.385  1.3117 -1.1471 -0.5351
16374TIP3    H270538   6.691   2.060   5.466 -0.3716  0.6630  1.2253
16375TIP3   OH270539   0.516   1.223  11.692 -0.4493  0.6967 -0.0073
16375TIP3    H170540   0.604   1.208  11.657 -0.1247  2.8912 -0.2046
16375TIP3    H270541   0.523   1.306  11.739 -2.5906  1.2747 -0.6575
16376TIP3   OH270542   3.790   6.487  10.472 -0.0809 -0.4268  0.6950
16376TIP3    H170543   3.791   6.391  10.468 -0.5823 -0.4606  1.2726
16376TIP3    H270544   3.760   6.507  10.560 -0.4438  0.2657  0.4202
16377TIP3   OH270545   0.639   3.672  11.193 -0.2547  0.7883 -0.0081
16377TIP3    H170546   0.588   3.598  11.160 -1.8421  2.2255 -0.8738
16377TIP3    H270547   0.675   3.713  11.114 -0.8059  1.9220  0.3136
16378TIP3   OH270548   4.510   3.521  13.523  0.3800 -1.0223  0.4537
16378TIP3    H170549   4.422   3.523  13.562 -0.1774 -0.6149 -0.7820
16378TIP3    H270550   4.562   3.468  13.583 -0.5165 -0.6232  1.6067
16379TIP3   OH270551   1.344   0.223   3.140  0.2172 -0.3663  0.2587
16379TIP3    H170552   1.421   0.242   3.088 -1.2487 -0.3974 -2.0053
16379TIP3    H270553   1.366   0.252   3.228  2.8278 -0.4952 -0.3351
16380TIP3   OH270554   5.483   6.051   2.582 -0.0284 -0.1074  0.5139
16380TIP3    H170555   5.567   6.009   2.566  0.0690 -1.2508  3.6742
16380TIP3    H270556   5.448   6.006   2.659 -2.3127  2.1501  0.8602
16381TIP3   OH270557   5.551   1.744   4.743 -0.3788 -0.4428  0.2700
16381TIP3    H170558   5.574   1.664   4.790 -0.1803  0.1430  1.2085
16381TIP3    H270559   5.619   1.807   4.768  1.2866 -0.8678 -2.9710
16382TIP3   OH270560   6.154   2.333   2.478  0.1291 -0.2860  0.3381
16382TIP3    H170561   6.107   2.415   2.491  0.1701 -0.2125  0.0369
16382TIP3    H270562   6.091   2.276   2.434  0.3964 -0.1017 -0.3015
16383TIP3   OH270563   3.324   2.600  13.079  0.6204  0.3781 -0.7636
16383TIP3    H170564   3.403   2.639  13.040 -0.6873  0.3268 -3.5374
16383TIP3    H270565   3.281   2.673  13.123 -0.3963  1.5832 -3.6120
16384TIP3   OH270566   3.999   1.870  10.694  0.3763 -0.4159  0.0770
16384TIP3    H170567   3.915   1.866  10.739  0.4900  0.1957  0.3525
16384TIP3    H270568   3.994   1.950  10.641  0.2961 -1.0579 -0.8808
16385TIP3   OH270569   5.800   1.832  15.342  0.1256  1.1863 -0.3284
16385TIP3    H170570   5.830   1.825  15.432 -0.5584  2.0267 -0.0320
16385TIP3    H270571   5.875   1.869  15.294  0.4882  0.7343 -0.1076
16386TIP3   OH270572   2.181   5.657   0.890 -0.3390 -0.3953 -0.0368
16386TIP3    H170573   2.104   5.669   0.835 -0.7818  0.5019  0.7561
16386TIP3    H270574   2.184   5.563   0.907 -0.2998 -0.6537 -1.4379
16387TIP3   OH270575   5.819   4.436   5.721 -0.0886 -0.1146  0.3022
16387TIP3    H170576   5.853   4.396   5.640 -0.5566 -0.1535  0.1262
16387TIP3    H270577   5.877   4.402   5.790 -0.9322 -1.6851  0.2574
16388TIP3   OH270578   0.724   3.615  15.365  0.3475  0.2927 -0.0259
16388TIP3    H170579   0.720   3.523  15.392 -0.7352  0.5922  0.8753
16388TIP3    H270580   0.683   3.616  15.278 -1.1745  0.1656  0.6671
16389TIP3   OH270581   0.275   3.830   1.054  0.0521 -0.4020 -0.0517
16389TIP3    H170582   0.343   3.897   1.060  1.0483 -1.3247 -0.7712
16389TIP3    H270583   0.268   3.811   0.961 -0.1037 -1.4075  0.1592
16390TIP3   OH270584   2.457   5.197  13.927  0.3743  0.2583 -0.1102
16390TIP3    H170585   2.422   5.110  13.906 -0.9712  0.7244  0.1780
16390TIP3    H270586   2.438   5.250  13.849 -1.1693  0.9733  0.7270
16391TIP3   OH270587   4.543   3.445   0.733 -0.1089  0.7212 -0.1327
16391TIP3    H170588   4.520   3.410   0.647  0.9887 -0.5215  0.0680
16391TIP3    H270589   4.637   3.463   0.729  0.3308 -1.0440  1.3567
16392TIP3   OH270590   2.658   4.773  15.387  0.5960 -0.0670  0.3809
16392TIP3    H170591   2.724   4.733  15.444  1.4145  1.1916  0.3242
16392TIP3    H270592   2.700   4.775  15.301  0.1251 -0.0908  0.1478
16393TIP3   OH270593   4.608   6.752   5.278 -0.6211  0.2863 -0.7052
16393TIP3    H170594   4.665   6.674   5.280 -0.2293  0.5800 -0.0858
16393TIP3    H270595   4.635   6.802   5.355 -1.2967  0.7373 -0.7651
16394TIP3   OH270596   0.919   1.745  11.279  0.2390 -0.7087  0.0750
16394TIP3    H170597   0.998   1.749  11.224  0.8440 -0.5170  0.9550
16394TIP3    H270598   0.904   1.652  11.291  0.9962 -0.7448  0.8363
16395TIP3   OH270599   3.361   1.596   3.134 -0.7244  0.8039  0.3846
16395TIP3    H170600   3.327   1.662   3.195  0.8990  2.3234 -0.3030
16395TIP3    H270601   3.413   1.537   3.189  1.3591  2.5999  0.4120
16396TIP3   OH270602   3.943   0.352   1.661  0.1705  0.4014 -0.1126
16396TIP3    H170603   3.997   0.277   1.636 -1.9615 -1.5133  0.8596
16396TIP3    H270604   3.906   0.384   1.578 -1.4221 -1.6349 -0.2317
16397TIP3   OH270605   6.645   1.669   6.658 -0.0337  0.9562 -0.4453
16397TIP3    H170606   6.663   1.697   6.568  0.9544 -0.6439 -0.7716
16397TIP3    H270607   6.675   1.742   6.713  1.1800  1.1384 -1.3327
16398TIP3   OH270608   6.112   1.976   6.669 -0.2122 -0.0945  0.5777
16398TIP3    H170609   6.067   1.908   6.719  0.3508 -1.8097 -1.1624
16398TIP3    H270610   6.204   1.964   6.690 -0.0157 -0.5382 -0.4591
16399TIP3   OH270611   6.598   3.232   3.336  0.1007  0.6960  0.0799
16399TIP3    H170612   6.678   3.198   3.375  0.0423  0.2824 -0.1514
16399TIP3    H270613   6.553   3.277   3.407 -1.2927 -2.2993  1.1965
16400TIP3   OH270614   5.281   0.177  12.487  0.3436  0.2316 -0.0274
16400TIP3    H170615   5.256   0.267  12.509  0.7031  1.2867 -3.6163
16400TIP3    H270616   5.352   0.187  12.424  0.4331 -2.5968 -0.4064
16401TIP3   OH270617   4.655   0.934  11.157 -0.2491 -0.7691  0.5762
16401TIP3    H170618   4.731   0.968  11.204 -0.1732 -1.5915  1.0442
16401TIP3    H270619   4.636   0.850  11.198 -2.5068  0.2166  1.6680
16402TIP3   OH270620   1.927   1.669   2.578  0.3560 -0.2126 -0.0912
16402TIP3    H170621   1.928   1.764   2.566 -0.5708 -0.2992 -0.9048
16402TIP3    H270622   1.856   1.654   2.641  0.5035 -0.3705  0.0386
16403TIP3   OH270623   5.662   0.599  11.287 -0.4078  0.4667  0.1852
16403TIP3    H170624   5.704   0.641  11.362 -1.2036 -0.8749  1.4135
16403TIP3    H270625   5.580   0.648  11.275 -0.8147 -0.0466  0.9072
16404TIP3   OH270626   3.234   0.814  14.004 -0.3550 -0.4268 -0.5722
16404TIP3    H170627   3.223   0.874  14.077 -1.6503 -0.6893 -0.5267
16404TIP3    H270628   3.301   0.752  14.033  0.4951  0.5827 -0.3591
16405TIP3   OH270629   6.357   5.113  16.840  0.7905 -0.3195  0.3724
16405TIP3    H170630   6.312   5.093  16.922 -0.5628  1.0089 -0.0283
16405TIP3    H270631   6.311   5.059  16.775  0.4674  0.2382  0.1382
16406TIP3   OH270632   3.217   6.022  12.870 -0.1865 -0.5826 -0.4680
16406TIP3    H170633   3.141   5.969  12.848  0.2691 -0.3041 -2.7983
16406TIP3    H270634   3.179   6.103  12.906 -0.9903 -0.4776 -1.5320
16407TIP3   OH270635   5.562   3.003  15.018  0.3916 -0.0215  0.2501
16407TIP3    H170636   5.607   2.934  14.969 -0.0042 -0.5045  0.5540
16407TIP3    H270637   5.580   2.983  15.110  1.0533  0.8274  0.3062
16408TIP3   OH270638   4.550   2.810   6.582  0.1484  0.4559  0.4867
16408TIP3    H170639   4.509   2.832   6.498  1.0050  0.6564  0.1228
16408TIP3    H270640   4.592   2.725   6.566  0.3277  0.5056  0.7035
16409TIP3   OH270641   4.205   1.682   5.030 -0.3395  0.0886 -0.5951
16409TIP3    H170642   4.140   1.696   5.098  0.2755 -0.1171  0.0464
16409TIP3    H270643   4.156   1.648   4.955 -0.5407 -3.2193  0.9430
16410TIP3   OH270644   6.223   5.610  14.017 -0.1989  0.0817 -0.5017
16410TIP3    H170645   6.160   5.578  14.081 -0.3243  0.8663 -0.2265
16410TIP3    H270646   6.220   5.705  14.026  3.0004  0.0550  1.4184
16411TIP3   OH270647   3.620   4.317   1.607 -0.1518  0.0972 -0.3171
16411TIP3    H170648   3.689   4.308   1.674  0.1269 -0.2542 -0.6479
16411TIP3    H270649   3.572   4.234   1.611 -2.4207  1.4486  1.9480
16412TIP3   OH270650   2.034   4.163  12.051  0.8349 -0.2510 -0.4137
16412TIP3    H170651   2.059   4.222  11.979  1.3103 -0.2075 -0.2159
16412TIP3    H270652   1.975   4.100  12.011  1.6620 -0.6570 -1.0163
16413TIP3   OH270653   1.458   6.197  13.415 -0.3278 -0.0211  0.5241
16413TIP3    H170654   1.413   6.224  13.495  1.8278  1.3547  1.3225
16413TIP3    H270655   1.407   6.237  13.345 -0.4375  1.3846  1.3855
16414TIP3   OH270656   1.607   4.316   4.478 -0.2235  0.1844 -0.1571
16414TIP3    H170657   1.610   4.277   4.565 -0.5462  0.8940  0.1759
16414TIP3    H270658   1.543   4.387   4.486  0.7401  1.1186 -0.6085
16415TIP3   OH270659   0.552   2.452   0.339 -0.1252 -0.4278  0.0216
16415TIP3    H170660   0.584   2.375   0.386 -1.3479 -0.4631  0.8164
16415TIP3    H270661   0.457   2.444   0.342 -0.2481  0.1114 -1.5666
16416TIP3   OH270662   3.670   2.010  11.052  0.3923  0.1506  0.6993
16416TIP3    H170663   3.742   1.990  11.112 -0.9748 -2.2087  1.6218
16416TIP3    H270664   3.604   1.944  11.071 -0.2839 -0.3753 -3.0764
16417TIP3   OH270665   1.786   3.497  12.416  0.0741 -0.6302  0.3298
16417TIP3    H170666   1.721   3.546  12.366 -1.0745  0.9162  3.2396
16417TIP3    H270667   1.860   3.488  12.356 -0.8781  2.0110 -1.3317
16418TIP3   OH270668   1.677   0.150  15.128  0.3916  0.2583 -0.3773
16418TIP3    H170669   1.606   0.210  15.151  0.3648  0.2762 -0.5054
16418TIP3    H270670   1.638   0.090  15.064  0.7486  0.8637 -1.1813
16419TIP3   OH270671   5.803   2.027  14.168  0.2154  0.3501  0.3860
16419TIP3    H170672   5.814   2.055  14.259 -1.7247  1.9009  0.1772
16419TIP3    H270673   5.727   1.970  14.169  0.3165  0.1964 -0.2379
16420TIP3   OH270674   2.691   0.727  12.308 -0.2914  0.6208  0.0187
16420TIP3    H170675   2.612   0.742  12.361 -0.2924  0.4523  0.0646
16420TIP3    H270676   2.743   0.807  12.320 -0.2361  0.5322  0.3688
16421TIP3   OH270677   5.999   1.240  16.074  0.3448  0.5041 -0.6109
16421TIP3    H170678   5.983   1.158  16.027  0.5607  0.7731 -1.1640
16421TIP3    H270679   6.066   1.217  16.139  1.0163  0.4252 -1.3128
16422TIP3   OH270680   2.269   0.585   4.334 -0.4352  0.1571 -0.2621
16422TIP3    H170681   2.289   0.639   4.410  0.2435  0.0284 -0.3463
16422TIP3    H270682   2.179   0.557   4.348 -1.4631  2.8249 -1.1362
16423TIP3   OH270683   6.746   3.193   5.100  0.0400  0.0330  0.5682
16423TIP3    H170684   6.718   3.112   5.143  1.2074 -0.3398  0.6248
16423TIP3    H270685   6.664   3.236   5.076 -0.6000 -0.7803  1.2506
16424TIP3   OH270686   3.248   5.182   2.261 -0.3767 -0.0847  0.1367
16424TIP3    H170687   3.302   5.237   2.317 -2.7548  2.3289  0.1217
16424TIP3    H270688   3.160   5.191   2.295 -1.2103 -1.9281 -1.4370
16425TIP3   OH270689   0.423   6.627  12.461 -0.8122  0.2419  0.1984
16425TIP3    H170690   0.499   6.581  12.497 -0.3904  1.0898  0.4163
16425TIP3    H270691   0.416   6.596  12.371 -0.5926 -0.3161  0.3722
16426TIP3   OH270692   5.268   0.109   2.857  0.4662 -0.2812 -0.6938
16426TIP3    H170693   5.210   0.066   2.921 -0.1989 -0.1454 -1.1949
16426TIP3    H270694   5.239   0.200   2.856  0.3168 -0.3312 -1.3547
16427TIP3   OH270695   6.074   2.324  11.203  0.6380 -0.3974  0.1434
16427TIP3    H170696   6.138   2.334  11.134  0.5146  0.2252  0.1228
16427TIP3    H270697   6.014   2.256  11.171  1.0737 -0.7201  0.0125
16428TIP3   OH270698   0.890   4.802   1.500 -0.5693  1.0910 -0.0861
16428TIP3    H170699   0.857   4.758   1.579 -1.0078 -0.2248 -0.9956
16428TIP3    H270700   0.813   4.818   1.447  0.0600 -0.9400 -1.6954
16429TIP3   OH270701   0.931   5.135   2.958 -0.4260 -0.0781  0.7726
16429TIP3    H170702   0.952   5.128   3.051  2.0125  0.1654  0.2652
16429TIP3    H270703   1.007   5.178   2.919 -1.5225  0.0522 -1.3001
16430TIP3   OH270704   5.313   5.586   4.375 -0.1451  0.5034  0.1470
16430TIP3    H170705   5.370   5.556   4.304  0.3177  0.6005  0.4743
16430TIP3    H270706   5.332   5.527   4.448  0.3891  1.2531  0.6235
16431TIP3   OH270707   5.432   3.592  15.399 -0.0300 -0.0645  0.1548
16431TIP3    H170708   5.462   3.509  15.362  2.0165  0.5922  0.2732
16431TIP3    H270709   5.341   3.576  15.423  0.3311 -2.2808  0.1898
16432TIP3   OH270710   5.789   4.780  12.049  0.4753 -0.5751  0.1585
16432TIP3    H170711   5.729   4.731  11.992 -0.4980  0.4810  0.2722
16432TIP3    H270712   5.750   4.775  12.136  1.3818 -1.2283  0.5323
16433TIP3   OH270713   0.003   4.390  15.003 -0.5918 -0.0074  0.3168
16433TIP3    H170714   0.047   4.454  15.059 -0.1106 -0.8416  0.9127
16433TIP3    H270715   0.064   4.375  14.931 -0.4738 -0.1672  0.4474
16434TIP3   OH270716   1.569   0.021   2.407  0.1003  0.0807 -0.2546
16434TIP3    H170717   1.560   0.115   2.394 -4.1319 -0.4802 -2.4498
16434TIP3    H270718   1.642  -0.004   2.350 -0.0231  1.7681 -1.1889
16435TIP3   OH270719   0.641   1.110  15.799  0.1894  0.5123 -0.1806
16435TIP3    H170720   0.590   1.071  15.870  0.0465 -0.1109 -0.6238
16435TIP3    H270721   0.628   1.204  15.809 -0.3680  0.3906  0.2224
16436TIP3   OH270722   5.187   6.706  11.503  0.0034  0.4361  0.3945
16436TIP3    H170723   5.169   6.709  11.409 -0.3495 -1.8838  0.3708
16436TIP3    H270724   5.230   6.622  11.518 -0.0328  0.7235  2.3294
16437TIP3   OH270725   2.996   6.058  16.445  0.4386 -0.3133  0.3903
16437TIP3    H170726   2.930   6.002  16.487 -0.8357  0.6305 -0.3267
16437TIP3    H270727   3.051   5.996  16.396  0.2714 -1.1431  1.2369
16438TIP3   OH270728   5.693   2.404  10.867 -0.6320  0.0878 -0.5592
16438TIP3    H170729   5.717   2.313  10.847  0.3105  0.4659 -1.1483
16438TIP3    H270730   5.716   2.453  10.788 -0.5744  0.9462 -0.0138
16439TIP3   OH270731   6.592   0.241  14.173  0.1891 -0.2153 -0.3930
16439TIP3    H170732   6.545   0.229  14.255 -0.5428 -0.1624 -0.7986
16439TIP3    H270733   6.684   0.252  14.199  0.0849 -1.0527  0.3531
16440TIP3   OH270734   5.592   1.443   3.772 -0.5249 -0.0782 -0.2530
16440TIP3    H170735   5.551   1.518   3.815 -0.8146  0.2508 -1.0975
16440TIP3    H270736   5.571   1.368   3.829 -0.1688  0.4897  0.6313
16441TIP3   OH270737   0.118   3.896   0.681 -0.3987  0.1373  0.5144
16441TIP3    H170738   0.170   3.818   0.700 -0.6745  0.2525  1.7563
16441TIP3    H270739   0.061   3.869   0.608  2.4088  0.4581 -1.9085
16442TIP3   OH270740   2.228   0.352   4.142  0.3178 -0.1127  1.2271
16442TIP3    H170741   2.243   0.432   4.193  0.3823 -0.6637  2.0725
16442TIP3    H270742   2.281   0.286   4.185  0.1798 -0.6440  0.5872
16443TIP3   OH270743   6.491   3.347  16.975  0.5025 -0.5505 -0.6943
16443TIP3    H170744   6.427   3.373  17.041  1.6857 -0.0126  0.2501
16443TIP3    H270745   6.498   3.252  16.985 -1.2140 -0.8179 -1.7888
16444TIP3   OH270746   5.380   6.249  16.345  0.2055  0.7309 -0.1594
16444TIP3    H170747   5.381   6.315  16.276  0.9528  0.3871 -0.4822
16444TIP3    H270748   5.422   6.291  16.420 -0.9980  1.2557  0.2433
16445TIP3   OH270749   1.004   4.619  13.205 -0.6217  0.0721 -0.4488
16445TIP3    H170750   1.028   4.568  13.282  2.1978  1.6944 -0.2112
16445TIP3    H270751   0.956   4.694  13.240  1.5373  1.3368 -0.1625
16446TIP3   OH270752   6.298   6.681   3.223  0.1886 -0.5980 -0.2068
16446TIP3    H170753   6.263   6.652   3.307  0.8313  1.5473  0.8404
16446TIP3    H270754   6.223   6.677   3.163 -0.7020 -0.4841  0.8815
16447TIP3   OH270755   4.065   2.487  13.899 -0.1759 -0.5145 -0.3308
16447TIP3    H170756   4.015   2.499  13.818  0.3466 -0.8203 -0.7032
16447TIP3    H270757   4.156   2.496  13.873 -0.1057  2.0132  0.7105
16448TIP3   OH270758   2.910   4.110   2.181  0.3262  0.0234 -0.0875
16448TIP3    H170759   2.864   4.174   2.127 -1.6392 -0.1984  1.2672
16448TIP3    H270760   2.889   4.135   2.271  2.2754 -0.5435  0.5418
16449TIP3   OH270761   3.865   1.062   0.844  0.1491  0.8649 -0.0850
16449TIP3    H170762   3.847   1.060   0.750 -0.6476  2.1427  0.0132
16449TIP3    H270763   3.811   1.134   0.876 -0.2340 -0.1081  1.4931
16450TIP3   OH270764   3.237   3.486  11.443  0.0020 -0.4384 -0.3829
16450TIP3    H170765   3.181   3.520  11.512 -0.7862 -1.8919 -0.2782
16450TIP3    H270766   3.242   3.392  11.461 -0.2569 -0.8396 -2.3265
16451TIP3   OH270767   5.651   1.133   2.353 -0.4283 -0.3084 -0.3909
16451TIP3    H170768   5.620   1.043   2.358  0.9330 -0.8912 -1.7379
16451TIP3    H270769   5.599   1.173   2.283 -0.1474 -0.4463 -0.6833
16452TIP3   OH270770   2.249   4.644  11.637  0.3817 -0.4394  0.0327
16452TIP3    H170771   2.328   4.672  11.591  0.3096 -0.5506 -0.1577
16452TIP3    H270772   2.275   4.642  11.730  0.4839 -0.0716  0.0165
16453TIP3   OH270773   3.585   2.812   1.638  0.0405 -0.0528  0.7466
16453TIP3    H170774   3.601   2.728   1.595  0.5375  0.1909  0.4592
16453TIP3    H270775   3.561   2.788   1.727 -0.9788 -0.5644  0.3577
16454TIP3   OH270776   3.582   4.340   4.492  0.0573 -0.2188 -0.0443
16454TIP3    H170777   3.596   4.429   4.458  0.6529 -0.7339 -1.1840
16454TIP3    H270778   3.576   4.352   4.587 -1.2022  1.2030 -0.2736
16455TIP3   OH270779   0.284   1.942   5.530 -0.8356  0.1011 -0.4627
16455TIP3    H170780   0.340   1.878   5.574 -0.8667  0.7353  0.5155
16455TIP3    H270781   0.234   1.983   5.601 -0.3760  1.6203 -0.9984
16456TIP3   OH270782   2.850   5.402  16.946  0.4627  0.4288 -0.1697
16456TIP3    H170783   2.934   5.364  16.971 -0.0395 -1.0413 -0.6957
16456TIP3    H270784   2.803   5.415  17.029  0.3907 -0.6809 -0.0331
16457TIP3   OH270785   5.734   2.438   0.175 -0.5588 -0.6655 -0.6548
16457TIP3    H170786   5.669   2.370   0.190 -1.8672  0.5176 -0.8277
16457TIP3    H270787   5.691   2.519   0.204  1.8390 -0.2233  1.8827
16458TIP3   OH270788   4.595   5.901   0.202  0.6611 -0.1753 -0.4578
16458TIP3    H170789   4.616   5.810   0.182 -0.2680 -0.3335 -0.7753
16458TIP3    H270790   4.594   5.946   0.117  0.4554 -0.0164 -0.3734
16459TIP3   OH270791   1.931   0.071  11.953  0.4838  0.5668  0.0813
16459TIP3    H170792   1.842   0.106  11.953 -0.1884 -1.1032 -0.4084
16459TIP3    H270793   1.950   0.052  11.861  0.7683 -0.4884  0.3482
16460TIP3   OH270794   3.189   3.683   2.463  0.5582  0.8635  0.3291
16460TIP3    H170795   3.225   3.607   2.417 -0.9524  0.7688 -0.7088
16460TIP3    H270796   3.116   3.649   2.513 -0.1336  1.6366 -0.1520
16461TIP3   OH270797   2.561   6.264   6.207  0.1871  0.1528  0.1104
16461TIP3    H170798   2.485   6.207   6.214  1.6309 -2.3190 -2.7919
16461TIP3    H270799   2.535   6.332   6.145  0.2856 -0.6253 -0.7938
16462TIP3   OH270800   0.650   4.762   0.719  0.2280  0.1059  0.1533
16462TIP3    H170801   0.610   4.679   0.745 -0.4380  0.7917  1.3355
16462TIP3    H270802   0.628   4.823   0.789  3.7271  0.4138  1.0510
16463TIP3   OH270803   5.801   1.195  13.543  0.4346 -0.5787  0.0831
16463TIP3    H170804   5.802   1.231  13.632  0.6475 -1.0996  0.2923
16463TIP3    H270805   5.886   1.220  13.506 -0.2057  0.8748 -0.4812
16464TIP3   OH270806   4.074   6.007   5.825  0.2509  0.6182 -0.2585
16464TIP3    H170807   4.087   6.099   5.801  0.5849  1.5154  3.1664
16464TIP3    H270808   3.981   6.001   5.847  0.5339  0.5076  0.9454
16465TIP3   OH270809   3.088   0.512  14.234  0.0574  0.4952  0.0117
16465TIP3    H170810   3.129   0.450  14.174 -0.1653 -0.1856  0.5545
16465TIP3    H270811   3.058   0.584  14.178 -0.3898 -0.2625 -0.7296
16466TIP3   OH270812   4.202   2.508  16.062 -0.3875 -0.0929  0.0046
16466TIP3    H170813   4.236   2.563  16.132  0.7447 -0.2553 -0.3955
16466TIP3    H270814   4.275   2.450  16.040 -0.4683  0.4585 -1.8072
16467TIP3   OH270815   5.359   1.766  13.620  0.0261 -0.1546  0.2693
16467TIP3    H170816   5.438   1.711  13.614  0.0233 -0.7071  4.0583
16467TIP3    H270817   5.326   1.770  13.531  2.4003 -2.8311 -0.8148
16468TIP3   OH270818   5.564   6.019  15.639  0.4551 -0.3685  0.2358
16468TIP3    H170819   5.500   6.010  15.709  0.3633 -0.0312  0.1997
16468TIP3    H270820   5.571   5.932  15.600  1.0857 -0.7468  1.1641
16469TIP3   OH270821   5.484   0.808  11.205  0.2727  0.0048 -0.3902
16469TIP3    H170822   5.538   0.867  11.257 -1.9587  1.9718 -0.2114
16469TIP3    H270823   5.497   0.836  11.115 -0.5119  0.5610 -0.3365
16470TIP3   OH270824   4.603   2.171  12.084 -0.4172 -0.4237  0.4079
16470TIP3    H170825   4.659   2.188  12.159  0.2175  1.5922 -0.5005
16470TIP3    H270826   4.659   2.185  12.008 -0.8433 -3.1609 -0.4606
16471TIP3   OH270827   2.702   3.694  14.120  0.1481  0.4600 -0.6205
16471TIP3    H170828   2.688   3.698  14.215 -1.4871  0.1277 -0.8314
16471TIP3    H270829   2.725   3.784  14.095  1.4128  0.3713  0.2084
16472TIP3   OH270830   1.720   5.742  13.256  0.2397 -0.0294 -0.4718
16472TIP3    H170831   1.701   5.649  13.249 -0.2551  0.1181 -1.1036
16472TIP3    H270832   1.678   5.770  13.337  0.5790 -0.4007 -0.1680
16473TIP3   OH270833   2.824   2.633   5.897 -0.4082  0.6193 -0.1540
16473TIP3    H170834   2.786   2.561   5.948  0.1719  0.6774  0.3721
16473TIP3    H270835   2.783   2.712   5.933  1.6471  0.8513  1.7693
16474TIP3   OH270836   0.195   4.754   5.307  0.0571  0.0681 -0.0569
16474TIP3    H170837   0.134   4.781   5.375 -1.5925  0.0544 -1.4996
16474TIP3    H270838   0.164   4.668   5.279 -0.1923  0.7210 -1.8576
16475TIP3   OH270839   2.603   3.303  12.275  0.7033  0.3682  0.2377
16475TIP3    H170840   2.692   3.338  12.285  0.1883  1.1323  2.5562
16475TIP3    H270841   2.552   3.377  12.240  0.8600  0.0836 -0.6046
16476TIP3   OH270842   2.308   0.002  14.546 -0.5121  0.1970  0.6033
16476TIP3    H170843   2.401  -0.018  14.532 -0.8267 -0.8384 -0.0625
16476TIP3    H270844   2.261  -0.067  14.499 -1.6253  1.2591  0.1418
16477TIP3   OH270845   1.564   2.549   3.157  0.1466 -0.2567  0.1664
16477TIP3    H170846   1.619   2.471   3.167  1.0885  0.7763  3.7103
16477TIP3    H270847   1.482   2.526   3.201 -0.6116 -0.2042 -1.1986
16478TIP3   OH270848   5.179   1.382  13.901 -0.2737  0.2373 -0.1498
16478TIP3    H170849   5.104   1.340  13.944 -1.6044 -0.1907 -2.8223
16478TIP3    H270850   5.253   1.325  13.922 -0.6512  0.6165  2.4479
16479TIP3   OH270851   4.125   3.741   4.471 -0.4115  0.4214 -0.6438
16479TIP3    H170852   4.151   3.822   4.427 -4.3030  2.0608 -0.2077
16479TIP3    H270853   4.099   3.769   4.559 -0.6594 -1.5010 -0.0801
16480TIP3   OH270854   5.031   0.076  12.154  0.6674  0.5347 -0.8759
16480TIP3    H170855   4.941   0.055  12.130  0.7196 -1.5833  0.6198
16480TIP3    H270856   5.081   0.063  12.073 -0.2209  0.7835 -1.4688
16481TIP3   OH270857   2.551   1.406   0.425 -0.0667  0.2299  0.3753
16481TIP3    H170858   2.566   1.354   0.504  0.3704 -0.7270 -0.3230
16481TIP3    H270859   2.465   1.378   0.393  0.4402 -0.5326 -0.3455
16482TIP3   OH270860   0.647   2.615   6.753  0.2539  0.2394 -0.9758
16482TIP3    H170861   0.685   2.697   6.786  0.1898 -0.5572  1.1063
16482TIP3    H270862   0.704   2.590   6.680  0.1617  2.2369 -1.7605
16483TIP3   OH270863   3.359   5.054  16.743 -0.4182 -0.1098  0.5794
16483TIP3    H170864   3.348   4.983  16.806 -1.0787  0.0360  0.6300
16483TIP3    H270865   3.437   5.030  16.693  1.1272  0.6449  2.5912
16484TIP3   OH270866   6.236   1.856  11.099  0.5606  0.0345  0.1202
16484TIP3    H170867   6.197   1.885  11.181  1.1441  1.0256  0.0609
16484TIP3    H270868   6.254   1.763  11.112 -1.1603 -0.2811  0.3942
16485TIP3   OH270869   0.877   5.364   5.548 -0.1148  0.1709 -0.9131
16485TIP3    H170870   0.951   5.309   5.573  0.4505  1.4388  0.2466
16485TIP3    H270871   0.799   5.313   5.570  0.4032 -0.0142  0.4827
16486TIP3   OH270872   6.215   6.570  12.161 -0.8459 -0.4943  0.6038
16486TIP3    H170873   6.190   6.479  12.147 -0.0837 -0.6040 -0.0865
16486TIP3    H270874   6.136   6.611  12.197 -1.0918 -1.4927  1.2458
16487TIP3   OH270875   0.235   5.800  11.447  0.4270 -0.1910  0.5734
16487TIP3    H170876   0.195   5.737  11.508  1.1345 -0.1048  1.1411
16487TIP3    H270877   0.162   5.831  11.393  0.0981 -1.6126  0.1797
16488TIP3   OH270878   3.989   4.412   3.511  0.0431  0.3450 -0.1550
16488TIP3    H170879   3.914   4.368   3.471 -0.7751  2.2148 -0.6969
16488TIP3    H270880   3.982   4.503   3.483  1.7139  0.8454  0.9685
16489TIP3   OH270881   2.804   0.622  10.560 -0.4054  0.2957  0.1721
16489TIP3    H170882   2.846   0.558  10.617  3.1716 -0.3522 -3.0208
16489TIP3    H270883   2.826   0.707  10.598 -1.9988 -0.1980  2.2895
16490TIP3   OH270884   5.271   2.964  14.365 -0.0745  0.2287 -0.2981
16490TIP3    H170885   5.270   2.873  14.337  0.5012 -0.0795  0.6502
16490TIP3    H270886   5.286   3.014  14.285 -2.4655 -0.3557 -1.1715
16491TIP3   OH270887   5.322   2.212  13.090 -0.1681 -0.7979  0.1523
16491TIP3    H170888   5.277   2.208  13.005 -1.4907  0.1242  0.7875
16491TIP3    H270889   5.402   2.261  13.071 -0.7344 -0.0879 -0.4627
16492TIP3   OH270890   2.846   2.566   4.237  0.3981  0.1079 -0.3741
16492TIP3    H170891   2.836   2.604   4.325  0.0304 -1.9223  0.4824
16492TIP3    H270892   2.906   2.627   4.192 -0.2776  1.7688  0.9016
16493TIP3   OH270893   6.165   0.257   2.805  0.5619 -0.1019 -0.0338
16493TIP3    H170894   6.086   0.290   2.763  0.0900  2.0811  2.4366
16493TIP3    H270895   6.236   0.291   2.751 -0.0991  0.1962 -0.7327
16494TIP3   OH270896   4.579   6.342   6.156  0.8404 -0.1262  0.3815
16494TIP3    H170897   4.592   6.248   6.149 -0.3701 -0.2818 -0.0321
16494TIP3    H270898   4.648   6.381   6.103 -0.4479 -0.8867 -1.9226
16495TIP3   OH270899   4.958   3.571  14.047  0.1398 -0.3597  0.3169
16495TIP3    H170900   4.884   3.631  14.051  1.5589  1.6329 -1.9419
16495TIP3    H270901   4.982   3.556  14.138 -2.2102 -0.0350  1.0267
16496TIP3   OH270902   4.572   5.397  12.317 -1.1265 -0.2643  0.1659
16496TIP3    H170903   4.500   5.439  12.270 -0.7081 -1.6469 -1.7914
16496TIP3    H270904   4.534   5.315  12.349 -0.7641 -0.4094  0.2270
16497TIP3   OH270905   0.207   0.228   3.487 -1.0343  0.0522  0.0652
16497TIP3    H170906   0.261   0.270   3.554  0.3831  0.8263 -1.5274
16497TIP3    H270907   0.164   0.156   3.532  1.2400 -0.5002  1.3875
16498TIP3   OH270908   1.362   4.638   1.055  0.1057  0.3559 -0.0664
16498TIP3    H170909   1.307   4.700   1.007 -0.8526 -0.9069 -0.6317
16498TIP3    H270910   1.345   4.655   1.147 -0.1677  0.9199 -0.2251
16499TIP3   OH270911   1.698   3.549   2.673 -0.1672 -0.0190 -0.1170
16499TIP3    H170912   1.693   3.472   2.730  0.3326 -0.9576 -1.3017
16499TIP3    H270913   1.786   3.547   2.637  0.6448  2.4653  1.6371
16500TIP3   OH270914   6.759   5.970   0.573 -0.9415 -0.0316  0.2754
16500TIP3    H170915   6.665   5.981   0.555 -1.3358 -1.7140  1.1767
16500TIP3    H270916   6.794   5.927   0.496 -0.7889  1.0959 -0.2945
16501TIP3   OH270917   0.298   4.299  16.189 -0.0558 -0.1207  0.3441
16501TIP3    H170918   0.270   4.275  16.277 -1.7127  0.0521 -0.1134
16501TIP3    H270919   0.270   4.390  16.178 -2.8032 -1.1219 -1.4966
16502TIP3   OH270920   4.439   6.070   2.792  0.1470 -0.2385 -0.2178
16502TIP3    H170921   4.377   6.017   2.841  2.8275 -1.7647  1.6451
16502TIP3    H270922   4.499   6.104   2.858  1.4855  0.9253 -1.9841
16503TIP3   OH270923   2.940   4.518  13.835 -0.0906  0.3789 -0.2089
16503TIP3    H170924   3.011   4.473  13.789 -0.6764 -1.0752  0.3047
16503TIP3    H270925   2.969   4.520  13.926  0.5736  2.3051 -0.4346
16504TIP3   OH270926   3.817   2.576   4.032 -0.5089  0.2629  0.0855
16504TIP3    H170927   3.771   2.511   4.086 -0.3461 -1.7320 -2.0819
16504TIP3    H270928   3.754   2.648   4.022 -1.6737 -0.6881  0.4030
16505TIP3   OH270929   6.486   4.989   4.746 -0.1084 -0.1728  0.7886
16505TIP3    H170930   6.431   4.984   4.668 -0.9491  0.0485  1.3489
16505TIP3    H270931   6.442   4.932   4.809  1.1269 -1.1587  0.7691
16506TIP3   OH270932   3.231   5.306   1.737 -0.5004  0.0898  0.1893
16506TIP3    H170933   3.284   5.234   1.703 -1.7210 -0.0684 -1.4730
16506TIP3    H270934   3.213   5.282   1.828  0.3662 -0.9619  0.0872
16507TIP3   OH270935   2.506   1.924  12.299 -0.1592 -0.6448  0.1353
16507TIP3    H170936   2.586   1.961  12.261 -0.2863 -1.0503 -0.5364
16507TIP3    H270937   2.513   1.944  12.393  0.0646  0.5371 -0.1145
16508TIP3   OH270938   6.381   3.464  16.014 -0.1638 -0.3762  0.7571
16508TIP3    H170939   6.418   3.493  16.097  1.8815 -1.6564  0.3337
16508TIP3    H270940   6.435   3.389  15.989 -0.9459 -0.2000 -1.5676
16509TIP3   OH270941   3.940   5.401  12.996  0.5091 -0.3368 -0.4358
16509TIP3    H170942   3.965   5.430  12.908  0.2204  0.0161 -0.3982
16509TIP3    H270943   4.005   5.441  13.054  1.7516 -1.9636 -0.6515
16510TIP3   OH270944   0.524   4.515  15.179  0.0967 -0.4953  0.5417
16510TIP3    H170945   0.519   4.569  15.100  0.8970 -0.9895  0.1516
16510TIP3    H270946   0.585   4.445  15.157 -2.2423 -2.5740  0.4553
16511TIP3   OH270947   0.608   2.830   3.810 -0.7771  0.4257 -0.7671
16511TIP3    H170948   0.608   2.824   3.905 -0.6100  0.3644 -0.7711
16511TIP3    H270949   0.608   2.924   3.791  2.7493  0.4849 -0.7096
16512TIP3   OH270950   1.613   1.539   2.594  0.5481 -0.1488  0.0971
16512TIP3    H170951   1.560   1.532   2.674  2.1069  0.2916  1.1786
16512TIP3    H270952   1.601   1.455   2.551 -0.3413 -0.3817  0.7600
16513TIP3   OH270953   1.987   5.045   1.165 -0.1024  0.2727  0.0816
16513TIP3    H170954   1.899   5.029   1.129 -0.3075  0.7515  0.3640
16513TIP3    H270955   2.043   5.049   1.088 -0.0060 -1.9682  0.0073
16514TIP3   OH270956   2.542   2.039  12.534 -0.1509  0.0761 -1.2195
16514TIP3    H170957   2.455   2.027  12.573 -0.5611  1.7152 -1.5953
16514TIP3    H270958   2.602   2.037  12.609 -0.6236  0.0652 -0.8363
16515TIP3   OH270959   0.614   4.837   1.024  0.4896  0.7147  0.3933
16515TIP3    H170960   0.585   4.872   1.108 -1.1591  0.5958 -0.1212
16515TIP3    H270961   0.696   4.884   1.006  1.1251  0.3902  2.2875
16516TIP3   OH270962   4.332   0.678   2.836  0.1877  0.1839  0.5095
16516TIP3    H170963   4.272   0.663   2.763  0.4861  0.8588  0.1168
16516TIP3    H270964   4.384   0.754   2.809  0.3952  0.3536  1.3686
16517TIP3   OH270965   5.577   1.994  13.883 -0.0174 -0.1581  0.0700
16517TIP3    H170966   5.510   1.961  13.943 -0.3298 -0.4671 -0.4390
16517TIP3    H270967   5.595   2.083  13.912 -0.3938 -0.1992  0.4245
16518TIP3   OH270968   4.078   3.319  15.312  0.4053 -0.8965  0.0272
16518TIP3    H170969   4.166   3.285  15.328 -0.0873 -1.6371  1.2011
16518TIP3    H270970   4.091   3.393  15.252  1.7276 -1.5767 -0.5225
16519TIP3   OH270971   2.964   4.583   2.985  0.2355  0.1299 -0.0498
16519TIP3    H170972   2.953   4.521   2.913 -0.0939  0.6105 -0.4192
16519TIP3    H270973   2.920   4.663   2.955  1.7473  0.9716 -0.1151
16520TIP3   OH270974   2.462   0.809  12.470  0.0273 -0.2341  0.6655
16520TIP3    H170975   2.474   0.829  12.563 -0.1136  0.1650  0.6005
16520TIP3    H270976   2.379   0.763  12.465  0.3510 -0.8371  0.8159
16521TIP3   OH270977   5.391   1.447  11.156 -0.2032 -0.2772 -0.0204
16521TIP3    H170978   5.376   1.518  11.094 -1.1529 -0.8731 -0.4911
16521TIP3    H270979   5.454   1.390  11.112  1.2702  0.7337  0.7431
16522TIP3   OH270980   4.815   1.038   2.588  0.1640  0.2868 -0.1370
16522TIP3    H170981   4.780   1.089   2.514 -1.2085  1.4479  1.2727
16522TIP3    H270982   4.781   0.949   2.574  0.0417  0.4676 -0.9922
16523TIP3   OH270983   4.141   2.821   4.140 -0.4982  0.2174  0.1903
16523TIP3    H170984   4.222   2.772   4.155 -0.5643  0.5123  1.6377
16523TIP3    H270985   4.155   2.903   4.188 -2.6711 -0.7917  2.6336
16524TIP3   OH270986   2.244   5.812   5.717 -0.1863 -0.2487  0.3994
16524TIP3    H170987   2.277   5.743   5.775  0.4598  0.3719  0.7721
16524TIP3    H270988   2.275   5.894   5.757 -0.3543  0.2159 -0.4218
16525TIP3   OH270989   3.990   3.889   0.139 -0.0269  0.2623  1.0107
16525TIP3    H170990   4.071   3.934   0.118 -0.3531 -0.1014 -1.1797
16525TIP3    H270991   4.018   3.804   0.174  0.6129 -0.8019 -1.8726
16526TIP3   OH270992   0.010   5.418   3.310 -0.3480 -0.4183 -0.0850
16526TIP3    H170993   0.072   5.458   3.249 -1.7717 -0.2290 -1.4315
16526TIP3    H270994   0.042   5.328   3.321 -0.2372 -0.5437 -1.3506
16527TIP3   OH270995   0.688   6.648   3.548 -0.2226 -0.5661  0.4001
16527TIP3    H170996   0.621   6.706   3.511 -0.8120 -0.6406  1.3336
16527TIP3    H270997   0.657   6.629   3.636 -0.0738 -2.3677  0.0837
16528TIP3   OH270998   6.750   4.129   4.529 -0.7262  0.6132 -1.1117
16528TIP3    H170999   6.738   4.098   4.439 -1.1143  2.0213 -1.5586
16528TIP3    H271000   6.842   4.155   4.533 -0.9752  1.5493 -1.4233
16529TIP3   OH271001   3.613   1.155   1.292 -0.2089 -0.2664  0.1410
16529TIP3    H171002   3.561   1.201   1.226  0.8504  0.3749 -0.2734
16529TIP3    H271003   3.670   1.097   1.242  0.8478  0.4783  0.4443
16530TIP3   OH271004   6.757   1.169  10.679  0.1396  0.3159  0.1337
16530TIP3    H171005   6.701   1.120  10.619  0.4535  0.5079 -0.3237
16530TIP3    H271006   6.791   1.241  10.626  1.4975 -0.2897  0.1486
16531TIP3   OH271007   5.428   2.139   1.943  0.0392 -0.4102 -0.2734
16531TIP3    H171008   5.444   2.182   1.859  0.4825 -1.4484 -0.7255
16531TIP3    H271009   5.501   2.166   1.998 -0.0751  0.0070 -0.3260
16532TIP3   OH271010   0.581   1.214   3.331  0.3476 -0.1234 -0.4446
16532TIP3    H171011   0.508   1.174   3.285  0.8255  0.5676 -1.8202
16532TIP3    H271012   0.652   1.150   3.326 -0.0456 -0.6488  0.5895
16533TIP3   OH271013   4.212   6.051   6.552 -0.3115 -0.3274 -0.3143
16533TIP3    H171014   4.229   5.962   6.582 -0.2322 -0.0263  0.5480
16533TIP3    H271015   4.290   6.100   6.576 -1.3459  0.5158  1.4826
16534TIP3   OH271016   5.450   3.312  14.419 -0.0609 -0.1237  0.1752
16534TIP3    H171017   5.391   3.335  14.492  1.0209 -0.5540  1.2057
16534TIP3    H271018   5.467   3.218  14.431 -0.8103 -0.4684 -1.3362
16535TIP3   OH271019   0.343   1.018   5.630  0.0984  0.7734  0.2694
16535TIP3    H171020   0.280   1.003   5.701 -3.4173  1.1216 -2.6148
16535TIP3    H271021   0.364   1.111   5.636 -1.0060  1.0330  0.2490
16536TIP3   OH271022   4.396   2.608  14.881  0.6804  0.3922 -0.5307
16536TIP3    H171023   4.416   2.546  14.951  2.2596  1.0198 -0.4067
16536TIP3    H271024   4.315   2.650  14.910  0.0537 -0.9961 -0.2107
16537TIP3   OH271025   4.418   1.293  16.879  0.4393  0.1571 -0.2476
16537TIP3    H171026   4.510   1.315  16.867  1.4065 -3.8040 -0.5951
16537TIP3    H271027   4.381   1.298  16.790  0.6942  0.1316 -0.3553
16538TIP3   OH271028   5.921   4.293   3.457  0.0501 -0.2323  0.2469
16538TIP3    H171029   5.915   4.387   3.443 -1.1928 -0.3108  0.2220
16538TIP3    H271030   5.912   4.281   3.551 -2.2718 -0.5021  0.0071
16539TIP3   OH271031   0.456   2.817  15.838  0.4389  0.2904 -0.2391
16539TIP3    H171032   0.386   2.779  15.785  1.6260 -0.4331 -1.3288
16539TIP3    H271033   0.431   2.909  15.849  0.0964  0.4201 -1.9381
16540TIP3   OH271034   2.050   0.080  11.340  0.6542  0.0827  0.1005
16540TIP3    H171035   1.978   0.068  11.277  0.7266  0.5031 -0.0686
16540TIP3    H271036   2.125   0.036  11.300  0.6747  0.2658 -0.0689
16541TIP3   OH271037   5.793   2.652  15.678 -0.0039  0.1545 -0.4550
16541TIP3    H171038   5.886   2.669  15.664 -0.0223  0.8884  0.2869
16541TIP3    H271039   5.789   2.559  15.701  0.6148  0.2821  0.1788
16542TIP3   OH271040   3.725   2.852   4.950 -0.1734  0.1079  0.5202
16542TIP3    H171041   3.696   2.761   4.956 -0.6846  0.3689  2.2164
16542TIP3    H271042   3.657   2.902   4.994  0.2098  1.2969 -0.2184
16543TIP3   OH271043   3.346   1.655   4.056 -0.6695 -0.1463 -0.0569
16543TIP3    H171044   3.342   1.741   4.098  0.5388 -0.0437 -0.1377
16543TIP3    H271045   3.438   1.644   4.033 -1.1947 -0.5132 -2.0383
16544TIP3   OH271046   0.359   4.759  11.062 -0.2846 -0.3247 -0.2764
16544TIP3    H171047   0.347   4.685  11.003 -1.3786 -0.0092 -0.4606
16544TIP3    H271048   0.353   4.836  11.005  2.3558 -0.1275 -0.3295
16545TIP3   OH271049   3.775   1.136  14.473 -0.0243  0.3395  0.0197
16545TIP3    H171050   3.797   1.109  14.562 -0.7749  2.6639  0.9409
16545TIP3    H271051   3.704   1.078  14.448  0.6951 -0.8378  0.6328
16546TIP3   OH271052   2.975   1.243   1.653 -0.0819  0.0799  0.6682
16546TIP3    H171053   3.052   1.279   1.608 -1.1368  0.7874 -0.6277
16546TIP3    H271054   2.917   1.318   1.664 -0.9653 -0.6179  0.8053
16547TIP3   OH271055   5.475   2.233  10.551  0.5158 -0.2314  0.4913
16547TIP3    H171056   5.444   2.146  10.527 -0.7256  0.3669 -0.1182
16547TIP3    H271057   5.569   2.231  10.533  0.7804 -1.9134  1.9041
16548TIP3   OH271058   5.202   0.068   5.853  0.2293 -0.4418 -0.4861
16548TIP3    H171059   5.226  -0.025   5.843  1.4999 -0.0263 -1.3673
16548TIP3    H271060   5.174   0.094   5.765  1.1021  0.3462 -0.5354
16549TIP3   OH271061   2.622   2.455   1.956 -0.6547 -0.3280  0.2800
16549TIP3    H171062   2.561   2.381   1.956 -2.0146  0.7483 -1.7868
16549TIP3    H271063   2.705   2.418   1.929 -1.5107 -0.9943 -1.5142
16550TIP3   OH271064   5.431   5.170  14.209 -0.0181 -0.5323  0.4626
16550TIP3    H171065   5.361   5.216  14.162  2.4884  1.2161 -1.7206
16550TIP3    H271066   5.429   5.209  14.297  2.2568  4.2187 -1.4058
16551TIP3   OH271067   2.733   1.631  13.819 -0.4681  0.1475  0.2177
16551TIP3    H171068   2.703   1.540  13.817  0.1400 -0.0555  0.0791
16551TIP3    H271069   2.793   1.634  13.894  1.1310 -0.0867 -1.0208
16552TIP3   OH271070   2.404   2.379   1.569  0.0709 -0.4766 -0.4719
16552TIP3    H171071   2.399   2.403   1.477 -1.3215  2.6958  0.3481
16552TIP3    H271072   2.358   2.450   1.615  0.4817 -2.1151  2.6309
16553TIP3   OH271073   3.116   5.037  14.273 -0.2586 -0.4290  0.4012
16553TIP3    H171074   3.133   4.947  14.303  0.9150 -0.3050  0.1608
16553TIP3    H271075   3.181   5.090  14.320 -0.2699  0.1443 -0.2254
16554TIP3   OH271076   4.233   0.378   1.849 -0.7460  0.0145 -0.7256
16554TIP3    H171077   4.138   0.373   1.840 -0.8441  1.0314 -0.2922
16554TIP3    H271078   4.255   0.468   1.823  0.1992 -0.4870 -1.7045
16555TIP3   OH271079   5.787   5.384  16.067 -0.3610  0.0011 -0.3335
16555TIP3    H171080   5.824   5.322  16.005  0.8509 -3.0791  3.2864
16555TIP3    H271081   5.863   5.426  16.107 -1.0427  0.3643  0.6025
16556TIP3   OH271082   1.593   2.601  13.594  0.8580  0.5237 -0.1793
16556TIP3    H171083   1.668   2.563  13.640 -0.8206  0.7092  2.8186
16556TIP3    H271084   1.600   2.695  13.611  0.4570  0.6557 -0.7268
16557TIP3   OH271085   3.047   6.518   4.181 -0.3526 -0.5662  0.2835
16557TIP3    H171086   2.962   6.482   4.157 -0.7485 -0.2203  1.1526
16557TIP3    H271087   3.106   6.443   4.179 -0.7820 -0.9031  0.1994
16558TIP3   OH271088   2.274   1.024   4.993  0.2051 -0.0911  0.5553
16558TIP3    H171089   2.252   1.063   4.908  0.0026  0.5861  0.9216
16558TIP3    H271090   2.255   1.092   5.057 -1.0248 -1.0980  1.2856
16559TIP3   OH271091   6.591   2.835   4.117  0.4745  0.4955 -0.7923
16559TIP3    H171092   6.609   2.890   4.041  0.1616 -0.1692 -1.3536
16559TIP3    H271093   6.566   2.897   4.186  0.8755  1.1093 -1.1865
16560TIP3   OH271094   0.898   4.820  12.042 -0.0908  0.0721 -0.5552
16560TIP3    H171095   0.954   4.833  12.118 -2.5562  3.7201  0.7421
16560TIP3    H271096   0.824   4.769  12.076 -0.3046  0.1243 -0.9457
16561TIP3   OH271097   5.970   4.476  13.308 -0.0721  0.4266 -0.6893
16561TIP3    H171098   6.063   4.497  13.306 -0.0657  0.3807 -1.1147
16561TIP3    H271099   5.935   4.524  13.383 -0.0017  1.7337 -1.4779
16562TIP3   OH271100   1.072   4.215   5.671  0.5560 -0.4851 -0.5221
16562TIP3    H171101   1.103   4.254   5.753  1.9968  0.0002 -1.2806
16562TIP3    H271102   0.995   4.267   5.649  0.7710  0.0692 -0.0153
16563TIP3   OH271103   0.770   0.218  11.803  0.3705  0.0146 -0.3914
16563TIP3    H171104   0.842   0.154  11.799  1.4939  1.1701  0.9064
16563TIP3    H271105   0.790   0.281  11.734 -0.3474 -0.6214 -1.1895
16564TIP3   OH271106   0.162   4.350  17.004 -0.2074 -0.4896 -0.6372
16564TIP3    H171107   0.074   4.314  16.994 -0.4347 -0.1623  0.1811
16564TIP3    H271108   0.220   4.274  17.003 -0.8718 -1.1606  3.7125
16565TIP3   OH271109   5.037   2.072  10.642 -0.1503  0.2550 -0.7846
16565TIP3    H171110   5.030   1.983  10.678  0.0324  0.7795  0.5917
16565TIP3    H271111   5.053   2.127  10.719 -0.2924  1.4836 -1.6302
16566TIP3   OH271112   5.943   5.720   4.043 -0.2097  0.7455  0.6262
16566TIP3    H171113   5.890   5.703   4.120 -0.8494  0.6204  0.1663
16566TIP3    H271114   6.027   5.751   4.077  0.1578 -1.0611  1.4140
16567TIP3   OH271115   5.517   6.452   5.355  0.2566 -0.2137 -0.7571
16567TIP3    H171116   5.593   6.495   5.315  0.1106 -0.0336 -0.8362
16567TIP3    H271117   5.463   6.523   5.388  0.5003 -0.3710 -0.0072
16568TIP3   OH271118   5.979   3.816  14.073 -0.5280 -0.1228 -0.4162
16568TIP3    H171119   5.906   3.810  14.134 -1.4597 -1.7764 -1.6345
16568TIP3    H271120   6.010   3.725  14.064 -0.2293  0.1399 -2.1701
16569TIP3   OH271121   3.158   6.063  10.705 -0.1173  0.4761 -0.0004
16569TIP3    H171122   3.228   6.030  10.761 -1.9036  0.9047  2.5600
16569TIP3    H271123   3.189   6.149  10.676  1.6907 -0.6080 -1.3784
16570TIP3   OH271124   2.431   4.906  11.963 -0.1801 -0.0925 -0.5796
16570TIP3    H171125   2.336   4.904  11.968 -0.1416  0.0070  0.2271
16570TIP3    H271126   2.460   4.922  12.052  0.5214  2.4375 -1.2274
16571TIP3   OH271127   4.574   1.484   1.613 -0.6682  0.7191  0.6501
16571TIP3    H171128   4.547   1.403   1.655  1.6238  0.3896  1.5390
16571TIP3    H271129   4.493   1.521   1.577 -1.7035 -1.9982  0.1279
16572TIP3   OH271130   2.631   2.300   4.581  0.1391 -0.5640  0.1340
16572TIP3    H171131   2.593   2.220   4.546  0.9827 -1.4847  1.2575
16572TIP3    H271132   2.616   2.366   4.513 -1.0510 -1.5371 -0.5674
16573TIP3   OH271133   3.551   0.379  17.051  0.6878 -0.6820 -0.4935
16573TIP3    H171134   3.615   0.406  16.985  0.6451 -1.0774 -0.6970
16573TIP3    H271135   3.599   0.320  17.109  0.6729 -0.4894 -0.2849
16574TIP3   OH271136   3.826   3.333  14.139  0.1197  0.0662  0.2232
16574TIP3    H171137   3.799   3.397  14.205 -1.3688  0.2435 -0.5442
16574TIP3    H271138   3.772   3.256  14.156  1.6869 -0.9118  0.9392
16575TIP3   OH271139   0.562   4.395  14.530  0.2101  0.6824 -0.1984
16575TIP3    H171140   0.495   4.463  14.529  1.2955  1.7510 -1.0812
16575TIP3    H271141   0.625   4.424  14.595 -0.4025 -0.5538  0.9654
16576TIP3   OH271142   0.365   4.625  12.664 -0.6335  0.1693  0.2217
16576TIP3    H171143   0.361   4.600  12.756 -0.3223 -1.7484 -0.2618
16576TIP3    H271144   0.317   4.707  12.659  1.3149  1.4971  2.4873
16577TIP3   OH271145   3.459   0.138   1.804  0.5701  0.5592  0.4911
16577TIP3    H171146   3.439   0.072   1.737  0.3665  1.7947 -0.6829
16577TIP3    H271147   3.387   0.130   1.867  0.8013 -0.6611  0.6120
16578TIP3   OH271148   2.404   6.575  13.200 -0.0680 -0.1281  0.0383
16578TIP3    H171149   2.464   6.569  13.273  1.1534  0.3463 -0.9082
16578TIP3    H271150   2.387   6.484  13.175  3.9637 -0.2823 -2.6353
16579TIP3   OH271151   1.178   2.515   4.573  0.8425 -0.0368 -0.0522
16579TIP3    H171152   1.258   2.563   4.595  1.2744 -0.6088 -0.3457
16579TIP3    H271153   1.112   2.583   4.559  1.0124  0.3869  1.2201
16580TIP3   OH271154   5.120   2.426  14.828 -0.1690 -0.3759  0.6931
16580TIP3    H171155   5.097   2.437  14.920 -0.7162 -1.0026  0.6292
16580TIP3    H271156   5.141   2.333  14.819  3.5085  0.3482  0.9978
16581TIP3   OH271157   1.794   6.730  14.457 -0.1014 -0.2990 -0.2010
16581TIP3    H171158   1.822   6.773  14.377 -1.6948  1.9949  0.4290
16581TIP3    H271159   1.699   6.738  14.457 -0.1601 -0.6678  1.7009
16582TIP3   OH271160   4.671   1.285  13.781  0.0081 -0.1428 -0.3238
16582TIP3    H171161   4.750   1.338  13.772 -0.3922  0.3999 -0.6980
16582TIP3    H271162   4.661   1.242  13.696 -1.8428  2.2619 -1.3872
16583TIP3   OH271163   2.932   4.666   0.764  0.4733  0.2069 -0.4366
16583TIP3    H171164   2.969   4.753   0.746 -0.0703  0.3678 -0.8170
16583TIP3    H271165   2.987   4.606   0.714 -0.3310  0.5383 -1.7712
16584TIP3   OH271166   1.794   2.663  16.083  0.3670  0.2389  0.0083
16584TIP3    H171167   1.873   2.713  16.101  0.1608  0.5932 -0.0770
16584TIP3    H271168   1.731   2.692  16.150  1.3034 -2.3536  2.1365
16585TIP3   OH271169   1.460   2.722  12.406  0.2792  0.2338 -0.6763
16585TIP3    H171170   1.433   2.726  12.498  0.2126  1.3502 -0.7388
16585TIP3    H271171   1.488   2.811  12.385  0.4086 -0.0426 -1.7032
16586TIP3   OH271172   0.964   2.370  16.507 -0.8266 -0.0393  0.0419
16586TIP3    H171173   0.976   2.305  16.438  0.3892  0.4049 -0.1693
16586TIP3    H271174   1.050   2.381  16.546 -1.0525  1.3155  0.1930
16587TIP3   OH271175   3.932   5.775   1.572 -0.4364 -0.3661  0.6390
16587TIP3    H171176   4.005   5.725   1.609  0.4118  1.6505  1.7831
16587TIP3    H271177   3.854   5.724   1.594  0.2050 -0.1571  3.6881
16588TIP3   OH271178   6.248   4.488   3.406 -0.1661 -0.1343  0.3490
16588TIP3    H171179   6.269   4.400   3.376 -0.5240 -0.5082  1.1638
16588TIP3    H271180   6.156   4.500   3.385  0.2901  0.6681 -1.2275
16589TIP3   OH271181   0.974   5.868   2.611 -0.1464 -0.0557  0.1761
16589TIP3    H171182   1.006   5.951   2.647  0.3693 -0.3709  0.4618
16589TIP3    H271183   1.054   5.822   2.583 -0.5723  0.3892 -1.8255
16590TIP3   OH271184   2.684   6.057   3.515 -0.4492  0.1195 -0.2322
16590TIP3    H171185   2.758   6.003   3.486 -1.3106 -0.5084 -1.2834
16590TIP3    H271186   2.648   6.010   3.591 -0.6565 -0.3361 -0.6083
16591TIP3   OH271187   1.179   3.038   2.263 -0.3020  0.2418 -1.1576
16591TIP3    H171188   1.185   2.957   2.212  1.5358  1.1400 -2.4156
16591TIP3    H271189   1.262   3.044   2.310 -0.0125  1.8686 -1.8257
16592TIP3   OH271190   6.288   6.486   5.900  0.2473  0.3401 -0.2954
16592TIP3    H171191   6.294   6.473   5.994 -0.4641 -0.4470 -0.3518
16592TIP3    H271192   6.236   6.567   5.890 -2.8013 -1.4995 -0.0368
16593TIP3   OH271193   1.633   4.568  11.501 -0.5193  0.4564  0.1068
16593TIP3    H171194   1.541   4.592  11.505 -0.5216  0.6889 -1.1186
16593TIP3    H271195   1.679   4.638  11.547 -0.9285  0.4395  0.5435
16594TIP3   OH271196   4.844   5.852   5.565 -0.5097  0.3486  0.0767
16594TIP3    H171197   4.935   5.878   5.581 -0.3220 -0.3062  0.0857
16594TIP3    H271198   4.798   5.876   5.646 -0.5407  1.5875 -0.3091
16595TIP3   OH271199   5.277   1.393   5.440  0.0583 -0.5921  0.1166
16595TIP3    H171200   5.196   1.391   5.389  0.4000  0.1007 -0.4485
16595TIP3    H271201   5.269   1.318   5.499 -1.9915  0.7450  1.6005
16596TIP3   OH271202   6.775   6.486   4.682 -0.7062  0.4395  0.7659
16596TIP3    H171203   6.750   6.545   4.610  1.5920  0.9775  0.3859
16596TIP3    H271204   6.812   6.544   4.748  0.5627 -0.4583  0.8560
16597TIP3   OH271205   0.589   0.357   1.626  0.2458 -0.1013 -0.0664
16597TIP3    H171206   0.545   0.289   1.676  0.0771  0.0768  0.0308
16597TIP3    H271207   0.672   0.318   1.598 -0.7169 -1.0073 -1.6905
16598TIP3   OH271208   0.804   0.905  16.231  0.3984 -0.0326  0.1293
16598TIP3    H171209   0.716   0.877  16.259  0.2515  1.1802  0.9238
16598TIP3    H271210   0.846   0.825  16.201 -0.7458 -0.7494  0.4078
16599TIP3   OH271211   4.503   2.490   0.517  0.6149 -0.6254  0.5158
16599TIP3    H171212   4.518   2.582   0.496 -0.1272  0.1891  3.3726
16599TIP3    H271213   4.586   2.461   0.557  0.8323 -1.1981 -0.3346
16600TIP3   OH271214   5.819   5.001   3.778  0.7662  0.1500  0.5065
16600TIP3    H171215   5.762   4.975   3.851  1.1013  0.3097  0.8274
16600TIP3    H271216   5.900   5.029   3.820  0.4037  1.7686  0.1931
16601TIP3   OH271217   3.467   5.125   2.567  0.4608 -0.2403  0.4790
16601TIP3    H171218   3.435   5.197   2.512 -0.6773 -0.8465  0.3370
16601TIP3    H271219   3.559   5.145   2.581 -0.0943  1.8327  1.3323
16602TIP3   OH271220   6.348   5.832  14.689  0.3642 -0.1867  0.4262
16602TIP3    H171221   6.420   5.779  14.722  0.0853 -0.7697  0.1161
16602TIP3    H271222   6.321   5.885  14.764  2.1313  1.1710  0.1066
16603TIP3   OH271223   1.741   1.458   3.382  0.1681  0.0970 -0.5759
16603TIP3    H171224   1.751   1.547   3.418  0.1262 -0.1657  0.0936
16603TIP3    H271225   1.711   1.472   3.292 -1.2487  0.7604 -0.0210
16604TIP3   OH271226   6.006   0.030   3.724  0.1855 -0.0252 -0.1037
16604TIP3    H171227   5.921  -0.012   3.719 -0.2400  0.8600 -0.4600
16604TIP3    H271228   6.024   0.060   3.635 -0.9746  3.3250  0.6946
16605TIP3   OH271229   5.340   0.270  13.517  0.2275 -0.2835 -0.3027
16605TIP3    H171230   5.399   0.333  13.558  0.5235 -0.0035 -1.1483
16605TIP3    H271231   5.310   0.314  13.438 -1.2178 -0.3762  0.1810
16606TIP3   OH271232   0.660   0.388   5.185  0.9916  0.2379  0.5439
16606TIP3    H171233   0.741   0.338   5.172  0.9806  0.9485 -2.5170
16606TIP3    H271234   0.681   0.476   5.153 -1.2896  0.1626 -1.2640
16607TIP3   OH271235   1.901   5.897  14.648 -0.7919 -0.1111 -1.1309
16607TIP3    H171236   1.898   5.946  14.729  0.0372 -0.8328 -0.6506
16607TIP3    H271237   1.953   5.819  14.669  0.3648  0.2300 -2.6295
16608TIP3   OH271238   1.710   5.778   2.197  0.4201  0.8242  0.2432
16608TIP3    H171239   1.691   5.827   2.117  0.1896  0.3609  0.0125
16608TIP3    H271240   1.688   5.839   2.268 -1.9502  0.3302 -0.0060
16609TIP3   OH271241   2.632   4.301   1.224  0.3568 -0.4440  0.2188
16609TIP3    H171242   2.593   4.227   1.271 -0.0347 -0.0688  0.4899
16609TIP3    H271243   2.686   4.260   1.156  0.6890 -0.9825  0.8037
16610TIP3   OH271244   4.414   6.589   0.389  0.2170  0.6227 -0.7324
16610TIP3    H171245   4.490   6.582   0.447  0.6875  0.1496 -1.3894
16610TIP3    H271246   4.339   6.586   0.447  0.7179  2.4362  0.0540
16611TIP3   OH271247   3.547   5.752  14.419 -0.1096 -0.2373  0.3117
16611TIP3    H171248   3.607   5.815  14.458 -0.7690  0.6973 -0.1764
16611TIP3    H271249   3.595   5.716  14.344  0.1851 -0.1688  0.4693
16612TIP3   OH271250   4.409   5.741   5.060  0.0533 -0.2960 -0.2745
16612TIP3    H171251   4.450   5.673   5.006  0.8034 -1.4940  1.7769
16612TIP3    H271252   4.316   5.721   5.055  0.1513 -0.6721 -0.7518
16613TIP3   OH271253   5.860   2.601   4.530 -0.3827  0.0466  0.4630
16613TIP3    H171254   5.945   2.562   4.553 -0.4535 -1.3319 -1.5703
16613TIP3    H271255   5.802   2.526   4.515 -0.7677  0.9171 -2.5565
16614TIP3   OH271256   1.034   1.380   1.045 -0.2941  0.3281 -0.4698
16614TIP3    H171257   1.074   1.442   0.984  0.6198 -0.6666 -0.8907
16614TIP3    H271258   0.944   1.369   1.013  0.5719 -1.2246 -2.4668
16615TIP3   OH271259   1.275   0.415  16.328  0.7838  0.7868 -0.4864
16615TIP3    H171260   1.308   0.472  16.259  0.7121  0.9597 -0.3781
16615TIP3    H271261   1.331   0.337  16.323 -1.6998 -0.9496 -3.4115
16616TIP3   OH271262   5.293   6.277  14.178  0.2120 -0.8727  0.1047
16616TIP3    H171263   5.234   6.204  14.195 -1.6724  0.9412  1.6323
16616TIP3    H271264   5.292   6.288  14.083 -3.5777  0.3829  0.1897
16617TIP3   OH271265   4.090   2.234   3.356 -0.2624  0.2680  0.4787
16617TIP3    H171266   4.021   2.299   3.367 -1.1346 -0.8489  1.5713
16617TIP3    H271267   4.168   2.286   3.333 -0.8652  1.7277  1.7032
16618TIP3   OH271268   5.102   5.683   3.863  0.2428  0.3024  0.0647
16618TIP3    H171269   5.158   5.718   3.793 -0.5672  0.2669 -0.6140
16618TIP3    H271270   5.156   5.688   3.942  1.4701 -0.4279 -0.7095
16619TIP3   OH271271   6.180   0.878  15.075 -0.1127  0.1824 -0.1393
16619TIP3    H171272   6.203   0.785  15.069 -2.7628 -0.4577 -0.7744
16619TIP3    H271273   6.130   0.885  15.156  1.1357  1.3297  0.5597
16620TIP3   OH271274   5.721   5.670   3.540  0.2755 -0.1262 -0.3359
16620TIP3    H171275   5.785   5.733   3.572  0.1442  0.2456 -0.7995
16620TIP3    H271276   5.764   5.585   3.550  1.1375  0.1866 -1.3491
16621TIP3   OH271277   0.366   3.949   5.756 -0.6709  0.5528  0.3420
16621TIP3    H171278   0.315   3.905   5.824 -0.9686  1.5091  0.7497
16621TIP3    H271279   0.301   4.003   5.710 -0.7509 -1.1358 -1.6031
16622TIP3   OH271280   3.973   2.175  16.407 -0.1379  0.4870  0.0995
16622TIP3    H171281   3.918   2.156  16.482  1.7034 -2.4681  0.8255
16622TIP3    H271282   3.919   2.153  16.331 -0.7110 -0.2708  0.7202
16623TIP3   OH271283   6.577   5.501  16.983  0.2770  0.1831 -0.3183
16623TIP3    H171284   6.516   5.543  17.044 -0.5206 -1.4184  0.0259
16623TIP3    H271285   6.521   5.466  16.914  0.9096 -0.4046 -0.5373
16624TIP3   OH271286   2.777   4.035   0.857 -0.1131  0.6316  0.2354
16624TIP3    H171287   2.747   3.944   0.853  1.0221  0.2382  0.3343
16624TIP3    H271288   2.822   4.048   0.773  0.1886  0.9250  0.4417
16625TIP3   OH271289   4.185   0.470  14.346  0.0737 -0.5934 -0.1277
16625TIP3    H171290   4.173   0.501  14.256 -0.6967 -1.1395 -0.2114
16625TIP3    H271291   4.265   0.417  14.342 -0.5248 -1.4650 -0.7103
16626TIP3   OH271292   6.062   2.591   4.259 -0.0413 -0.0280  0.0804
16626TIP3    H171293   6.094   2.679   4.276 -0.3074  0.4661 -1.7942
16626TIP3    H271294   5.967   2.602   4.249  0.2263  0.0230 -3.0892
16627TIP3   OH271295   1.977   1.982   4.827  0.1841  0.9984  0.7361
16627TIP3    H171296   1.904   2.014   4.775 -0.6524  0.0646  1.3128
16627TIP3    H271297   1.938   1.957   4.911  1.4751  2.2592  1.7354
16628TIP3   OH271298   4.549   3.969  12.729 -0.3263 -0.0987 -0.2870
16628TIP3    H171299   4.634   3.983  12.770 -0.3266 -1.8456  0.3550
16628TIP3    H271300   4.568   3.948  12.638 -0.0099 -1.6037  0.1292
16629TIP3   OH271301   0.946   2.297  13.385  0.2870  0.3375  0.7098
16629TIP3    H171302   0.932   2.348  13.305  2.8656 -1.3078 -0.8642
16629TIP3    H271303   1.010   2.230  13.360  0.2276 -0.9831  3.8511
16630TIP3   OH271304   1.503   2.174   2.518  0.6390  0.3223 -0.0716
16630TIP3    H171305   1.443   2.122   2.572  1.0323  0.1539  0.2014
16630TIP3    H271306   1.463   2.171   2.430  0.3132  0.1067  0.0803
16631TIP3   OH271307   5.057   4.284   3.072 -0.1133  0.3494  0.0481
16631TIP3    H171308   5.114   4.352   3.108 -1.5774  0.8936  1.3831
16631TIP3    H271309   5.094   4.202   3.105  0.9570  0.5609 -0.5897
16632TIP3   OH271310   4.505   4.201   4.249 -0.0360 -0.2599 -0.0419
16632TIP3    H171311   4.483   4.272   4.188  1.0927 -0.1133 -0.2911
16632TIP3    H271312   4.463   4.226   4.331 -2.0494 -0.7354 -0.8996
16633TIP3   OH271313   6.008   2.852   3.205  0.1769 -0.0626 -0.1770
16633TIP3    H171314   6.031   2.760   3.214  0.0234 -0.1487 -0.6435
16633TIP3    H271315   6.078   2.890   3.152  0.8273  0.3339  0.9609
16634TIP3   OH271316   2.832   0.251   4.328 -0.4195  0.1694 -0.1623
16634TIP3    H171317   2.818   0.334   4.283 -0.5191  0.1915 -0.0909
16634TIP3    H271318   2.794   0.264   4.415  0.2321  0.2999  0.1061
16635TIP3   OH271319   3.103   3.198   0.186  0.2845 -0.1328 -0.1004
16635TIP3    H171320   3.064   3.215   0.100  0.4927  0.5509 -0.0602
16635TIP3    H271321   3.185   3.247   0.185 -1.0494  2.2080  1.5495
16636TIP3   OH271322   2.639   1.771   4.913 -0.0371  0.4357 -0.1918
16636TIP3    H171323   2.693   1.760   4.835 -0.5857 -0.3344 -0.4610
16636TIP3    H271324   2.569   1.830   4.885  0.4399  1.1254  0.0519
16637TIP3   OH271325   5.696   1.436  11.906 -0.0376 -0.9854 -0.2936
16637TIP3    H171326   5.686   1.341  11.907 -0.9180 -0.9204  2.8960
16637TIP3    H271327   5.791   1.451  11.914 -0.0897 -1.6319  1.8471
16638TIP3   OH271328   2.663   2.364   1.146 -0.6071  0.5285  0.0027
16638TIP3    H171329   2.672   2.298   1.077  0.6159 -0.1525  0.7768
16638TIP3    H271330   2.752   2.375   1.180 -0.9626  1.8813  0.5307
16639TIP3   OH271331   3.239   5.367   0.997 -0.4867  0.1120  0.8060
16639TIP3    H171332   3.191   5.439   0.957  0.1037  1.6078  2.7538
16639TIP3    H271333   3.205   5.289   0.953 -1.0854  1.5580 -1.3617
16640TIP3   OH271334   2.249   3.669   5.439  0.0932 -0.6679 -0.2900
16640TIP3    H171335   2.251   3.662   5.535 -1.9951 -1.1251 -0.2509
16640TIP3    H271336   2.243   3.579   5.408 -0.4176 -0.4611 -0.8025
16641TIP3   OH271337   4.969   4.034   2.486 -0.8392  0.0103 -0.0800
16641TIP3    H171338   4.889   3.987   2.510  0.5367 -0.9974  2.7129
16641TIP3    H271339   4.938   4.109   2.435 -3.8159  1.0551  3.0556
16642TIP3   OH271340   3.696   4.501  13.464 -0.1154 -0.1164 -0.0144
16642TIP3    H171341   3.782   4.474  13.430  0.4402  0.2103  1.1190
16642TIP3    H271342   3.714   4.535  13.551 -1.4832 -0.5245  0.4404
16643TIP3   OH271343   3.833   0.286  16.439 -0.2785  0.4737  0.2245
16643TIP3    H171344   3.922   0.273  16.470  0.2031 -0.4790 -1.4834
16643TIP3    H271345   3.794   0.347  16.502  1.7666  1.3976  0.6403
16644TIP3   OH271346   2.775   1.074  12.144  0.2853  0.4197  0.1217
16644TIP3    H171347   2.859   1.102  12.179  1.1515 -0.0055 -1.5434
16644TIP3    H271348   2.781   0.979  12.141  0.2588  0.4543 -1.2149
16645TIP3   OH271349   5.138   5.673   3.335 -0.5243  0.2617  0.3342
16645TIP3    H171350   5.154   5.698   3.244 -0.4411 -0.3402  0.1762
16645TIP3    H271351   5.221   5.635   3.364 -0.7285 -0.0760  0.4785
16646TIP3   OH271352   5.587   1.270  12.249 -0.3997 -0.8538  0.6733
16646TIP3    H171353   5.614   1.180  12.265  2.3423 -0.1893  0.0578
16646TIP3    H271354   5.643   1.323  12.306  2.0595  0.7871 -3.0053
16647TIP3   OH271355   5.992   1.764  14.785  0.0744 -0.0026 -0.5175
16647TIP3    H171356   5.905   1.802  14.801 -0.2168 -1.1108  0.6067
16647TIP3    H271357   6.044   1.795  14.859  0.1847 -0.7251 -0.2965
16648TIP3   OH271358   4.718   1.747  16.527  0.0492 -0.2831 -0.0013
16648TIP3    H171359   4.687   1.682  16.591 -3.5579 -0.4931 -1.8716
16648TIP3    H271360   4.761   1.695  16.459 -0.1901 -0.4511 -0.0231
16649TIP3   OH271361   4.164   1.148   3.809 -0.1596  0.0450  0.4472
16649TIP3    H171362   4.247   1.100   3.813  0.8591  1.8439  1.4378
16649TIP3    H271363   4.128   1.142   3.897  0.1387  1.3375  0.6716
16650TIP3   OH271364   2.769   5.314   1.167 -0.2342 -0.0742  0.6515
16650TIP3    H171365   2.719   5.331   1.247 -0.6648 -1.4058  0.6747
16650TIP3    H271366   2.860   5.327   1.192 -0.5103  1.7584  0.7679
16651TIP3   OH271367   2.405   6.359  11.554  0.1765  0.3729 -0.3405
16651TIP3    H171368   2.385   6.269  11.527 -1.3606  0.5912  0.0327
16651TIP3    H271369   2.373   6.413  11.482 -1.8363  0.8135  0.8703
16652TIP3   OH271370   0.180   1.426  14.692 -0.1876 -0.1895  0.1865
16652TIP3    H171371   0.255   1.378  14.728 -1.0029 -1.1901  0.5896
16652TIP3    H271372   0.219   1.497  14.641  1.0331 -0.9932 -0.0128
16653TIP3   OH271373   1.984   3.171   1.748  0.6717 -0.4535 -0.3658
16653TIP3    H171374   1.995   3.083   1.713  0.0918 -1.1890  1.2578
16653TIP3    H271375   1.897   3.198   1.718  1.1717 -0.1096 -1.5305
16654TIP3   OH271376   1.385   1.439   3.274  0.4353  0.2472  0.3989
16654TIP3    H171377   1.399   1.360   3.326  0.5882  0.3771  0.5553
16654TIP3    H271378   1.348   1.503   3.336  1.4551  0.6881  0.5584
16655TIP3   OH271379   1.142   0.501   1.247 -0.1489  0.4200  0.5999
16655TIP3    H171380   1.208   0.439   1.280  0.9252  1.2001 -0.0575
16655TIP3    H271381   1.174   0.587   1.276 -1.8904  0.6303  1.9437
16656TIP3   OH271382   0.410   1.220   3.591 -0.7289  0.3157  0.1079
16656TIP3    H171383   0.468   1.238   3.665  0.0878 -0.3485 -0.3740
16656TIP3    H271384   0.417   1.297   3.535 -1.0299  0.6373  0.5052
16657TIP3   OH271385   2.956   2.197   5.356  0.2990  0.1772  0.5520
16657TIP3    H171386   2.912   2.268   5.401  0.7914  0.0523  1.2429
16657TIP3    H271387   3.049   2.217   5.363  0.3476  0.8425 -1.5681
16658TIP3   OH271388   0.620   5.260  10.899 -0.0134 -0.7662 -0.2107
16658TIP3    H171389   0.661   5.215  10.974  1.6817 -0.0889 -0.7308
16658TIP3    H271390   0.691   5.275  10.838 -0.9167  1.0702 -0.8250
16659TIP3   OH271391   2.004   4.666   3.654  0.1669  0.5388 -0.1353
16659TIP3    H171392   2.023   4.677   3.560  0.3772 -0.0453 -0.1620
16659TIP3    H271393   1.948   4.589   3.658  0.1571  0.5635  0.2249
16660TIP3   OH271394   0.604   3.687   1.596 -0.2794 -0.2889 -0.1646
16660TIP3    H171395   0.673   3.646   1.544 -0.6347  0.3313 -1.1373
16660TIP3    H271396   0.530   3.695   1.536 -1.5084 -1.7438  1.0931
16661TIP3   OH271397   1.083   4.627   3.603 -0.4414  0.0292 -0.1315
16661TIP3    H171398   1.154   4.610   3.664 -0.6848  2.0941  0.7755
16661TIP3    H271399   1.125   4.670   3.529 -0.8989  2.6231  1.0561
16662TIP3   OH271400   1.927   1.613  15.573  0.7165 -0.1852  0.1488
16662TIP3    H171401   1.959   1.523  15.579 -1.6832 -1.1415 -0.7205
16662TIP3    H271402   1.903   1.624  15.481  0.2502  1.0844  0.4092
16663TIP3   OH271403   4.455   2.617  11.534 -0.1602  0.2427 -0.5647
16663TIP3    H171404   4.428   2.686  11.473  1.2675  0.1506 -1.3189
16663TIP3    H271405   4.425   2.536  11.492 -1.4306  0.3490  0.1005
16664TIP3   OH271406   1.199   5.262  11.806  0.1465  0.3054 -0.5120
16664TIP3    H171407   1.288   5.284  11.834 -0.3249  2.6795 -0.7500
16664TIP3    H271408   1.160   5.221  11.883  1.1972 -0.0332 -0.1439
16665TIP3   OH271409   5.347   3.623  13.261  0.1348 -0.5437  0.3441
16665TIP3    H171410   5.296   3.653  13.336  2.5933 -0.0589  1.8961
16665TIP3    H271411   5.392   3.544  13.292  2.2385  0.4171 -0.1152
16666TIP3   OH271412   0.604   2.863   6.158 -0.7655 -0.0211 -0.8023
16666TIP3    H171413   0.523   2.824   6.126 -0.1056 -1.5381 -0.6524
16666TIP3    H271414   0.576   2.920   6.229 -1.9450  1.2838 -2.2642
16667TIP3   OH271415   2.853   5.483   3.466  0.4507 -0.1900  0.2676
16667TIP3    H171416   2.934   5.498   3.516  0.0168 -1.7304  1.4708
16667TIP3    H271417   2.785   5.523   3.520 -0.0238 -1.8825  0.9478
16668TIP3   OH271418   3.401   2.723  11.712  0.3067 -0.2126 -0.1475
16668TIP3    H171419   3.447   2.655  11.663  0.8248  0.1219 -0.1349
16668TIP3    H271420   3.471   2.777  11.749 -0.1062  0.5188 -0.4285
16669TIP3   OH271421   2.011   1.706   0.662 -0.1137 -0.0373  0.4068
16669TIP3    H171422   2.057   1.700   0.579 -1.6503 -0.0259 -0.4673
16669TIP3    H271423   2.077   1.685   0.728  1.0649 -0.2509 -0.8219
16670TIP3   OH271424   0.879   0.947  15.078  0.1006  0.4084 -0.5258
16670TIP3    H171425   0.905   0.971  14.989 -2.1558  0.7749 -1.1063
16670TIP3    H271426   0.851   1.030  15.118 -2.4965 -0.3255 -0.7418
16671TIP3   OH271427   3.659   0.483  16.041  0.3696  0.1007 -0.3305
16671TIP3    H171428   3.694   0.483  16.130 -0.6031  2.6523  0.1309
16671TIP3    H271429   3.734   0.464  15.985  1.5175  0.8647  0.9082
16672TIP3   OH271430   6.663   1.741   1.669 -0.1955 -0.0886 -0.0148
16672TIP3    H171431   6.574   1.733   1.704 -0.8018  0.0114 -1.5243
16672TIP3    H271432   6.693   1.651   1.660 -0.0611 -0.1192  0.6741
16673TIP3   OH271433   2.657   3.340   1.800 -0.2292 -0.5611 -0.2293
16673TIP3    H171434   2.710   3.294   1.735 -0.4254 -1.0935 -0.0226
16673TIP3    H271435   2.576   3.289   1.804 -0.1969 -0.5593  0.4694
16674TIP3   OH271436   5.082   3.003   2.926  0.1111  0.1277  0.0676
16674TIP3    H171437   5.040   3.001   3.012 -0.8140  0.1031 -0.3790
16674TIP3    H271438   5.159   3.059   2.938 -0.0003  0.1047  0.9147
16675TIP3   OH271439   1.697   2.592   5.439 -0.2570  0.3035  0.2613
16675TIP3    H171440   1.673   2.586   5.346  0.7241 -1.3228  0.0829
16675TIP3    H271441   1.674   2.506   5.475 -0.5359  0.8908  1.4980
16676TIP3   OH271442   5.007   1.320   2.658 -0.4631  0.5411  0.2037
16676TIP3    H171443   5.015   1.383   2.587  0.2794 -0.6899 -0.8385
16676TIP3    H271444   4.924   1.341   2.701 -1.6795  0.3447 -2.0036
16677TIP3   OH271445   1.947   3.178  16.078 -0.2923  0.7462 -0.5379
16677TIP3    H171446   1.947   3.214  15.990  1.5480 -2.2793 -1.8556
16677TIP3    H271447   2.022   3.218  16.121  0.0094  0.6807 -1.0067
16678TIP3   OH271448   5.763   3.447   0.181 -0.0359  0.3365 -0.5749
16678TIP3    H171449   5.733   3.482   0.265  1.4448 -1.9913  0.9836
16678TIP3    H271450   5.854   3.475   0.174  0.2652 -0.6650 -0.7377
16679TIP3   OH271451   3.918   6.572  15.820 -0.1723  0.5160 -0.0274
16679TIP3    H171452   3.900   6.478  15.810  1.9518  0.4084 -3.9555
16679TIP3    H271453   3.954   6.580  15.908 -0.8924 -2.2735  0.5692
16680TIP3   OH271454   2.270   4.028  10.717 -0.0595  0.2996  0.1337
16680TIP3    H171455   2.216   4.060  10.645 -1.1327  0.5485  1.0383
16680TIP3    H271456   2.316   3.952  10.680 -1.6902 -0.4577 -0.4037
16681TIP3   OH271457   0.372   1.617  15.481 -0.7182  0.4680 -0.0953
16681TIP3    H171458   0.359   1.626  15.575 -3.0155 -1.1629 -0.2038
16681TIP3    H271459   0.328   1.693  15.443  0.9784  1.6056  0.1577
16682TIP3   OH271460   3.269   5.201  14.469  0.0345 -0.1561 -0.5637
16682TIP3    H171461   3.268   5.267  14.399  0.9940  1.0134  0.4948
16682TIP3    H271462   3.283   5.252  14.549  0.7221 -1.6511  0.2786
16683TIP3   OH271463   2.579   2.180   3.690  0.0020 -0.3111  0.3110
16683TIP3    H171464   2.516   2.146   3.753  1.1222  0.5464  1.9137
16683TIP3    H271465   2.661   2.137   3.712 -0.0660 -1.7466 -2.0434
16684TIP3   OH271466   3.717   4.615   0.004  0.1955  0.4066  0.4874
16684TIP3    H171467   3.658   4.567  -0.055  0.6269 -0.2166  0.5530
16684TIP3    H271468   3.671   4.697   0.023 -1.2411 -0.6329  1.5940
16685TIP3   OH271469   5.763   3.286  12.652 -1.0461  0.4780  0.1868
16685TIP3    H171470   5.708   3.219  12.693 -1.5061 -0.8323 -2.4631
16685TIP3    H271471   5.851   3.250  12.656 -0.8861  0.9589  1.1900
16686TIP3   OH271472   5.739   4.522   3.560 -0.2621 -0.5627  0.0917
16686TIP3    H171473   5.720   4.563   3.644  0.3996 -0.9062  0.4174
16686TIP3    H271474   5.681   4.446   3.557 -2.5951  1.2077 -1.1911
16687TIP3   OH271475   6.429   1.727   2.396 -0.4489 -0.1170 -0.2707
16687TIP3    H171476   6.390   1.647   2.359 -0.1516  0.1541 -1.1876
16687TIP3    H271477   6.516   1.732   2.355  1.5991 -2.0436  3.5670
16688TIP3   OH271478   3.448   1.549   4.390  0.0911  0.6860  0.3665
16688TIP3    H171479   3.457   1.454   4.400 -1.3964  0.5319  0.3793
16688TIP3    H271480   3.498   1.570   4.311 -1.0222 -0.3778 -0.6415
16689TIP3   OH271481   4.559   0.621  13.475 -0.1735 -0.2841  0.0745
16689TIP3    H171482   4.586   0.585  13.390 -2.0033 -2.4510  0.3652
16689TIP3    H271483   4.474   0.661  13.458 -0.6190 -0.8677  0.9126
16690TIP3   OH271484   2.726   2.188   5.718  0.0546 -0.3021  0.8769
16690TIP3    H171485   2.821   2.201   5.715 -0.0397  0.5998  1.5439
16690TIP3    H271486   2.711   2.107   5.669  1.0291  0.2976 -0.4458
16691TIP3   OH271487   6.530   4.687   4.600  0.1202 -0.0333  0.3340
16691TIP3    H171488   6.600   4.719   4.542  0.6788  0.2846  1.1809
16691TIP3    H271489   6.456   4.673   4.541 -0.6238  4.1431  0.1052
16692TIP3   OH271490   2.136   3.085  16.737  0.1036 -0.3683  0.3318
16692TIP3    H171491   2.138   3.062  16.829  0.5646  1.4582  0.8041
16692TIP3    H271492   2.066   3.149  16.730  0.9017  0.4499 -0.3420
16693TIP3   OH271493   4.821   2.225  10.580  0.2734  0.8425  0.1555
16693TIP3    H171494   4.777   2.224  10.664  0.3937  1.1201  0.2234
16693TIP3    H271495   4.878   2.148  10.581  0.2382  0.8184  0.3081
16694TIP3   OH271496   5.307   6.560   2.548  0.2632  0.3229 -0.5547
16694TIP3    H171497   5.340   6.470   2.552 -0.5918  0.0203 -0.1204
16694TIP3    H271498   5.273   6.569   2.460 -0.6648 -0.1527 -0.2521
16695TIP3   OH271499   4.482   5.640   3.773  0.8099  0.0069  0.0610
16695TIP3    H171500   4.546   5.678   3.712  1.8080 -0.5818  0.7290
16695TIP3    H271501   4.528   5.565   3.812 -0.9167 -1.5614 -0.8141
16696TIP3   OH271502   2.151   1.591   0.383 -0.4787 -0.4876 -0.1796
16696TIP3    H171503   2.154   1.579   0.288 -2.4006 -0.0529 -0.3059
16696TIP3    H271504   2.059   1.586   0.405 -0.0155 -0.9209  1.7310
16697TIP3   OH271505   4.030   0.125  12.835  0.4582 -0.3962  0.7741
16697TIP3    H171506   4.055   0.138  12.743  0.4926  0.2259  0.8680
16697TIP3    H271507   3.938   0.096  12.831 -0.0403  1.1453  0.6052
16698TIP3   OH271508   1.384   6.634  11.314  0.3903 -0.0838  0.0925
16698TIP3    H171509   1.334   6.562  11.273  1.3140 -0.0181 -1.1844
16698TIP3    H271510   1.459   6.646  11.256  1.1352  0.7815  1.2346
16699TIP3   OH271511   2.796   0.876   2.154  0.6176 -0.0742  0.0406
16699TIP3    H171512   2.716   0.882   2.206  2.3225 -1.3597  2.9397
16699TIP3    H271513   2.823   0.785   2.161  2.1609  0.2476 -1.2346
16700TIP3   OH271514   1.044   2.885  11.395 -0.0210 -0.2916 -0.0993
16700TIP3    H171515   1.096   2.898  11.316  0.3956  0.6306  0.3087
16700TIP3    H271516   0.977   2.953  11.391 -1.1150 -1.3839 -0.5525
16701TIP3   OH271517   6.025   4.109   5.262  0.2595  0.1819  0.9295
16701TIP3    H171518   6.078   4.110   5.182 -1.6796 -0.9152 -0.3992
16701TIP3    H271519   6.013   4.201   5.284  4.2136  0.4877  2.3225
16702TIP3   OH271520   1.031   5.771   3.344  0.3315  0.2517  0.1321
16702TIP3    H171521   1.047   5.865   3.335  1.9347 -0.1579 -1.3373
16702TIP3    H271522   1.101   5.740   3.402 -0.1803 -0.0439  0.5968
16703TIP3   OH271523   4.211   1.406  14.082 -0.1401  0.4073  0.0815
16703TIP3    H171524   4.254   1.468  14.140 -0.4803 -1.0021  1.8813
16703TIP3    H271525   4.202   1.326  14.134 -0.5014 -0.8772 -1.8891
16704TIP3   OH271526   4.576   1.894   4.742 -0.2070 -0.4187  0.0134
16704TIP3    H171527   4.514   1.947   4.692 -1.2252 -0.1475  1.5433
16704TIP3    H271528   4.541   1.893   4.831  1.5513 -0.9350  0.7237
16705TIP3   OH271529   4.727   2.873  11.982 -1.4201 -0.3927 -0.2449
16705TIP3    H171530   4.785   2.930  11.932  0.3464 -1.0321  1.0137
16705TIP3    H271531   4.657   2.931  12.012  0.9405  1.4837  2.0045
16706TIP3   OH271532   2.637   5.401  16.764 -0.3776  0.2341  0.4643
16706TIP3    H171533   2.693   5.434  16.834 -0.1698  0.8293  0.0301
16706TIP3    H271534   2.555   5.379  16.807  0.9270 -2.8170  1.5076
16707TIP3   OH271535   0.792   2.162   4.882 -0.2839  0.3414  0.5793
16707TIP3    H171536   0.859   2.231   4.881  0.5318 -0.4340  1.2497
16707TIP3    H271537   0.747   2.173   4.966 -1.9822  1.7846 -0.4940
16708TIP3   OH271538   3.260   2.331  12.477  0.0217  0.8053  0.6479
16708TIP3    H171539   3.306   2.397  12.425  0.9912  0.5069  1.1145
16708TIP3    H271540   3.204   2.382  12.536  1.9620  1.2861  2.1169
16709TIP3   OH271541   0.496   0.862  12.524 -0.3735  0.1611  0.5448
16709TIP3    H171542   0.457   0.947  12.503  1.3154  1.0698  0.9902
16709TIP3    H271543   0.504   0.817  12.440 -1.6098  0.2841  0.3515
16710TIP3   OH271544   2.228   2.156  11.945  0.6802  0.4733  0.6015
16710TIP3    H171545   2.243   2.224  11.879  2.1332 -0.3893  0.0223
16710TIP3    H271546   2.148   2.184  11.990  0.7853  2.1254 -0.1864
16711TIP3   OH271547   2.471   6.197  12.425  0.0567 -0.5421  0.1657
16711TIP3    H171548   2.559   6.166  12.404 -0.5388 -2.7729  0.8882
16711TIP3    H271549   2.433   6.222  12.341  1.1769 -0.0667 -0.2087
16712TIP3   OH271550   4.435   2.152  11.315 -0.1525 -0.1714  0.4637
16712TIP3    H171551   4.469   2.082  11.258 -1.1296  1.0354 -1.6415
16712TIP3    H271552   4.342   2.131  11.325 -0.3904  0.6858  0.0408
16713TIP3   OH271553   6.013   3.806  16.666  0.3338 -0.1223  0.4934
16713TIP3    H171554   6.104   3.817  16.694  0.4353 -0.3568  0.2611
16713TIP3    H271555   6.019   3.786  16.573  0.0435 -0.1204  0.4734
16714TIP3   OH271556   4.880   6.003   3.913  0.2721 -0.0227  0.0209
16714TIP3    H171557   4.915   5.963   3.993  1.0292  0.4182 -0.0814
16714TIP3    H271558   4.882   5.933   3.848 -0.2660 -0.3604  0.3694
16715TIP3   OH271559   4.265   5.711  15.111 -0.3295  1.4554 -0.0758
16715TIP3    H171560   4.299   5.710  15.021 -3.1343  0.9951 -1.2107
16715TIP3    H271561   4.318   5.776  15.156  2.7740 -0.0769 -1.3681
16716TIP3   OH271562   1.380   5.003   0.765  0.0337  0.3957  0.0474
16716TIP3    H171563   1.316   4.985   0.696  1.1851 -1.2131 -0.6231
16716TIP3    H271564   1.429   5.079   0.732 -0.3657  0.5363 -0.2322
16717TIP3   OH271565   2.907   2.394   1.247  0.0130  0.2355  0.1091
16717TIP3    H171566   2.955   2.348   1.316 -2.1104 -1.2654  0.6513
16717TIP3    H271567   2.963   2.467   1.223  1.8509 -0.5835  1.7896
16718TIP3   OH271568   4.681   5.444   5.122  0.2898  0.0787  0.2178
16718TIP3    H171569   4.611   5.387   5.090 -0.7756  1.7937 -0.6575
16718TIP3    H271570   4.634   5.515   5.167  1.4762  1.0913 -0.1151
16719TIP3   OH271571   4.681   3.444  17.161  0.1498  0.1345  0.4440
16719TIP3    H171572   4.762   3.450  17.109  0.5133 -0.3592  0.9435
16719TIP3    H271573   4.699   3.497  17.238  0.4666 -0.9896  1.1501
16720TIP3   OH271574   3.169   1.380   3.807 -0.1825 -0.6911  0.3081
16720TIP3    H171575   3.108   1.339   3.745  0.9410 -1.5228 -0.2720
16720TIP3    H271576   3.226   1.309   3.835  1.1226  0.2610  0.1128
16721TIP3   OH271577   3.081   4.421  16.168  0.1522 -0.1086  0.0893
16721TIP3    H171578   3.100   4.464  16.085 -1.2127 -0.6999 -0.5467
16721TIP3    H271579   3.066   4.493  16.230 -0.6333  0.3459 -0.6130
16722TIP3   OH271580   3.074   6.168  14.273 -0.0620  0.3942  0.1985
16722TIP3    H171581   3.124   6.189  14.351  0.8876 -0.5654 -0.1380
16722TIP3    H271582   2.982   6.180  14.299  0.1948 -0.8036  1.7404
16723TIP3   OH271583   2.203   2.918  13.131  0.1298  0.0033 -0.0456
16723TIP3    H171584   2.276   2.858  13.112  0.7568  0.6111  0.4044
16723TIP3    H271585   2.125   2.863  13.127  0.6960 -0.8396  0.3455
16724TIP3   OH271586   3.678   1.336  16.518 -0.3627 -0.4343  0.0063
16724TIP3    H171587   3.585   1.349  16.534 -0.4145  0.8481 -1.2428
16724TIP3    H271588   3.682   1.278  16.442 -0.1691  1.4357 -1.4382
16725TIP3   OH271589   4.323   5.909   3.562 -0.2559  0.2826 -0.0545
16725TIP3    H171590   4.303   5.817   3.544  0.7721  0.0169  0.1107
16725TIP3    H271591   4.388   5.905   3.632 -2.6894  1.2158  2.3657
16726TIP3   OH271592   3.567   2.442   1.820  0.8656 -0.0309 -0.1006
16726TIP3    H171593   3.611   2.413   1.740  0.8365  1.0084 -0.4911
16726TIP3    H271594   3.625   2.414   1.891  1.8319  0.7545 -0.5774
16727TIP3   OH271595   5.877   6.312  10.144 -0.1953 -0.3223  0.5477
16727TIP3    H171596   5.862   6.399  10.180  0.3396  0.2497 -0.5512
16727TIP3    H271597   5.796   6.264  10.159 -0.3077  0.2017  1.6258
16728TIP3   OH271598   4.506   3.434   2.514 -0.0263 -0.1155  0.1911
16728TIP3    H171599   4.496   3.379   2.436  0.0836 -0.2539  0.2757
16728TIP3    H271600   4.532   3.520   2.480  0.1492 -0.2118  0.0849
16729TIP3   OH271601   2.478   5.942  12.331 -0.1156 -0.0145  0.2127
16729TIP3    H171602   2.433   5.970  12.252 -0.8194 -0.1989  0.5458
16729TIP3    H271603   2.462   6.013  12.394  1.7163  0.8630 -0.2632
16730TIP3   OH271604   1.699   0.308   4.916 -0.1519  0.4033 -0.1787
16730TIP3    H171605   1.745   0.385   4.950  0.9202 -0.6543  0.8098
16730TIP3    H271606   1.621   0.343   4.874  0.3907  2.0435  0.1626
16731TIP3   OH271607   6.289   5.213   3.842 -0.2159 -0.5217  0.0941
16731TIP3    H171608   6.254   5.280   3.783 -0.1500 -1.5338 -1.1118
16731TIP3    H271609   6.384   5.223   3.836 -0.2142  1.1119  2.0810
16732TIP3   OH271610   6.177   1.218  16.293 -0.6665 -0.5274  0.4218
16732TIP3    H171611   6.126   1.170  16.358 -2.1414 -0.3685 -0.6002
16732TIP3    H271612   6.256   1.245  16.340 -0.6121 -2.4379  1.4908
16733TIP3   OH271613   2.358   0.535  13.476  0.0690 -0.1479 -0.3496
16733TIP3    H171614   2.304   0.505  13.404  0.0080  1.2645 -0.9142
16733TIP3    H271615   2.433   0.476  13.477 -0.8663 -1.3477 -0.3471
16734TIP3   OH271616   2.046   1.077   3.362  0.1298  0.2220  0.7205
16734TIP3    H171617   2.139   1.070   3.383  0.4518  1.8486 -0.0692
16734TIP3    H271618   2.002   1.034   3.435  1.4960 -0.5538  1.1111
16735TIP3   OH271619   5.319   1.034  12.824  0.1042 -0.4213 -0.2810
16735TIP3    H171620   5.341   1.048  12.916 -1.0587 -0.0240 -0.0506
16735TIP3    H271621   5.346   1.114  12.780 -0.9493  0.1130  0.0198
16736TIP3   OH271622   6.735   0.687  12.784  0.2802  0.0676 -0.0811
16736TIP3    H171623   6.794   0.715  12.855  0.5321  0.0278 -0.2724
16736TIP3    H271624   6.789   0.691  12.705 -0.7647  2.7833 -0.7182
16737TIP3   OH271625   1.534   1.676  15.215  1.0599  0.2453  0.3309
16737TIP3    H171626   1.598   1.608  15.234  0.5086 -0.0925  1.0038
16737TIP3    H271627   1.520   1.720  15.299 -0.2941 -0.2983  0.3941
16738TIP3   OH271628   4.470   5.920  14.401 -0.1358  0.0030  0.0921
16738TIP3    H171629   4.437   5.967  14.325  0.4678  0.0547 -0.1414
16738TIP3    H271630   4.498   5.835  14.367 -1.4447 -0.6278  0.5561
16739TIP3   OH271631   5.914   1.492   2.201 -0.5874  0.3384  0.6974
16739TIP3    H171632   5.956   1.417   2.159  0.1371  1.5207 -0.7394
16739TIP3    H271633   5.845   1.518   2.141 -1.5233  0.1921  1.6902
16740TIP3   OH271634   1.331   3.761  15.934 -0.2689  0.6721  0.4595
16740TIP3    H171635   1.301   3.787  15.847 -1.8192  1.4381  1.1941
16740TIP3    H271636   1.316   3.666  15.937 -1.3209  0.8219  0.2979
16741TIP3   OH271637   6.369   0.741   1.569 -0.2169  0.4150  0.3451
16741TIP3    H171638   6.403   0.809   1.511 -0.0653 -0.7430 -0.9426
16741TIP3    H271639   6.377   0.660   1.519  0.3607 -0.6840  2.1650
16742TIP3   OH271640   5.810   3.866  12.318 -0.1464  0.6955 -0.2911
16742TIP3    H171641   5.897   3.907  12.310  1.1646 -1.7890  0.8303
16742TIP3    H271642   5.801   3.847  12.411 -0.6292 -1.7636 -0.8198
16743TIP3   OH271643   0.138   5.541  12.551  0.1597 -0.5425  0.3224
16743TIP3    H171644   0.109   5.632  12.557  0.2642 -0.5814  1.4930
16743TIP3    H271645   0.190   5.527  12.630  3.6138 -0.3850 -1.8270
16744TIP3   OH271646   0.268   5.463   0.081  0.1134 -0.6708  0.0703
16744TIP3    H171647   0.229   5.455  -0.006  1.6005  0.9095 -0.7824
16744TIP3    H271648   0.231   5.544   0.116  1.8405  0.3157 -0.3460
16745TIP3   OH271649   1.114   5.350   0.988 -0.2319  0.4103  0.3088
16745TIP3    H171650   1.073   5.360   1.074 -1.0643  0.6796 -0.1138
16745TIP3    H271651   1.179   5.420   0.984  0.9486 -0.5882  1.3562
16746TIP3   OH271652   5.621   1.111  14.181  0.0280  0.4486  0.2345
16746TIP3    H171653   5.682   1.155  14.240  0.5910 -1.4034  1.0832
16746TIP3    H271654   5.571   1.052  14.238  0.7531 -1.5542 -1.1594
16747TIP3   OH271655   0.889   5.944  16.113  0.1439  0.0637 -0.2269
16747TIP3    H171656   0.965   5.908  16.067  0.1451 -1.6625  1.0740
16747TIP3    H271657   0.822   5.875  16.106 -0.2296  0.2549  1.3330
16748TIP3   OH271658   6.161   1.476   3.665 -0.5383  0.2379 -0.1097
16748TIP3    H171659   6.133   1.541   3.601  0.1254  0.4929 -0.1475
16748TIP3    H271660   6.085   1.462   3.721 -0.7725  0.8270 -0.2850
16749TIP3   OH271661   4.944   2.386   2.348  0.1039 -0.0258  0.1662
16749TIP3    H171662   4.916   2.347   2.430  0.5351  0.1942  0.4253
16749TIP3    H271663   4.868   2.380   2.290  0.1707 -1.2386  0.2021
16750TIP3   OH271664   6.622   1.019   1.198 -0.3648 -0.4148 -0.0990
16750TIP3    H171665   6.656   1.108   1.211  0.9658 -0.8715 -0.2836
16750TIP3    H271666   6.545   1.030   1.143 -0.5404  0.6714  0.3422
16751TIP3   OH271667   0.436   6.120  11.216 -0.0462  0.2174  0.3174
16751TIP3    H171668   0.488   6.140  11.138 -0.3934 -1.6976 -0.4293
16751TIP3    H271669   0.464   6.033  11.243 -2.4524 -0.6481  0.2046
16752TIP3   OH271670   6.498   1.320   5.244  0.0620 -0.8038 -0.0706
16752TIP3    H171671   6.576   1.286   5.288 -0.8263 -1.9468  0.6413
16752TIP3    H271672   6.452   1.370   5.311 -1.1721 -2.3542  0.2825
16753TIP3   OH271673   3.422   3.850   0.629 -0.3707  0.0244  0.1117
16753TIP3    H171674   3.369   3.778   0.663 -0.4759  0.5366  1.0395
16753TIP3    H271675   3.436   3.827   0.537 -1.2750 -0.6642  0.1312
16754TIP3   OH271676   0.388   4.698  13.785  0.1308  0.6128 -0.3129
16754TIP3    H171677   0.464   4.754  13.800  0.8152 -0.5375  0.6287
16754TIP3    H271678   0.417   4.635  13.719 -0.1161  0.3913 -0.2126
16755TIP3   OH271679   6.017   5.368  13.131  0.1380 -0.0382  0.4656
16755TIP3    H171680   6.011   5.425  13.207  1.1022  0.2092  0.3559
16755TIP3    H271681   5.962   5.411  13.065  0.0015  0.1998  0.7347
16756TIP3   OH271682   2.247   3.531   6.392  0.3408 -0.4379  0.0814
16756TIP3    H171683   2.331   3.487   6.379 -0.1745 -1.2406 -0.5926
16756TIP3    H271684   2.265   3.599   6.457  1.2085 -1.4577  0.9261
16757TIP3   OH271685   1.898   1.082   1.005 -0.7411 -0.2772 -0.2732
16757TIP3    H171686   1.856   1.106   0.923 -0.2322 -0.3424 -0.5580
16757TIP3    H271687   1.869   0.992   1.021  1.0547 -1.1447 -1.6434
16758TIP3   OH271688   3.865   0.629   3.625  0.5987  0.0571  0.0676
16758TIP3    H171689   3.817   0.573   3.686  1.5651 -0.0876  0.7152
16758TIP3    H271690   3.814   0.625   3.544  0.1447 -1.0146  0.3899
16759TIP3   OH271691   6.287   0.478  12.636 -0.5022  0.3572 -0.4371
16759TIP3    H171692   6.286   0.469  12.732 -0.7448 -0.8113 -0.5413
16759TIP3    H271693   6.202   0.443  12.609  0.2757 -0.9808 -1.2112
16760TIP3   OH271694   6.429   2.433   3.308  0.2234  0.3794  0.3485
16760TIP3    H171695   6.438   2.516   3.260 -0.5242  1.3550  1.8581
16760TIP3    H271696   6.507   2.428   3.363 -1.1521  1.5764  2.4711
16761TIP3   OH271697   2.017   4.160   2.719  0.0243 -0.1121 -0.3408
16761TIP3    H171698   2.076   4.136   2.790  1.9618  1.1619 -1.4753
16761TIP3    H271699   1.984   4.076   2.686  1.5770 -0.8830  0.0154
16762TIP3   OH271700   2.270   6.082  11.953 -0.7503 -0.4224  0.0760
16762TIP3    H171701   2.254   6.133  11.874  2.7407  0.9308  0.1701
16762TIP3    H271702   2.187   6.085  12.001 -1.4921  2.7266 -1.3047
16763TIP3   OH271703   5.120   1.169  11.732 -0.0626  0.3108  0.1110
16763TIP3    H171704   5.146   1.260  11.747  0.8985  0.1589 -0.5609
16763TIP3    H271705   5.026   1.172  11.716  0.0145  1.2169 -0.1762
16764TIP3   OH271706   1.490   0.002  14.456  0.3611 -0.7963 -0.1568
16764TIP3    H171707   1.466   0.056  14.381 -1.1891 -0.7284  0.3759
16764TIP3    H271708   1.491  -0.088  14.422  0.7360 -0.6613 -0.5057
16765TIP3   OH271709   2.521   5.924  14.168  0.0591 -0.1530  0.3727
16765TIP3    H171710   2.535   5.830  14.177  3.0446  0.3370  1.2889
16765TIP3    H271711   2.609   5.961  14.158 -1.0741  2.5366 -0.1240
16766TIP3   OH271712   6.466   2.453   4.373 -0.6227 -0.3822 -0.4815
16766TIP3    H171713   6.418   2.386   4.421 -1.8920  1.7726  1.3944
16766TIP3    H271714   6.445   2.437   4.281 -1.8754 -1.8083  0.0302
16767TIP3   OH271715   4.613   2.099   2.536 -0.0577  0.2968  0.6769
16767TIP3    H171716   4.605   2.179   2.484 -1.0435 -0.5243 -0.4792
16767TIP3    H271717   4.538   2.102   2.595 -0.7921 -0.3358 -0.1964
16768TIP3   OH271718   5.908   3.663  14.477 -0.0163  0.3906 -0.0560
16768TIP3    H171719   6.003   3.671  14.472 -0.0255  0.1037 -0.7424
16768TIP3    H271720   5.888   3.586  14.424 -0.8776  2.0480 -2.2270
16769TIP3   OH271721   2.589   4.520  14.371  0.5995  0.0422 -0.0086
16769TIP3    H171722   2.658   4.564  14.422  0.9113  1.1376 -1.3357
16769TIP3    H271723   2.510   4.570  14.389  0.4307 -0.3809  0.4354
16770TIP3   OH271724   2.549   1.189  16.413  0.9618  0.2642 -0.3703
16770TIP3    H171725   2.463   1.216  16.446  0.3937 -1.9941  0.0754
16770TIP3    H271726   2.609   1.257  16.444 -0.4929  1.3113  0.2256
16771TIP3   OH271727   6.275   6.077   5.480  0.2445  0.0693 -0.5629
16771TIP3    H171728   6.254   6.066   5.573 -0.5528  1.4914 -0.5672
16771TIP3    H271729   6.331   6.155   5.478 -0.3846  0.4976 -1.3664
16772TIP3   OH271730   0.660   4.035   1.417  0.2013  0.4518  0.1077
16772TIP3    H171731   0.658   3.999   1.328 -3.2876  3.2091 -1.0374
16772TIP3    H271732   0.719   4.110   1.412 -0.5574  1.0399 -0.0728
16773TIP3   OH271733   5.997   4.545  16.534 -0.1751 -0.2191 -0.1378
16773TIP3    H171734   6.029   4.605  16.467  0.2224  0.1674  0.3861
16773TIP3    H271735   6.055   4.469  16.528  0.4360  0.1981  0.3638
16774TIP3   OH271736   5.307   1.745   2.253 -0.3866  0.0868  0.2166
16774TIP3    H171737   5.287   1.770   2.162 -4.7606  1.6748  1.4804
16774TIP3    H271738   5.255   1.666   2.267  1.9591 -1.4114  0.7722
16775TIP3   OH271739   5.087   2.079   5.169  0.5547 -0.1213  0.0800
16775TIP3    H171740   5.119   1.993   5.195 -0.0332 -0.7632 -1.2731
16775TIP3    H271741   5.015   2.097   5.230  0.1909 -0.9247 -0.0998
16776TIP3   OH271742   6.432   0.654   0.217 -0.2935  0.3084  0.6161
16776TIP3    H171743   6.404   0.728   0.163 -0.4729 -0.1774  0.0394
16776TIP3    H271744   6.524   0.641   0.193 -0.6555 -0.5726 -0.3603
16777TIP3   OH271745   5.742   1.212   2.948 -0.5891  0.1126  0.4736
16777TIP3    H171746   5.751   1.235   2.856 -0.8250  1.4523  0.7748
16777TIP3    H271747   5.775   1.288   2.996 -0.4357 -0.5783  1.4979
16778TIP3   OH271748   2.413   1.783  13.592 -0.1618 -0.0473 -0.2845
16778TIP3    H171749   2.459   1.717  13.540  2.3076  0.7501  0.7752
16778TIP3    H271750   2.483   1.838  13.628 -2.0215  1.7273  0.7590
16779TIP3   OH271751   0.650   4.439   1.484  0.3251 -0.2091  0.0723
16779TIP3    H171752   0.626   4.433   1.577  0.0697 -2.4957 -0.1164
16779TIP3    H271753   0.745   4.432   1.483  0.2693 -1.0951  0.1221
16780TIP3   OH271754   3.076   1.869   5.898  0.6042 -0.6347 -0.0897
16780TIP3    H171755   3.019   1.817   5.954 -0.4180  1.2681  0.7079
16780TIP3    H271756   3.165   1.845   5.924  0.1358 -0.9118  1.2593
16781TIP3   OH271757   2.541   2.884  14.775 -0.2010 -0.3357 -0.0963
16781TIP3    H171758   2.566   2.934  14.852  0.0241  1.0344 -1.0502
16781TIP3    H271759   2.623   2.847  14.742 -0.2373 -0.5573  0.0579
16782TIP3   OH271760   2.920   5.560   5.275 -0.3113  0.2935  0.5946
16782TIP3    H171761   2.954   5.471   5.266  0.8549  0.5758  2.1008
16782TIP3    H271762   2.856   5.568   5.204  2.1973 -0.4903 -1.8280
16783TIP3   OH271763   4.456   4.646  13.573  0.2273 -0.2345 -0.6193
16783TIP3    H171764   4.516   4.652  13.647  0.5216 -2.5737 -0.6245
16783TIP3    H271765   4.494   4.579  13.516 -1.5878 -0.6455 -1.3829
16784TIP3   OH271766   5.795   3.678   5.543 -0.1165  0.0838  0.3010
16784TIP3    H171767   5.761   3.746   5.601  1.3064  0.4540  0.7150
16784TIP3    H271768   5.841   3.725   5.474  1.5366 -0.4462  0.9988
16785TIP3   OH271769   3.488   3.458  12.240 -0.2372  0.2136 -0.3574
16785TIP3    H171770   3.537   3.541  12.244  0.1428  0.1131 -2.3426
16785TIP3    H271771   3.397   3.484  12.234 -0.1121  0.4820 -1.0581
16786TIP3   OH271772   2.522   5.426   4.393  0.0783 -0.5370 -0.3348
16786TIP3    H171773   2.506   5.518   4.411 -0.9755 -0.5690 -1.0698
16786TIP3    H271774   2.576   5.425   4.314  0.4316 -0.5406 -0.0937
16787TIP3   OH271775   1.189   6.506  13.790  0.1683  0.2517 -0.8112
16787TIP3    H171776   1.167   6.567  13.860  1.0131 -1.1515  0.7144
16787TIP3    H271777   1.131   6.530  13.718  0.0293  2.4198 -0.0240
16788TIP3   OH271778   6.494   5.133   6.075  0.2378  0.4376 -0.1668
16788TIP3    H171779   6.448   5.057   6.111 -0.9727 -0.0532 -2.5867
16788TIP3    H271780   6.572   5.096   6.034 -0.2481  0.5072 -1.1698
16789TIP3   OH271781   1.258   5.324   1.953  0.3470 -0.2513 -0.5839
16789TIP3    H171782   1.328   5.389   1.949  1.6315 -1.7161 -2.9025
16789TIP3    H271783   1.208   5.337   1.873 -2.0478  0.7104  0.9958
16790TIP3   OH271784   4.278   3.850   5.572 -0.3927  0.6700 -0.1015
16790TIP3    H171785   4.221   3.792   5.622 -0.4823  1.4750  0.7624
16790TIP3    H271786   4.337   3.792   5.525 -0.2696 -0.1068  1.0045
16791TIP3   OH271787   0.535   6.205   5.772 -0.4304 -0.1570  0.8984
16791TIP3    H171788   0.451   6.252   5.764  0.5072  1.5853  0.8973
16791TIP3    H271789   0.569   6.234   5.857  0.4163 -0.4181  0.6472
16792TIP3   OH271790   3.273   4.002   6.500 -0.0473  0.5393 -0.0562
16792TIP3    H171791   3.366   3.997   6.521  0.4476  0.7418 -2.1120
16792TIP3    H271792   3.261   4.089   6.462 -1.3531  1.0206  1.3969
16793TIP3   OH271793   3.825   4.053  12.350 -0.1768 -0.4448 -0.4199
16793TIP3    H171794   3.899   4.081  12.297 -1.2140  3.0099 -0.1203
16793TIP3    H271795   3.854   4.067  12.440 -1.0165  0.4593 -0.2901
16794TIP3   OH271796   4.532   3.614   4.470 -0.1179 -0.0372  0.0485
16794TIP3    H171797   4.580   3.592   4.390  0.7536  2.2730 -0.1022
16794TIP3    H271798   4.590   3.588   4.541  1.2018  2.2166 -0.1339
16795TIP3   OH271799   5.558   0.969  11.873 -0.2762  0.5009 -0.7910
16795TIP3    H171800   5.537   0.997  11.784  0.2715 -0.0106 -1.0806
16795TIP3    H271801   5.647   0.936  11.868 -0.7869 -1.0167 -0.3945
16796TIP3   OH271802   2.954   3.207   5.602  0.3413 -0.1960  0.2096
16796TIP3    H171803   2.966   3.254   5.685 -1.8651  1.1111 -0.1888
16796TIP3    H271804   2.894   3.135   5.624 -0.0552  0.0086 -0.2040
16797TIP3   OH271805   2.936   2.952  13.926 -0.1764 -0.2411 -0.0436
16797TIP3    H171806   2.954   3.030  13.979 -2.2808 -0.4143  0.9603
16797TIP3    H271807   3.006   2.950  13.861  0.7213  1.6675  0.8458
16798TIP3   OH271808   6.628   4.249  16.751 -0.2887 -0.4122  0.7655
16798TIP3    H171809   6.554   4.310  16.751  1.5989  2.0145 -1.9293
16798TIP3    H271810   6.648   4.235  16.843 -2.4546  0.9154  1.4655
16799TIP3   OH271811   2.223   0.892  12.751 -0.0244 -0.0890  0.2258
16799TIP3    H171812   2.174   0.974  12.746 -0.2929 -0.3343 -1.9217
16799TIP3    H271813   2.315   0.919  12.751 -0.1210  0.2678  1.4378
16800TIP3   OH271814   1.950   2.405   0.243 -0.2774  0.2141 -0.9601
16800TIP3    H171815   1.911   2.492   0.232 -0.4449  0.4426  1.2482
16800TIP3    H271816   1.876   2.349   0.268  0.7317  0.6526  3.2886
16801TIP3   OH271817   3.100   1.922  14.566  0.2202 -0.5357  0.1225
16801TIP3    H171818   3.027   1.889  14.514 -0.2456 -1.1682  1.1663
16801TIP3    H271819   3.178   1.891  14.520 -0.1947 -1.4915  0.0524
16802TIP3   OH271820   3.298   3.445   4.036  0.1482  0.2282 -0.7147
16802TIP3    H171821   3.284   3.515   3.972  1.8666 -0.0278 -1.4018
16802TIP3    H271822   3.388   3.459   4.066  0.2330 -1.2238 -0.2875
16803TIP3   OH271823   4.018   5.813  13.221  0.0286  0.0538 -0.2941
16803TIP3    H171824   3.930   5.829  13.187 -0.5162 -0.7416  0.7275
16803TIP3    H271825   4.024   5.867  13.300 -0.0806 -1.0401  0.4667
16804TIP3   OH271826   4.788   3.452  12.787  0.4936  0.5122  0.1482
16804TIP3    H171827   4.756   3.444  12.877  0.3062  0.8999  0.1187
16804TIP3    H271828   4.785   3.546  12.769  1.3234  0.5204  0.0203
16805TIP3   OH271829   0.954   1.864  13.292 -0.0715  0.4341 -0.3827
16805TIP3    H171830   1.014   1.792  13.273 -0.6411 -0.9923  2.8380
16805TIP3    H271831   0.885   1.857  13.226 -0.1178 -1.9904 -0.1039
16806TIP3   OH271832   0.584   3.293  13.550  0.4648  0.5779 -0.1623
16806TIP3    H171833   0.662   3.332  13.591  0.3905 -0.8612  1.4042
16806TIP3    H271834   0.527   3.272  13.623  0.3940 -2.2338 -0.9718
16807TIP3   OH271835   5.551   5.116  14.605  0.3175  0.1958  0.2867
16807TIP3    H171836   5.508   5.169  14.673  1.5066  1.3806  0.1421
16807TIP3    H271837   5.498   5.130  14.527 -0.4132 -0.2817  0.6864
16808TIP3   OH271838   2.318   2.453  11.845 -0.1540 -0.5742  0.3954
16808TIP3    H171839   2.366   2.465  11.764  1.1032 -1.7857  0.9347
16808TIP3    H271840   2.359   2.513  11.907 -0.4890 -0.3406  0.3934
16809TIP3   OH271841   1.435   5.705  11.423 -0.0393 -0.0566 -0.3800
16809TIP3    H171842   1.385   5.786  11.413  0.2747  0.1673 -0.1294
16809TIP3    H271843   1.455   5.679  11.333 -0.2644  0.0676 -0.4672
16810TIP3   OH271844   5.099   1.645   3.834  0.0335  0.3319  0.0310
16810TIP3    H171845   5.155   1.692   3.896  0.7258 -1.8123  1.0608
16810TIP3    H271846   5.160   1.591   3.783 -0.9500 -0.9529  0.2097
16811TIP3   OH271847   0.330   4.932   1.489  0.5138  0.6112  0.0100
16811TIP3    H171848   0.361   5.019   1.514 -0.8724  0.9878  0.4408
16811TIP3    H271849   0.368   4.917   1.403  0.7766  1.6405 -0.0593
16812TIP3   OH271850   1.161   6.371   2.063  0.8917  0.4740  0.4218
16812TIP3    H171851   1.082   6.319   2.079  1.2661 -0.3984 -0.5033
16812TIP3    H271852   1.148   6.407   1.975  1.2178  0.8966  0.5448
16813TIP3   OH271853   5.565   0.865  10.433 -0.1589  0.3041  0.0575
16813TIP3    H171854   5.642   0.828  10.476 -0.9021 -0.9781  0.3094
16813TIP3    H271855   5.587   0.865  10.339  0.3063  0.3535  0.1641
16814TIP3   OH271856   1.286   0.565  14.115  0.1166 -0.0898 -0.1130
16814TIP3    H171857   1.236   0.557  14.034  0.1182  1.2659 -0.2639
16814TIP3    H271858   1.283   0.659  14.135 -0.2211 -0.4599  1.6627
16815TIP3   OH271859   1.741   1.537  15.352  0.1291  0.6197  0.2183
16815TIP3    H171860   1.753   1.466  15.289 -0.9978  1.6108 -1.1194
16815TIP3    H271861   1.677   1.502  15.414 -1.1162  0.8124 -0.9581
16816TIP3   OH271862   6.663   5.637  12.822 -0.1684 -0.3587 -0.3207
16816TIP3    H171863   6.636   5.546  12.812  0.9561 -0.7632  0.1637
16816TIP3    H271864   6.672   5.650  12.917 -1.0263  0.4745 -0.3424
16817TIP3   OH271865   4.119   3.746  14.621  0.1449  0.1342 -0.3933
16817TIP3    H171866   4.158   3.660  14.607 -2.3637 -0.6529 -3.0127
16817TIP3    H271867   4.052   3.732  14.687  0.3957  0.2826 -0.1067
16818TIP3   OH271868   6.523   4.015  14.295  0.4907  0.2733 -0.1954
16818TIP3    H171869   6.583   3.959  14.247  1.4006  1.4969 -0.4965
16818TIP3    H271870   6.579   4.080  14.338 -0.6784  2.1259 -1.4103
16819TIP3   OH271871   6.060   0.882  17.099  0.1793  0.1482  0.1248
16819TIP3    H171872   6.086   0.914  17.185  1.0283 -0.4886  0.1138
16819TIP3    H271873   6.008   0.804  17.118  3.8184 -2.4347 -0.0146
16820TIP3   OH271874   4.371   4.348   5.743  0.5809 -0.5602  0.4401
16820TIP3    H171875   4.372   4.357   5.839 -0.0687 -0.7657  0.4681
16820TIP3    H271876   4.418   4.266   5.727 -0.1938 -1.0624  0.6551
16821TIP3   OH271877   1.799   2.160   4.733  0.0729  0.1127 -0.4546
16821TIP3    H171878   1.756   2.147   4.648  0.0144  0.7833 -0.5339
16821TIP3    H271879   1.738   2.216   4.782 -1.1605 -2.4254  1.0365
16822TIP3   OH271880   6.771   6.399  14.384  0.1916 -0.3129 -0.5132
16822TIP3    H171881   6.725   6.316  14.370  1.1879 -0.7664 -1.1428
16822TIP3    H271882   6.830   6.382  14.457 -0.3499  0.1581  0.0430
16823TIP3   OH271883   1.234   0.800  14.841 -0.1303 -0.2920 -0.2998
16823TIP3    H171884   1.193   0.882  14.866 -0.7365 -1.1227  1.5729
16823TIP3    H271885   1.328   0.817  14.845 -0.2171 -0.2908  2.3228
16824TIP3   OH271886   6.279   2.210   4.467 -0.6000  0.0128  0.2851
16824TIP3    H171887   6.297   2.153   4.542  1.8699  0.9551  0.4430
16824TIP3    H271888   6.312   2.161   4.392 -1.2368 -0.0630  0.0536
16825TIP3   OH271889   6.769   4.734  11.647 -0.0103 -0.4879 -0.1563
16825TIP3    H171890   6.846   4.784  11.619 -0.5424  0.2121 -0.3743
16825TIP3    H271891   6.759   4.756  11.740 -1.0666  0.9001 -0.5900
16826TIP3   OH271892   2.063   4.491  14.584 -0.0035  0.0211 -0.1280
16826TIP3    H171893   1.979   4.497  14.630  0.0527 -1.3903  0.1660
16826TIP3    H271894   2.040   4.498  14.491 -0.3307  0.6774 -0.0020
16827TIP3   OH271895   1.253   6.195  15.310 -0.5156 -0.3214 -0.3648
16827TIP3    H171896   1.340   6.231  15.327  0.2814 -1.5930 -1.6336
16827TIP3    H271897   1.209   6.261  15.256  0.5869 -0.7784 -1.8609
16828TIP3   OH271898   6.184   1.077  15.687  0.5549  0.1950  0.5970
16828TIP3    H171899   6.248   1.117  15.746  1.0566  0.2062  0.0505
16828TIP3    H271900   6.178   1.138  15.613 -1.0172  0.8085  1.2227
16829TIP3   OH271901   4.177   5.185   2.699 -0.1838 -0.0820 -0.3723
16829TIP3    H171902   4.241   5.246   2.665  1.1930 -1.1392  0.2794
16829TIP3    H271903   4.187   5.107   2.645 -0.2298 -0.6009  0.3669
16830TIP3   OH271904   1.263   1.114  10.810 -0.0654 -0.0161 -0.0193
16830TIP3    H171905   1.256   1.019  10.815  0.2847 -0.1261 -1.4967
16830TIP3    H271906   1.196   1.140  10.747  0.0061  0.6929  0.1950
16831TIP3   OH271907   1.673   0.073  11.580 -0.1440  0.2355  0.4099
16831TIP3    H171908   1.627   0.120  11.510  1.4232  0.4908 -0.4744
16831TIP3    H271909   1.624  -0.008  11.591 -0.7552  0.4564 -0.6009
16832TIP3   OH271910   4.474   5.326  10.995  0.1337  0.0508 -0.5682
16832TIP3    H171911   4.492   5.402  10.940  0.9378  0.3758  0.1371
16832TIP3    H271912   4.384   5.339  11.026  0.8363  1.5455  0.8681
16833TIP3   OH271913   6.049   4.139   1.170 -0.0027  0.0630 -0.3174
16833TIP3    H171914   6.067   4.049   1.146  1.9477  0.5497 -0.7784
16833TIP3    H271915   6.042   4.186   1.086  0.7567  0.6544 -0.0558
16834TIP3   OH271916   5.927   5.099  13.231 -0.0810 -0.1144  0.6739
16834TIP3    H171917   6.005   5.043  13.226  0.2082  0.1360  2.0820
16834TIP3    H271918   5.959   5.180  13.271 -0.8430  0.4129  0.2173
16835TIP3   OH271919   1.084   1.866   3.542  0.0678  0.0798 -0.2100
16835TIP3    H171920   1.137   1.943   3.560 -1.2708  0.7496  0.8918
16835TIP3    H271921   1.140   1.792   3.566  0.3139  0.7916  1.4257
16836TIP3   OH271922   6.340   1.749  12.517  0.1594 -0.0205  0.1735
16836TIP3    H171923   6.346   1.709  12.430  0.6932 -0.6811  0.5109
16836TIP3    H271924   6.420   1.802  12.525  1.2681 -1.7767  1.1539
16837TIP3   OH271925   4.617   5.228   4.771  0.2283  0.1322  0.2392
16837TIP3    H171926   4.579   5.234   4.859 -0.7730  0.8359 -0.2274
16837TIP3    H271927   4.592   5.141   4.740 -2.1951  1.0730 -0.5737
16838TIP3   OH271928   5.656   3.507   1.048  0.5965 -0.0792  0.2260
16838TIP3    H171929   5.659   3.412   1.039  1.2534 -0.1159  0.7489
16838TIP3    H271930   5.648   3.522   1.142  2.2781  0.4003  0.3128
16839TIP3   OH271931   2.259   2.165  11.008  0.0607  0.0171  0.3634
16839TIP3    H171932   2.242   2.227  10.938 -1.5145 -0.9747 -0.1691
16839TIP3    H271933   2.203   2.090  10.988  2.0515 -1.6473  0.8980
16840TIP3   OH271934   6.335   4.950   6.225  0.1258  0.1748  0.0702
16840TIP3    H171935   6.359   4.957   6.317  0.1474  0.6663  0.0315
16840TIP3    H271936   6.255   5.002   6.217 -1.1936 -1.7841  0.2765
16841TIP3   OH271937   4.598   2.874  16.947  0.4378 -0.0486 -0.0921
16841TIP3    H171938   4.643   2.857  17.029 -1.1806  2.4395  1.3719
16841TIP3    H271939   4.509   2.843  16.961  0.4009 -0.4939 -1.2550
16842TIP3   OH271940   4.002   4.744   0.612  0.0501  0.6516 -0.0168
16842TIP3    H171941   3.927   4.735   0.671  0.8928 -2.2474  0.6677
16842TIP3    H271942   3.966   4.728   0.525 -0.5871  1.7627  0.0329
16843TIP3   OH271943   2.329   0.381  17.012  0.0086  0.4053 -0.0350
16843TIP3    H171944   2.300   0.408  16.925 -1.7272  0.5177  0.5576
16843TIP3    H271945   2.276   0.433  17.072 -0.0631 -0.9423  1.0874
16844TIP3   OH271946   1.347   6.643   4.570  0.4206 -1.0644  0.0973
16844TIP3    H171947   1.383   6.726   4.601 -0.9672 -0.2257 -0.4893
16844TIP3    H271948   1.366   6.581   4.640  0.5805 -0.0251  0.9876
16845TIP3   OH271949   0.016   4.389  15.914 -0.0725  0.5747 -0.2626
16845TIP3    H171950  -0.043   4.324  15.876 -0.0763  0.3069  0.1985
16845TIP3    H271951  -0.010   4.395  16.006 -0.1307  1.2951 -0.3228
16846TIP3   OH271952   0.470   1.983  12.149  0.3129  0.8586 -0.3383
16846TIP3    H171953   0.484   1.895  12.114 -0.7322  0.4267  0.3132
16846TIP3    H271954   0.558   2.015  12.170  0.7776  0.3624 -1.5051
16847TIP3   OH271955   6.721   0.994  14.111  0.1029  0.0722 -0.4262
16847TIP3    H171956   6.722   1.090  14.116 -1.5940  0.1129 -0.7128
16847TIP3    H271957   6.721   0.976  14.017  0.4971 -0.2256 -0.3709
16848TIP3   OH271958   0.165   5.298   3.704 -0.1690  0.2376 -0.0830
16848TIP3    H171959   0.257   5.300   3.730 -0.0961  0.3150 -0.3447
16848TIP3    H271960   0.119   5.266   3.782 -0.0353  1.1400  0.3708
16849TIP3   OH271961   3.272   4.924   0.094  0.2103 -0.3296  0.6885
16849TIP3    H171962   3.208   4.869   0.141 -1.1763  0.5037 -0.1859
16849TIP3    H271963   3.219   4.971   0.030  1.5760  1.1810  0.6719
16850TIP3   OH271964   1.659   0.455   3.198  0.1255 -0.3912 -0.3318
16850TIP3    H171965   1.632   0.448   3.107  0.5354  1.1215 -0.5868
16850TIP3    H271966   1.630   0.373   3.239 -2.1648 -0.0586 -1.2588
16851TIP3   OH271967   0.314   3.279   1.493 -0.1399 -0.1635 -0.3318
16851TIP3    H171968   0.243   3.320   1.543  0.0460 -0.3483  0.0905
16851TIP3    H271969   0.329   3.195   1.537  0.5518  0.0081 -0.2251
16852TIP3   OH271970   0.908   1.236   3.596  0.1733 -0.1218 -0.7385
16852TIP3    H171971   0.822   1.278   3.588 -0.0594 -0.6184 -0.8286
16852TIP3    H271972   0.942   1.235   3.506  0.5426  0.6311 -0.6174
16853TIP3   OH271973   4.823   1.637  12.445 -0.2055 -0.1591 -0.5824
16853TIP3    H171974   4.864   1.589  12.518 -0.1622  2.8418  1.4843
16853TIP3    H271975   4.735   1.657  12.476 -1.5739 -2.2077 -2.9950
16854TIP3   OH271976   1.096   1.949   1.600  0.2669 -0.3202 -0.0269
16854TIP3    H171977   1.092   1.855   1.588 -1.1863 -0.4467  1.2887
16854TIP3    H271978   1.012   1.982   1.566  0.6278  0.4598 -0.1874
16855TIP3   OH271979   5.583   1.908  11.857 -0.3339 -1.0298 -0.3018
16855TIP3    H171980   5.588   1.816  11.833  1.2088 -1.2863  0.9743
16855TIP3    H271981   5.674   1.936  11.867 -0.7938  0.5571 -0.3751
16856TIP3   OH271982   4.488   2.883   3.912 -0.1454 -0.2313 -0.3445
16856TIP3    H171983   4.473   2.873   4.006 -0.9761 -3.0205 -0.7315
16856TIP3    H271984   4.435   2.814   3.871 -0.0661  1.1370 -2.8954
16857TIP3   OH271985   5.174   2.856   0.035 -0.0947  0.0533  0.3451
16857TIP3    H171986   5.129   2.844  -0.049 -0.8582 -1.6477  0.9725
16857TIP3    H271987   5.138   2.787   0.091  1.7406  0.0372  1.5247
16858TIP3   OH271988   6.061   3.275   2.934  0.1666  0.1932  0.0922
16858TIP3    H171989   5.988   3.215   2.925 -0.3874  1.1003 -1.6968
16858TIP3    H271990   6.107   3.246   3.013 -1.9153 -0.5926  1.0413
16859TIP3   OH271991   0.638   6.295  14.380  0.0331  0.0416  0.1766
16859TIP3    H171992   0.714   6.351  14.392 -0.9372  1.5447 -0.5469
16859TIP3    H271993   0.623   6.295  14.285 -1.6035  0.7728  0.4199
16860TIP3   OH271994   6.302   1.623  12.899 -0.1184 -0.1956  0.5833
16860TIP3    H171995   6.299   1.629  12.994  1.7700 -0.2268  0.6681
16860TIP3    H271996   6.345   1.539  12.881  1.4787  0.7626 -0.2358
16861TIP3   OH271997   0.779   1.849   3.050  0.4603  0.0330 -0.7188
16861TIP3    H171998   0.870   1.841   3.019  0.7824 -1.3508  0.5289
16861TIP3    H271999   0.755   1.761   3.077 -0.8227  0.6349  0.1708
16862TIP3   OH272000   2.908   3.862   2.694  0.4429 -0.1856 -0.4871
16862TIP3    H172001   2.886   3.897   2.608  0.0016 -1.3000 -0.8425
16862TIP3    H272002   2.960   3.783   2.675 -1.1635 -1.4457  0.2083
16863TIP3   OH272003   0.188   1.457   4.038  0.5079  0.0190 -0.4371
16863TIP3    H172004   0.208   1.405   3.960  1.4294 -0.9853  0.4278
16863TIP3    H272005   0.274   1.480   4.073  0.1894 -2.0707  1.8952
16864TIP3   OH272006   1.137   3.351   2.409  0.4340 -0.2965  0.2585
16864TIP3    H172007   1.147   3.312   2.322  1.1890  0.1794  0.1217
16864TIP3    H272008   1.225   3.347   2.447 -0.1097 -1.4604  1.4208
16865TIP3   OH272009   4.414   3.176  14.859  0.1622 -0.0357  0.1808
16865TIP3    H172010   4.446   3.146  14.944 -1.9159  0.6196  1.2222
16865TIP3    H272011   4.322   3.150  14.858 -0.5039  2.2877 -0.7723
16866TIP3   OH272012   1.801   4.424   4.297  0.0515  0.1866  0.5942
16866TIP3    H172013   1.743   4.407   4.371  0.2508  1.3698  1.0402
16866TIP3    H272014   1.865   4.352   4.299 -1.4355 -1.1717  0.0379
16867TIP3   OH272015   0.646   1.311  14.890 -0.0937 -0.2383  0.3013
16867TIP3    H172016   0.638   1.400  14.857 -0.4224  0.2230  1.5924
16867TIP3    H272017   0.584   1.306  14.963  0.6573 -1.1938  0.9080
16868TIP3   OH272018   6.133   6.616   5.060 -0.2657 -0.3103  0.3351
16868TIP3    H172019   6.156   6.536   5.013  0.2247  0.1951 -0.2801
16868TIP3    H272020   6.217   6.659   5.078 -0.5651  0.3953  0.0805
16869TIP3   OH272021   2.052   2.881  15.665  0.1609  0.3259  0.5172
16869TIP3    H172022   2.114   2.953  15.679 -0.8402  1.4400 -0.6268
16869TIP3    H272023   2.072   2.818  15.734  2.1058  0.9760  0.5862
16870TIP3   OH272024   4.820   0.794   2.432 -0.5307  0.1927  0.8331
16870TIP3    H172025   4.915   0.805   2.432 -0.4545 -0.4154  0.9848
16870TIP3    H272026   4.790   0.841   2.355 -0.0249 -0.2324  0.3705
16871TIP3   OH272027   0.033   4.849   0.278 -0.2970 -0.0764  0.9183
16871TIP3    H172028   0.102   4.803   0.325  2.7005  2.6066 -0.7002
16871TIP3    H272029   0.007   4.920   0.338 -0.5099 -0.0845  0.8362
16872TIP3   OH272030   4.351   1.267  13.073  0.2747  0.1371 -0.1371
16872TIP3    H172031   4.366   1.184  13.119  0.8464 -0.7108 -1.7950
16872TIP3    H272032   4.410   1.263  12.997 -0.4901  1.5847 -0.8220
16873TIP3   OH272033   0.765   1.692  12.546  0.0469  0.6385 -0.4002
16873TIP3    H172034   0.750   1.787  12.553  0.8041  0.9910 -3.1228
16873TIP3    H272035   0.846   1.684  12.495 -1.1885 -1.4711 -2.1216
16874TIP3   OH272036   1.709   1.307   4.862 -0.3357 -0.4093  0.3597
16874TIP3    H172037   1.768   1.368   4.818 -2.1508 -0.7824 -2.7141
16874TIP3    H272038   1.668   1.359   4.931 -0.0662  1.1893 -0.6641
16875TIP3   OH272039   5.821   0.821  15.156 -0.8248 -0.2153  0.0883
16875TIP3    H172040   5.878   0.814  15.079 -0.7842  1.5399 -0.0723
16875TIP3    H272041   5.768   0.741  15.154  0.6458 -1.1981 -0.5577
16876TIP3   OH272042   1.077   0.479   3.534 -0.5350  0.0974  0.0560
16876TIP3    H172043   0.991   0.438   3.532 -0.2240 -0.5154 -0.5824
16876TIP3    H272044   1.071   0.541   3.608 -1.9199  0.9449 -0.7271
16877TIP3   OH272045   2.595   6.762   3.739  0.1133 -0.2627 -0.5108
16877TIP3    H172046   2.636   6.680   3.712 -0.3947 -0.8159  0.3668
16877TIP3    H272047   2.578   6.751   3.833 -1.1884  0.3105 -0.6643
16878TIP3   OH272048   2.406   2.102   3.868  0.3047  0.0368  0.7262
16878TIP3    H172049   2.370   2.070   3.950  0.3810 -0.6769  0.4845
16878TIP3    H272050   2.336   2.089   3.804  1.0161 -1.4746  0.2321
16879TIP3   OH272051   6.425   0.571  16.070 -0.6076 -0.1320 -0.2314
16879TIP3    H172052   6.454   0.594  15.982 -1.0913  0.4514 -0.2408
16879TIP3    H272053   6.504   0.581  16.124 -1.0716  2.7088 -0.0270
16880TIP3   OH272054   6.385   1.427  14.817  0.4445  0.0614 -0.1485
16880TIP3    H172055   6.392   1.482  14.739 -0.0065  0.6474  0.2206
16880TIP3    H272056   6.395   1.488  14.890 -1.3023 -0.1579  0.2824
16881TIP3   OH272057   5.289   3.957   2.214  0.6097 -0.1199  0.0692
16881TIP3    H172058   5.370   3.939   2.165 -0.3984 -2.9277 -0.6782
16881TIP3    H272059   5.318   3.993   2.297  2.6586 -1.5462 -0.0083
16882TIP3   OH272060   0.720   1.095   5.467  0.1441  0.5348 -0.5439
16882TIP3    H172061   0.741   1.186   5.489 -0.9109  0.5234  0.5360
16882TIP3    H272062   0.626   1.097   5.446 -0.1342 -0.4870  0.5527
16883TIP3   OH272063   3.793   2.715  10.173 -0.5662  0.1629 -0.3740
16883TIP3    H172064   3.770   2.783  10.236  0.7967  0.0100  0.3110
16883TIP3    H272065   3.709   2.678  10.145 -1.4685  3.3688 -2.1656
16884TIP3   OH272066   1.681   5.738   1.468  0.3531  0.1404 -0.1922
16884TIP3    H172067   1.768   5.730   1.427  0.3321 -0.5408 -0.1104
16884TIP3    H272068   1.688   5.817   1.522  1.3653 -0.6726  0.8925
16885TIP3   OH272069   6.409   2.107  14.964  0.2682 -0.0554 -0.5611
16885TIP3    H172070   6.385   2.122  15.056  1.0765  1.4105 -0.5738
16885TIP3    H272071   6.505   2.109  14.964  0.2751 -0.3576 -1.3847
16886TIP3   OH272072   2.664   3.953   4.872  0.4814 -0.0631  0.2161
16886TIP3    H172073   2.646   3.911   4.788 -0.7323  0.2222  0.3298
16886TIP3    H272074   2.653   4.046   4.855 -0.4179 -0.0440  0.8408
16887TIP3   OH272075   3.151   2.923   2.490  0.1527  0.1402 -0.2310
16887TIP3    H172076   3.093   2.921   2.414  0.7421 -2.5959 -0.6660
16887TIP3    H272077   3.237   2.901   2.455  0.1303 -2.8631  1.4235
16888TIP3   OH272078   4.564   0.378   0.011 -0.1490  0.7492 -0.0423
16888TIP3    H172079   4.579   0.380   0.106 -0.4054 -3.3510  0.1742
16888TIP3    H272080   4.469   0.365   0.003  0.2719 -2.2050 -0.7298
16889TIP3   OH272081   6.399   0.753  16.312  0.7943  0.4063 -1.0219
16889TIP3    H172082   6.399   0.769  16.218 -0.0661  2.4865 -0.7122
16889TIP3    H272083   6.308   0.767  16.339  1.1541  0.4777  0.2217
16890TIP3   OH272084   6.497   5.235   5.280 -0.4354 -0.2202 -0.4631
16890TIP3    H172085   6.461   5.147   5.269 -2.2308  0.5197 -0.6351
16890TIP3    H272086   6.512   5.243   5.375 -0.3558 -0.6812 -0.4371
16891TIP3   OH272087   1.642   2.825  13.921  0.1937 -0.1907  0.0466
16891TIP3    H172088   1.634   2.842  14.015  0.1018 -1.3205  0.2596
16891TIP3    H272089   1.693   2.744  13.916 -0.2089 -0.3990 -0.8645
16892TIP3   OH272090   4.012   4.311   1.037  0.2884 -0.2430  0.0177
16892TIP3    H172091   4.063   4.276   1.110 -1.0271 -0.5954  0.7772
16892TIP3    H272092   3.922   4.285   1.056 -0.0766 -0.2875 -1.7010
16893TIP3   OH272093   2.725   5.250  15.366  0.1402  0.2023 -0.8013
16893TIP3    H172094   2.677   5.309  15.307 -0.3705  0.1119 -0.4776
16893TIP3    H272095   2.657   5.196  15.406  0.3009  1.5596  1.3317
16894TIP3   OH272096   0.919   3.088   2.338 -0.0984 -0.3604  0.7450
16894TIP3    H172097   0.927   3.170   2.290  0.3842 -0.5514  0.4935
16894TIP3    H272098   1.008   3.069   2.368 -0.2007 -0.8008  0.7753
16895TIP3   OH272099   5.567   5.676   1.826 -0.0261  0.0599 -0.9843
16895TIP3    H172100   5.490   5.712   1.783 -0.7502  1.3530  1.3096
16895TIP3    H272101   5.546   5.583   1.839 -1.1883  0.3894 -0.4237
16896TIP3   OH272102   1.027   0.195   0.081 -0.6562 -0.3768 -0.1566
16896TIP3    H172103   0.950   0.250   0.094 -0.6539 -0.9416  2.4922
16896TIP3    H272104   1.101   0.249   0.109 -0.5982 -1.4879  1.9317
16897TIP3   OH272105   0.273   4.355   4.149 -0.0625  0.0830 -0.3653
16897TIP3    H172106   0.260   4.399   4.233  1.8816  1.1085 -0.5866
16897TIP3    H272107   0.193   4.303   4.137 -1.1230  1.2894  1.2646
16898TIP3   OH272108   4.540   4.461   0.598 -0.2109 -0.3083 -0.2869
16898TIP3    H172109   4.490   4.482   0.519  0.0325  0.6185 -0.2102
16898TIP3    H272110   4.618   4.517   0.592 -0.1563 -0.2802  0.5670
16899TIP3   OH272111   3.141   4.153  11.738 -0.6473  0.2873 -0.1517
16899TIP3    H172112   3.100   4.235  11.764  0.0437  0.2975  0.9599
16899TIP3    H272113   3.233   4.163  11.765 -0.4021 -0.5655 -0.6604
16900TIP3   OH272114   5.301   4.598   3.974  0.2569  0.3052 -0.2896
16900TIP3    H172115   5.223   4.556   4.011  0.1519  0.0313 -0.8107
16900TIP3    H272116   5.268   4.647   3.899  0.7185 -0.5618 -1.0717
16901TIP3   OH272117   5.626   5.032   4.498  0.2500  0.1207 -0.6198
16901TIP3    H172118   5.645   5.126   4.500  0.2821  0.1163 -0.7085
16901TIP3    H272119   5.538   5.026   4.460 -0.8799  0.2871  1.8542
16902TIP3   OH272120   6.452   0.045  15.864 -0.2318  0.0314 -0.4912
16902TIP3    H172121   6.516   0.097  15.815 -1.1679 -1.7090 -3.7001
16902TIP3    H272122   6.461  -0.044  15.829 -1.2616 -1.2182  2.2326
16903TIP3   OH272123   1.664   5.166  12.033 -0.0252 -0.1166 -0.3398
16903TIP3    H172124   1.643   5.075  12.056 -0.0414 -0.3963 -1.4218
16903TIP3    H272125   1.656   5.169  11.938  0.0735  1.0011 -0.3214
16904TIP3   OH272126   0.649   0.200   4.345 -0.1717 -0.3569  0.5167
16904TIP3    H172127   0.667   0.294   4.355  1.3519 -0.5037 -0.6700
16904TIP3    H272128   0.689   0.177   4.261 -2.3374 -1.6394 -0.2011
16905TIP3   OH272129   3.057   4.767   2.548  0.9005 -0.0583  0.2317
16905TIP3    H172130   3.121   4.696   2.545 -0.6770 -1.4800 -0.0753
16905TIP3    H272131   2.990   4.742   2.484  0.5360  1.9145 -0.1943
16906TIP3   OH272132   6.010   1.448   1.843  0.5320 -0.1031  0.3213
16906TIP3    H172133   5.977   1.386   1.908  1.7121  0.6618  1.6553
16906TIP3    H272134   6.082   1.402   1.801  0.2354 -0.3179  0.0398
16907TIP3   OH272135   3.244   1.733   5.052  0.3601 -0.0443 -0.1265
16907TIP3    H172136   3.204   1.816   5.027  1.0826  0.3092 -0.1373
16907TIP3    H272137   3.171   1.679   5.084 -0.0121  0.8571  0.5866
16908TIP3   OH272138   1.448   2.874   5.431  0.4681  0.1882  0.0151
16908TIP3    H172139   1.363   2.881   5.388 -0.0838  0.9036  1.2053
16908TIP3    H272140   1.512   2.898   5.364 -0.4850  2.9976  0.0804
16909TIP3   OH272141   6.020   1.399   2.893  0.6624 -0.2060 -0.3596
16909TIP3    H172142   6.084   1.468   2.877  0.4348 -0.0509 -0.5915
16909TIP3    H272143   5.948   1.417   2.833 -0.6463  0.9553  1.4755
16910TIP3   OH272144   4.760   3.807  16.489 -0.2472  0.1490  0.1844
16910TIP3    H172145   4.799   3.776  16.571 -0.3574  0.4677  0.3567
16910TIP3    H272146   4.699   3.737  16.464  1.0741 -0.7672 -0.5587
16911TIP3   OH272147   6.022   4.410  12.522  0.0511 -0.0089  0.1277
16911TIP3    H172148   6.002   4.474  12.454  2.5407 -1.3508 -1.9881
16911TIP3    H272149   6.085   4.455  12.579  1.2095 -0.2704 -0.9167
16912TIP3   OH272150   3.719   5.129  15.206  0.2398 -0.0128 -0.5652
16912TIP3    H172151   3.648   5.161  15.261 -0.8753 -0.2956 -1.8294
16912TIP3    H272152   3.790   5.193  15.219  0.3961 -0.6489  1.9988
16913TIP3   OH272153   3.922   3.398  16.510  0.2346  0.2660 -0.2364
16913TIP3    H172154   3.997   3.430  16.460 -0.4848  1.9143 -0.3045
16913TIP3    H272155   3.866   3.475  16.521 -0.2187 -0.3439  2.0259
16914TIP3   OH272156   2.021   2.297  11.231 -0.6844 -0.0652 -0.1032
16914TIP3    H172157   2.100   2.347  11.214  0.2188 -1.7128 -0.8060
16914TIP3    H272158   1.979   2.344  11.304  2.2325 -0.6100  2.0304
16915TIP3   OH272159   4.139   6.420  16.583  0.2218  0.1767 -0.5540
16915TIP3    H172160   4.184   6.423  16.668  0.1791  0.6348 -0.5491
16915TIP3    H272161   4.051   6.451  16.602  0.0638 -0.2061 -0.6714
16916TIP3   OH272162   1.203   4.865  15.329  0.1133  0.0290  0.6362
16916TIP3    H172163   1.271   4.877  15.262 -0.2530 -1.9328 -0.1151
16916TIP3    H272164   1.247   4.819  15.400 -0.4521 -1.3682  0.0906
16917TIP3   OH272165   1.559   2.497   0.942 -0.1294 -0.4948  0.3321
16917TIP3    H172166   1.496   2.547   0.890 -0.7673 -1.4594  0.1781
16917TIP3    H272167   1.576   2.553   1.018 -2.3411 -0.8988  1.1440
16918TIP3   OH272168   1.474   5.503   0.341 -0.3089 -0.0459  0.3866
16918TIP3    H172169   1.512   5.529   0.425 -0.2706  0.1231  0.3166
16918TIP3    H272170   1.548   5.502   0.280 -0.5680  1.2024  0.0357
16919TIP3   OH272171   6.667   1.465   1.764 -0.1071 -0.2083  0.2675
16919TIP3    H172172   6.601   1.416   1.813  0.5368  1.0076  2.4178
16919TIP3    H272173   6.750   1.424   1.790  0.1243 -0.6845 -1.1805
16920TIP3   OH272174   4.140   5.624   1.751  0.3558 -0.0097  0.4108
16920TIP3    H172175   4.094   5.542   1.768 -0.7502  0.4717 -0.2467
16920TIP3    H272176   4.165   5.655   1.838 -2.6130  0.8826  1.0044
16921TIP3   OH272177   2.973   4.640  16.332  0.8554  0.0015 -0.0379
16921TIP3    H172178   2.928   4.656  16.415  0.5689 -0.5865 -0.0842
16921TIP3    H272179   2.912   4.670  16.265  0.0529 -1.8191 -0.1571
16922TIP3   OH272180   5.558   6.560   4.167 -0.0022  0.3685  0.4199
16922TIP3    H172181   5.530   6.637   4.216 -1.4616 -0.5725  1.1080
16922TIP3    H272182   5.617   6.513   4.226 -0.6508 -0.0387  0.7493
16923TIP3   OH272183   4.106   4.889   4.502 -0.2640  0.1846 -0.0080
16923TIP3    H172184   4.027   4.941   4.486 -0.4050 -0.2072 -0.5930
16923TIP3    H272185   4.173   4.955   4.521 -0.5212  0.5740 -0.4115
16924TIP3   OH272186   3.674   5.815  11.132 -0.7003 -1.3339  0.2681
16924TIP3    H172187   3.632   5.791  11.214  0.8428 -1.1156  1.1418
16924TIP3    H272188   3.604   5.855  11.080 -2.6010 -4.8582 -0.0579
16925TIP3   OH272189   3.677   6.098   2.598  0.2155 -0.6489  0.2379
16925TIP3    H172190   3.614   6.033   2.629  0.4837 -0.1478  1.8639
16925TIP3    H272191   3.740   6.048   2.546 -0.5795 -1.4097 -0.0042
16926TIP3   OH272192   4.396   2.910   0.757  0.2109 -0.2318 -0.1981
16926TIP3    H172193   4.311   2.918   0.800 -0.6310 -0.0590 -1.8568
16926TIP3    H272194   4.437   2.995   0.768  0.3294 -0.4277  0.9283
16927TIP3   OH272195   5.355   1.961  14.090  0.0365 -0.5256  0.0219
16927TIP3    H172196   5.290   1.896  14.063  0.2907 -0.8069  0.0753
16927TIP3    H272197   5.330   2.041  14.044 -0.9866 -0.3286  0.8951
16928TIP3   OH272198   2.023   1.827  12.322  0.6091 -0.0219 -0.3611
16928TIP3    H172199   1.945   1.879  12.306 -0.2240 -0.7068  1.3887
16928TIP3    H272200   2.096   1.886  12.301 -0.3537  0.6475 -1.8909
16929TIP3   OH272201   4.232   3.442   5.433 -0.3034  0.1050 -0.1778
16929TIP3    H172202   4.273   3.391   5.503  1.7168  1.2541 -0.4889
16929TIP3    H272203   4.281   3.524   5.431 -1.5531  0.8461 -1.7031
16930TIP3   OH272204   0.735   1.300  15.570 -0.0924 -0.2508 -0.0932
16930TIP3    H172205   0.724   1.234  15.501  2.2530 -1.6823  0.8391
16930TIP3    H272206   0.651   1.300  15.616 -1.6257  0.6148 -2.8055
16931TIP3   OH272207   2.604   5.729  15.880 -0.2249  0.1073 -0.5074
16931TIP3    H172208   2.642   5.750  15.965  1.1554  0.9450 -1.3260
16931TIP3    H272209   2.528   5.674  15.901  0.8904 -0.8115  1.1761
16932TIP3   OH272210   1.831   4.817  13.543  0.1019  0.4393  0.0161
16932TIP3    H172211   1.787   4.741  13.581  0.9499  0.3683  0.8497
16932TIP3    H272212   1.905   4.781  13.495  1.7346  0.8666  2.1255
16933TIP3   OH272213   1.937   1.153  14.388  0.4979  0.2335 -0.1195
16933TIP3    H172214   1.869   1.086  14.388  0.8140 -0.1077 -1.2288
16933TIP3    H272215   1.889   1.235  14.379  0.1865  0.0390 -0.2736
16934TIP3   OH272216   6.287   1.110   0.722 -0.3150 -0.1122 -0.2563
16934TIP3    H172217   6.349   1.152   0.780 -1.7308 -1.3433  2.2138
16934TIP3    H272218   6.290   1.017   0.746  0.0285 -0.8732 -3.0460
16935TIP3   OH272219   2.252   6.526  11.913  0.2943 -0.1249 -0.0771
16935TIP3    H172220   2.246   6.569  11.828 -0.8205 -2.8051 -1.4269
16935TIP3    H272221   2.188   6.571  11.968 -2.0141 -1.0102 -1.9301
16936TIP3   OH272222   2.327   3.224  12.256 -0.0760 -0.0562 -0.6506
16936TIP3    H172223   2.255   3.266  12.303  0.9176  0.4529  0.4222
16936TIP3    H272224   2.406   3.269  12.286  0.6788 -0.4566 -1.9859
16937TIP3   OH272225   5.331   3.443   6.122 -0.4889 -0.0031  0.1507
16937TIP3    H172226   5.389   3.519   6.108 -0.7417  0.1348 -0.1536
16937TIP3    H272227   5.362   3.378   6.059 -0.4556 -0.0503  0.2148
16938TIP3   OH272228   3.470   0.608  17.160  0.2456  0.8075  0.1252
16938TIP3    H172229   3.460   0.514  17.143  0.1332  0.7140  0.6789
16938TIP3    H272230   3.563   0.619  17.179  0.1474  0.7005  0.6764
16939TIP3   OH272231   1.671   6.041  16.422  0.1755  0.3751  0.2163
16939TIP3    H172232   1.663   6.118  16.366 -1.1141  1.7115  2.1467
16939TIP3    H272233   1.679   6.077  16.510 -1.7706 -1.7072  1.2957
16940TIP3   OH272234   2.213   3.061  13.572  0.5153  0.5829 -0.1894
16940TIP3    H172235   2.118   3.056  13.580  0.6801 -0.5338  1.1278
16940TIP3    H272236   2.238   2.983  13.524  0.8660  0.3419  0.3771
16941TIP3   OH272237   3.568   2.057   0.913  0.1245  0.7110 -0.5558
16941TIP3    H172238   3.602   2.008   0.839 -1.3232  0.8393 -1.3356
16941TIP3    H272239   3.555   1.991   0.982  1.7444  0.6412 -0.2927
16942TIP3   OH272240   1.782   6.240   5.678  0.4109 -0.1746 -0.3572
16942TIP3    H172241   1.850   6.304   5.658  0.1927 -0.3815 -1.8434
16942TIP3    H272242   1.708   6.292   5.709  2.0106 -0.1165  3.5700
16943TIP3   OH272243   5.630   3.353  11.765  0.6724 -0.1300  0.2147
16943TIP3    H172244   5.616   3.378  11.674 -0.6270 -0.0535  0.4382
16943TIP3    H272245   5.697   3.414  11.796  0.0977  0.7556 -0.2743
16944TIP3   OH272246   1.121   2.086  13.271 -0.6855  0.4322 -0.2742
16944TIP3    H172247   1.064   2.011  13.251  0.9459 -0.5254 -1.4739
16944TIP3    H272248   1.156   2.066  13.358 -0.6459  0.0323 -0.3769
16945TIP3   OH272249   0.920   1.392  14.863  0.1953 -0.9532 -0.3800
16945TIP3    H172250   1.009   1.356  14.865  0.1774 -0.9617  0.1534
16945TIP3    H272251   0.871   1.339  14.925  0.8997  1.9079  2.8010
16946TIP3   OH272252   1.419   2.001  13.217 -0.7071  0.0744 -0.3212
16946TIP3    H172253   1.330   2.010  13.181 -0.4582 -0.8205 -1.1890
16946TIP3    H272254   1.443   2.089  13.244 -1.8608  0.3298 -0.0990
16947TIP3   OH272255   2.801   6.377  14.914  0.3053  0.1588  0.1371
16947TIP3    H172256   2.783   6.315  14.844 -1.5744  0.1482  0.5964
16947TIP3    H272257   2.779   6.329  14.994 -0.9993  1.3308  0.5071
16948TIP3   OH272258   3.319   2.408   1.482 -0.4144 -0.1194  0.3416
16948TIP3    H172259   3.228   2.387   1.503 -0.0777 -0.2352  1.7240
16948TIP3    H272260   3.319   2.502   1.464 -0.7845 -0.0948  0.4690
16949TIP3   OH272261   6.604   6.734   1.277 -0.0539  0.0278 -0.2369
16949TIP3    H172262   6.523   6.704   1.237 -0.0058 -0.6743  0.1818
16949TIP3    H272263   6.670   6.672   1.248  0.4874  1.0211 -1.1751
16950TIP3   OH272264   4.598   6.623  15.211  0.7166 -0.2398 -0.2381
16950TIP3    H172265   4.639   6.651  15.128  1.2323 -1.4243 -0.3983
16950TIP3    H272266   4.518   6.675  15.217  0.5034 -0.3762 -1.6564
16951TIP3   OH272267   2.872   6.303  13.107 -0.1630  0.3151  0.2758
16951TIP3    H172268   2.808   6.365  13.073 -1.1992 -0.6268  0.4900
16951TIP3    H272269   2.822   6.223  13.122  1.0286 -0.3710  0.6188
16952TIP3   OH272270   5.850   6.407   0.460  0.4270 -0.2841  0.5715
16952TIP3    H172271   5.872   6.473   0.526  0.7022  0.3442 -0.1447
16952TIP3    H272272   5.910   6.425   0.387 -1.9088  0.9669 -1.1075
16953TIP3   OH272273   4.320   3.373  10.910  0.1936 -0.0319  0.0286
16953TIP3    H172274   4.315   3.318  10.832  1.7717  0.4667 -0.4377
16953TIP3    H272275   4.232   3.410  10.919 -0.1683 -0.5991 -1.1289
16954TIP3   OH272276   2.703   3.195   1.530  0.0699  0.3812 -0.0286
16954TIP3    H172277   2.779   3.146   1.560 -0.3798  0.5048  1.3490
16954TIP3    H272278   2.643   3.128   1.496 -0.5920 -0.0642  1.9510
16955TIP3   OH272279   2.463   5.671  16.428  0.1903 -0.0634  0.3566
16955TIP3    H172280   2.400   5.653  16.497 -1.9725  2.0069 -0.9859
16955TIP3    H272281   2.444   5.761  16.401  1.2745 -0.6655 -2.6036
16956TIP3   OH272282   1.012   5.296   2.221 -0.0485 -0.2950  0.2497
16956TIP3    H172283   1.020   5.202   2.203 -0.1410 -0.6398  1.9183
16956TIP3    H272284   0.937   5.302   2.280 -0.1246  0.8529  0.0449
16957TIP3   OH272285   0.122   1.643   2.050  0.5162  0.0497 -0.3047
16957TIP3    H172286   0.178   1.595   2.112 -0.5717 -2.3718 -1.1203
16957TIP3    H272287   0.116   1.584   1.974 -0.4786  1.7285 -1.5436
16958TIP3   OH272288   0.197   5.238  16.556 -0.0126 -0.1676 -0.2825
16958TIP3    H172289   0.291   5.255  16.566  0.1634 -1.1683 -0.1651
16958TIP3    H272290   0.158   5.277  16.634  0.3569 -0.1475 -0.1037
16959TIP3   OH272291   4.397   5.847   1.279  0.1013 -0.2409 -0.3237
16959TIP3    H172292   4.322   5.868   1.336  1.2341  0.0503  1.0730
16959TIP3    H272293   4.398   5.752   1.275  0.3830 -0.2742  0.6207
16960TIP3   OH272294   4.543   5.051   1.941 -0.2365 -0.1442  0.3301
16960TIP3    H172295   4.567   4.959   1.927 -0.4320  0.0527 -1.4358
16960TIP3    H272296   4.580   5.097   1.866 -2.0056  0.8991  0.0620
16961TIP3   OH272297   2.163   2.121   1.481 -0.5133  0.0995 -0.5058
16961TIP3    H172298   2.163   2.028   1.456  2.4934 -0.2617  0.6061
16961TIP3    H272299   2.113   2.124   1.562 -0.2487 -0.6482 -0.3081
16962TIP3   OH272300   6.311   2.127  13.974  0.3147  0.5483  0.3078
16962TIP3    H172301   6.373   2.173  14.031 -0.7620  3.0245 -0.4575
16962TIP3    H272302   6.229   2.126  14.024  0.1434  0.1386  0.0169
16963TIP3   OH272303   3.352   5.278  11.646 -1.1083 -0.0147  0.7734
16963TIP3    H172304   3.403   5.333  11.705 -1.4907  0.6780  0.4619
16963TIP3    H272305   3.339   5.332  11.568 -0.3295 -1.0418 -0.0760
16964TIP3   OH272306   5.740   1.109  12.978 -0.6487  0.5010 -0.3313
16964TIP3    H172307   5.657   1.066  13.000 -0.2714 -0.8936 -1.5818
16964TIP3    H272308   5.794   1.098  13.056 -1.1509  0.1956 -0.0239
16965TIP3   OH272309   3.887   0.673  14.023 -0.2458 -0.3724 -0.3792
16965TIP3    H172310   3.930   0.746  13.979  0.9817  0.7191  2.5115
16965TIP3    H272311   3.801   0.707  14.047  0.1960  0.0533  0.6558
16966TIP3   OH272312   6.646   0.232  15.148  0.1940 -0.4434  0.5170
16966TIP3    H172313   6.585   0.272  15.087  0.9304  0.5957  0.4472
16966TIP3    H272314   6.721   0.207  15.094  0.6333  0.0151  0.9119
16967TIP3   OH272315   2.963   2.609   0.576  0.1771 -0.1736 -0.0666
16967TIP3    H172316   2.911   2.531   0.594  0.6785 -0.5403 -0.2038
16967TIP3    H272317   2.997   2.596   0.487  2.5091 -1.0852  0.9188
16968TIP3   OH272318   3.396   3.400   3.279  0.0592  0.1538 -0.2216
16968TIP3    H172319   3.424   3.395   3.187 -1.5759 -2.2233 -0.6280
16968TIP3    H272320   3.313   3.446   3.277  0.1295  0.2955  0.0899
16969TIP3   OH272321   0.179   2.400  12.207 -0.3896  0.1865 -0.2388
16969TIP3    H172322   0.137   2.316  12.191  0.0623 -0.3078  1.1565
16969TIP3    H272323   0.251   2.381  12.267 -1.2507  1.7818  1.3553
16970TIP3   OH272324   4.727   1.168   3.788 -0.2817  0.6212 -0.4091
16970TIP3    H172325   4.693   1.214   3.712 -0.5213  0.4411 -0.4096
16970TIP3    H272326   4.818   1.196   3.794  0.2387 -0.6800 -1.7721
16971TIP3   OH272327   0.379   2.864   2.632  0.4417 -0.0415 -0.6526
16971TIP3    H172328   0.420   2.798   2.576  2.1545  1.4597 -1.1838
16971TIP3    H272329   0.442   2.879   2.702 -0.8413 -0.4555  0.6187
16972TIP3   OH272330   1.238   6.332  16.373  0.2926 -0.5872 -0.0464
16972TIP3    H172331   1.184   6.334  16.452  1.5802  0.4156  0.8203
16972TIP3    H272332   1.289   6.251  16.381  0.4109 -0.4939  0.1390
16973TIP3   OH272333   4.427   4.415   4.088  0.6095 -0.5222  0.2134
16973TIP3    H172334   4.491   4.483   4.067  1.1687 -0.6692  1.4036
16973TIP3    H272335   4.376   4.405   4.008  1.3552  0.3865 -0.3899
16974TIP3   OH272336   3.921   3.735   1.705  0.0309 -0.4465  0.3630
16974TIP3    H172337   3.875   3.705   1.783 -0.3416  1.3043  0.8291
16974TIP3    H272338   4.013   3.737   1.731 -0.2311  1.5085  1.2440
16975TIP3   OH272339   2.658   2.407   3.902 -0.1467 -0.0497 -0.4223
16975TIP3    H172340   2.696   2.319   3.904 -0.1509 -0.0605 -0.8249
16975TIP3    H272341   2.585   2.402   3.964  1.3279  0.3581  1.3554
16976TIP3   OH272342   1.141   0.144  16.062 -0.9952  0.2937 -0.1612
16976TIP3    H172343   1.124   0.204  15.989  0.4696  0.2376 -0.5689
16976TIP3    H272344   1.206   0.082  16.027  0.6964  1.0488  1.6050
16977TIP3   OH272345   4.901   1.939   5.357  0.6445 -0.0639  0.8869
16977TIP3    H172346   4.860   1.897   5.433  1.7504  1.0895  2.1371
16977TIP3    H272347   4.892   2.033   5.373 -1.3536  0.2289 -1.6516
16978TIP3   OH272348   4.717   2.673   2.814 -0.0380 -0.2858 -0.5672
16978TIP3    H172349   4.722   2.698   2.722 -1.3898 -0.0730 -0.5993
16978TIP3    H272350   4.801   2.701   2.851  0.9241 -1.2858 -1.9315
16979TIP3   OH272351   6.222   5.200   1.834 -0.5575 -0.4002 -0.0533
16979TIP3    H172352   6.313   5.230   1.838 -1.3041  2.1148 -1.1471
16979TIP3    H272353   6.215   5.135   1.904  2.4536 -1.6985 -0.8553
16980TIP3   OH272354   5.086   4.620  11.135  0.0991 -0.2326  0.1838
16980TIP3    H172355   5.155   4.614  11.201 -2.3511 -0.8493  2.7780
16980TIP3    H272356   5.027   4.687  11.168 -0.9428 -0.2309 -1.6251
16981TIP3   OH272357   6.667   0.253   6.256 -0.1172 -0.3613 -0.5330
16981TIP3    H172358   6.726   0.286   6.188  2.7227  0.0481  1.9827
16981TIP3    H272359   6.615   0.329   6.282  1.6734  0.5167  0.5625
16982TIP3   OH272360   6.448   2.791   2.628  0.2795 -0.0248  0.0457
16982TIP3    H172361   6.492   2.869   2.662  1.4704 -0.1421 -1.2028
16982TIP3    H272362   6.515   2.745   2.578 -1.0317 -0.6399 -1.1801
16983TIP3   OH272363   3.717   5.453   6.561 -0.1255 -0.2842  0.3113
16983TIP3    H172364   3.712   5.387   6.492 -3.9839  0.2693 -0.0343
16983TIP3    H272365   3.728   5.536   6.515 -1.8536 -0.0078  0.3621
16984TIP3   OH272366   1.128   2.234  14.143 -0.4838  0.1145 -0.3193
16984TIP3    H172367   1.122   2.169  14.072  1.3318 -1.1938  0.6726
16984TIP3    H272368   1.077   2.195  14.214 -0.2317  0.2489 -0.0663
16985TIP3   OH272369   5.963   6.315   1.579  0.0821  0.2746  0.0261
16985TIP3    H172370   6.024   6.276   1.641  0.8996 -0.7173 -1.3907
16985TIP3    H272371   5.925   6.241   1.532  0.1424  1.0575 -1.2783
16986TIP3   OH272372   4.873   5.225  14.911 -0.4209 -0.1349 -0.3187
16986TIP3    H172373   4.956   5.180  14.899 -0.5117 -0.1963 -0.7042
16986TIP3    H272374   4.858   5.223  15.006 -1.0390 -2.0021 -0.4501
16987TIP3   OH272375   2.453   2.804   2.369  0.1422 -0.7214  0.4625
16987TIP3    H172376   2.513   2.732   2.389  1.4785  0.3078  0.2203
16987TIP3    H272377   2.460   2.863   2.444  1.2680  0.5851 -0.6406
16988TIP3   OH272378   3.321   1.375  11.966  0.4197  0.0020  0.4536
16988TIP3    H172379   3.239   1.395  11.920 -0.1214 -1.5239  0.7389
16988TIP3    H272380   3.388   1.388  11.899 -0.0723  1.0122  0.1428
16989TIP3   OH272381   3.150   6.032  13.288  0.0455  0.0923 -0.5990
16989TIP3    H172382   3.152   5.941  13.260 -0.6441  0.4664 -1.9145
16989TIP3    H272383   3.234   6.068  13.262 -0.0535  0.0786 -0.9348
16990TIP3   OH272384   5.443   5.484  14.621  0.2366  0.2605  0.3150
16990TIP3    H172385   5.538   5.491  14.630  0.3823 -2.4013  1.2718
16990TIP3    H272386   5.411   5.480  14.711 -0.8994  1.9524  0.0181
16991TIP3   OH272387   1.815   4.499   4.812  0.2047 -0.6494 -0.2825
16991TIP3    H172388   1.907   4.525   4.811  0.6553 -2.2356 -1.7970
16991TIP3    H272389   1.769   4.576   4.846  2.1208  0.0195  0.8706
16992TIP3   OH272390   5.661   5.199   0.665  0.1691 -0.3402  0.5872
16992TIP3    H172391   5.638   5.268   0.602  1.0705  0.6820  1.3365
16992TIP3    H272392   5.690   5.126   0.611  0.3933  0.3262 -0.2146
16993TIP3   OH272393   4.660   4.742   0.442  0.0464  0.3476  0.2181
16993TIP3    H172394   4.654   4.701   0.356 -0.9442  0.5389  0.1945
16993TIP3    H272395   4.624   4.830   0.429  0.3682  0.5565  0.7115
16994TIP3   OH272396   4.143   1.333   1.648  0.4445 -0.3889 -0.8183
16994TIP3    H172397   4.056   1.310   1.616  0.3279  0.3664 -1.0445
16994TIP3    H272398   4.134   1.421   1.684  1.2423 -0.0748 -1.3642
16995TIP3   OH272399   1.468   5.717   0.895 -0.2829 -0.1841  0.7947
16995TIP3    H172400   1.543   5.745   0.843  0.3375  0.1340  1.8501
16995TIP3    H272401   1.506   5.670   0.969 -1.1683 -0.8251  0.8449
16996TIP3   OH272402   4.717   5.797  15.227  0.1301  0.4781  0.0647
16996TIP3    H172403   4.726   5.709  15.265 -0.1415 -1.2943 -3.7126
16996TIP3    H272404   4.622   5.809  15.218  0.1728  1.1246  0.4831
16997TIP3   OH272405   1.474   4.231  11.104 -0.2397 -0.1460 -0.5767
16997TIP3    H172406   1.528   4.204  11.179  0.0922 -1.2095 -1.1884
16997TIP3    H272407   1.439   4.149  11.069  0.2516  0.2727 -2.0812
16998TIP3   OH272408   6.681   6.164   5.590 -0.0016 -0.0203  0.2242
16998TIP3    H172409   6.698   6.076   5.622  0.7690 -0.2906 -0.9003
16998TIP3    H272410   6.662   6.215   5.669  2.2538 -0.5628  1.1483
16999TIP3   OH272411   5.163   2.434   1.869 -0.2708 -0.7412 -0.0101
16999TIP3    H172412   5.252   2.399   1.860  1.4370  2.5477  2.8951
16999TIP3    H272413   5.158   2.504   1.803 -0.8132 -1.0996 -0.3541
17000TIP3   OH272414   3.319   0.907  10.768 -0.1817  0.0955 -0.1076
17000TIP3    H172415   3.312   0.824  10.815  0.5087  1.4128  2.4071
17000TIP3    H272416   3.229   0.927  10.742 -0.7364 -0.1814  1.5350
17001TIP3   OH272417   3.318   4.701   7.364  1.0875  0.5171  0.7978
17001TIP3    H172418   3.328   4.615   7.404  1.3441  0.9031  1.5952
17001TIP3    H272419   3.320   4.685   7.270 -0.6960 -0.5561  0.9082
17002TIP3   OH272420   5.072   1.269   4.036  0.6096 -0.2267  0.3526
17002TIP3    H172421   5.093   1.362   4.042 -1.2083  0.2274 -0.0192
17002TIP3    H272422   5.008   1.255   4.105 -0.4458 -0.8148 -0.7331
17003TIP3   OH272423   6.586   4.720  13.695 -0.0826  0.3298 -0.4713
17003TIP3    H172424   6.645   4.653  13.660  0.9267  0.3240  1.2131
17003TIP3    H272425   6.500   4.678  13.692  0.4669 -0.8733  0.1028
17004TIP3   OH272426   2.369   3.994  14.249  0.3286  0.3062  0.1082
17004TIP3    H172427   2.342   4.060  14.186  1.8960 -0.2544 -1.1666
17004TIP3    H272428   2.329   4.023  14.332 -0.6382  1.7576 -0.8416
17005TIP3   OH272429   5.726   1.664  11.450 -0.3919  0.3207 -0.0432
17005TIP3    H172430   5.725   1.757  11.429  1.9645  0.0139 -1.7242
17005TIP3    H272431   5.659   1.654  11.517 -0.2898  3.3067  0.5815
17006TIP3   OH272432   2.381   0.940   3.628 -0.0634  0.3874  0.3001
17006TIP3    H172433   2.391   0.877   3.699 -0.5420 -1.8057 -1.5032
17006TIP3    H272434   2.318   0.899   3.568  2.9625  0.5460 -3.1542
17007TIP3   OH272435   3.074   6.440  12.594  0.6082 -0.1144  0.5703
17007TIP3    H172436   3.168   6.457  12.602  0.8175 -1.1910  0.3958
17007TIP3    H272437   3.064   6.347  12.611 -0.3043 -0.2278 -0.5076
17008TIP3   OH272438   3.462   0.635   4.588 -0.1544  0.1334  0.5138
17008TIP3    H172439   3.444   0.615   4.496  2.0179 -0.0587  0.0898
17008TIP3    H272440   3.428   0.724   4.601 -1.2445 -0.1766 -0.2435
17009TIP3   OH272441   4.894   0.517  13.469 -0.5364  0.5819  0.1429
17009TIP3    H172442   4.847   0.588  13.425 -1.4978 -0.2312 -0.1697
17009TIP3    H272443   4.920   0.458  13.398 -0.8558 -0.0193  0.5236
17010TIP3   OH272444   0.179   4.050  14.475  0.2788  0.2581  0.7580
17010TIP3    H172445   0.088   4.051  14.508 -0.2265 -1.0626 -0.5533
17010TIP3    H272446   0.231   4.076  14.551 -1.0536 -0.6892  2.0402
17011TIP3   OH272447   4.272   5.061   0.164  0.3677 -0.1717 -0.0672
17011TIP3    H172448   4.292   5.151   0.141 -0.2317 -0.2625 -0.9941
17011TIP3    H272449   4.296   5.053   0.256  0.5916  0.8806 -0.0344
17012TIP3   OH272450   3.348   0.510  16.370 -0.0112  0.6681 -0.3154
17012TIP3    H172451   3.402   0.578  16.410  0.8766  0.4818 -1.1793
17012TIP3    H272452   3.258   0.541  16.382  0.4207  2.3344 -1.3127
17013TIP3   OH272453   0.645   3.847   1.822  0.0692 -0.3382  0.4842
17013TIP3    H172454   0.625   3.826   1.731  1.1026  1.8446 -0.2735
17013TIP3    H272455   0.573   3.808   1.872 -0.5350 -1.5091 -1.2473
17014TIP3   OH272456   4.090   0.194  14.029 -0.1344  0.4026  0.5760
17014TIP3    H172457   4.106   0.172  14.121  0.2706  1.2259  0.7165
17014TIP3    H272458   4.155   0.143  13.980 -0.8276 -0.5863  0.6901
17015TIP3   OH272459   3.166   5.323  13.464 -0.2363  0.0708  0.2729
17015TIP3    H172460   3.207   5.400  13.425  0.2556  0.3015  1.2220
17015TIP3    H272461   3.193   5.251  13.409  1.3643  0.2406  0.8171
17016TIP3   OH272462   4.720   0.068   4.339  0.3931 -0.0775  0.1405
17016TIP3    H172463   4.764   0.117   4.270  1.9300 -1.5909 -0.0084
17016TIP3    H272464   4.722   0.126   4.416  1.9646  0.1872 -0.0884
17017TIP3   OH272465   0.546   0.762   0.498 -0.2876 -0.1836 -0.4046
17017TIP3    H172466   0.568   0.825   0.567  1.1710 -1.1653  0.0430
17017TIP3    H272467   0.591   0.682   0.524 -0.1894 -0.7204 -2.2147
17018TIP3   OH272468   3.109   4.299   4.519  0.4991 -0.0002  0.1479
17018TIP3    H172469   3.051   4.252   4.578  1.8796 -0.5191  1.1110
17018TIP3    H272470   3.147   4.369   4.572  1.3696 -0.1631 -0.2402
17019TIP3   OH272471   3.331   1.791  14.459  0.0532  0.2977  0.6411
17019TIP3    H172472   3.413   1.790  14.507 -0.4276 -0.6740  1.4530
17019TIP3    H272473   3.310   1.699  14.444 -0.4026  0.5624 -0.4021
17020TIP3   OH272474   3.102   5.012  13.593  0.7840  0.3069  0.3193
17020TIP3    H172475   3.084   5.069  13.667  0.5246 -0.0143  0.5054
17020TIP3    H272476   3.137   5.070  13.525 -1.8747  1.1203 -0.4138
17021TIP3   OH272477   1.572   0.278   2.952  0.7068 -0.3936  0.1707
17021TIP3    H172478   1.523   0.249   2.875 -0.5851 -0.9370  1.1942
17021TIP3    H272479   1.663   0.257   2.931  0.0922 -2.7421 -0.2056
17022TIP3   OH272480   1.363   5.789  12.215 -0.4109  0.4074  0.3835
17022TIP3    H172481   1.447   5.773  12.259  0.5676 -0.1243 -1.5917
17022TIP3    H272482   1.332   5.703  12.190 -0.3186  0.7657 -1.0367
17023TIP3   OH272483   1.051   6.266  14.274 -0.4500  0.3354  0.0634
17023TIP3    H172484   1.009   6.285  14.358 -0.4330  0.2551  0.0895
17023TIP3    H272485   1.129   6.323  14.274  1.8565 -2.6447  1.9481
17024TIP3   OH272486   3.919   1.963   1.979 -0.0302 -0.2074  0.4227
17024TIP3    H172487   3.970   2.043   1.994  2.4248 -1.8126  0.9543
17024TIP3    H272488   3.879   1.943   2.063 -0.1228  0.0920  0.4509
17025TIP3   OH272489   6.626   6.697  11.362 -0.4046  0.3348  0.1409
17025TIP3    H172490   6.542   6.742  11.367  0.6861  2.2374  2.3909
17025TIP3    H272491   6.614   6.616  11.412 -0.8654  0.6852  0.5988
17026TIP3   OH272492   0.457   6.752  10.730 -0.7974  0.5687 -0.3510
17026TIP3    H172493   0.396   6.769  10.659 -1.2167  1.4598  0.2141
17026TIP3    H272494   0.463   6.836  10.777  0.6547  0.4197 -0.2519
17027TIP3   OH272495   3.547   3.561   5.008 -0.2044 -0.0476  0.5016
17027TIP3    H172496   3.517   3.620   5.077  0.4212  1.3323 -0.3981
17027TIP3    H272497   3.639   3.584   4.995  0.0132 -1.1325  0.0423
17028TIP3   OH272498   2.746   4.341   4.462 -0.1627 -0.1151  0.1743
17028TIP3    H172499   2.812   4.335   4.531 -1.3228  0.5572  1.3745
17028TIP3    H272500   2.792   4.379   4.387  0.5341  1.5244  1.4077
17029TIP3   OH272501   1.409   6.264  13.701  0.3587 -0.6059 -0.1442
17029TIP3    H172502   1.477   6.318  13.742  3.2364 -4.7118  0.8528
17029TIP3    H272503   1.335   6.269  13.760  0.6271  1.9919  0.0306
17030TIP3   OH272504   4.161   0.908  15.866 -0.3199 -0.1803 -0.1625
17030TIP3    H172505   4.189   0.904  15.958 -1.8522 -0.0838  0.3231
17030TIP3    H272506   4.217   0.844  15.822  0.0417 -0.6544  0.9508
17031TIP3   OH272507   6.549   4.124   0.503  0.7470 -0.2678 -0.1215
17031TIP3    H172508   6.591   4.038   0.516 -0.5633 -1.2770 -2.3020
17031TIP3    H272509   6.455   4.106   0.511  0.5760  1.6020  2.6763
17032TIP3   OH272510   4.583   5.209   0.040 -0.1062  0.3139  0.1970
17032TIP3    H172511   4.500   5.221   0.085 -0.2160  2.5984 -0.5700
17032TIP3    H272512   4.649   5.228   0.106 -0.2350  1.0057  0.1308
17033TIP3   OH272513   1.475   3.563   5.993 -0.3664  0.0203 -0.7024
17033TIP3    H172514   1.407   3.593   6.053 -0.5143  1.2123 -1.4551
17033TIP3    H272515   1.506   3.642   5.950  0.4574 -0.7017 -1.4549
17034TIP3   OH272516   4.805   2.023   0.463  0.2018 -0.1287 -0.2436
17034TIP3    H172517   4.818   1.961   0.390  1.0026  0.0037 -0.2120
17034TIP3    H272518   4.888   2.069   0.471 -0.7001  1.7077 -0.9525
17035TIP3   OH272519   4.206   6.189  12.444  0.0831  0.2298  0.5626
17035TIP3    H172520   4.211   6.137  12.363  1.4585 -1.8242  1.9100
17035TIP3    H272521   4.275   6.153  12.499 -0.5552  1.8982  2.4991
17036TIP3   OH272522   2.004   3.146  15.004  0.4404 -0.3725 -0.5870
17036TIP3    H172523   1.972   3.229  15.039  3.9791  0.1116  1.7750
17036TIP3    H272524   2.019   3.162  14.911 -2.9162  0.3072 -1.0560
17037TIP3   OH272525   5.451   6.007  13.339  0.4385 -1.0114  0.3074
17037TIP3    H172526   5.528   6.053  13.305 -0.8547  2.0654  1.3375
17037TIP3    H272527   5.469   5.996  13.433 -0.4278 -0.0564  0.6025
17038TIP3   OH272528   3.774   2.071  11.601  0.2836  0.6999 -0.3214
17038TIP3    H172529   3.813   2.150  11.639  2.9018 -1.3065  1.3546
17038TIP3    H272530   3.723   2.033  11.672  1.2472 -0.5379 -0.2892
17039TIP3   OH272531   3.084   3.915   1.340 -0.1345 -0.0300 -0.0613
17039TIP3    H172532   3.051   4.001   1.316 -2.0033 -1.1435 -1.6413
17039TIP3    H272533   3.060   3.904   1.432 -1.5083  0.4282 -0.3508
17040TIP3   OH272534   2.561   6.696   1.157 -0.4533  0.3102  0.0935
17040TIP3    H172535   2.546   6.728   1.246 -0.7040 -0.3158  0.2754
17040TIP3    H272536   2.588   6.774   1.108 -2.9521  1.2256  0.0855
17041TIP3   OH272537   3.189   0.432  16.835  0.2795 -0.1320  0.4395
17041TIP3    H172538   3.254   0.499  16.856  0.4105 -0.5628  1.4121
17041TIP3    H272539   3.105   0.478  16.842  0.3673 -0.0771  1.1470
17042TIP3   OH272540   0.127   3.399  16.231  0.2459 -0.4415  1.0113
17042TIP3    H172541   0.047   3.347  16.225 -0.4876  0.8602 -0.5521
17042TIP3    H272542   0.174   3.381  16.150  0.1937  1.0012  0.6557
17043TIP3   OH272543   3.823   1.160   1.903  0.4821  0.5946  0.2129
17043TIP3    H172544   3.913   1.129   1.914  1.1555  1.6394 -2.0995
17043TIP3    H272545   3.770   1.080   1.902  1.3521 -0.0245  1.6354
17044TIP3   OH272546   0.963   1.488   6.541  0.0998 -0.2375 -0.1250
17044TIP3    H172547   1.011   1.561   6.581 -1.5704  0.2634  1.0383
17044TIP3    H272548   1.030   1.424   6.518  1.2822  0.2105  1.9680
17045TIP3   OH272549   6.129   5.542   2.521  0.1298 -0.2514 -0.0810
17045TIP3    H172550   6.145   5.458   2.565 -1.0457 -1.1386 -1.3423
17045TIP3    H272551   6.217   5.579   2.509  0.8048 -2.1827 -1.2530
17046TIP3   OH272552   0.153   5.147   6.338 -0.1024  0.0846 -0.2093
17046TIP3    H172553   0.175   5.153   6.431 -0.1391 -0.7031 -0.1490
17046TIP3    H272554   0.144   5.238   6.310 -1.3212  0.3084  0.8436
17047TIP3   OH272555   4.245   3.826  17.014  0.1888 -0.1207  0.6949
17047TIP3    H172556   4.180   3.896  17.014  1.1013  0.7967 -1.5863
17047TIP3    H272557   4.213   3.764  16.948  1.3623  0.1253 -0.1331
17048TIP3   OH272558   0.269   4.139   0.768  0.0759 -0.1537 -0.0828
17048TIP3    H172559   0.231   4.057   0.735  1.2365 -0.4917 -0.5940
17048TIP3    H272560   0.361   4.134   0.744  0.2137  1.1799  0.1408
17049TIP3   OH272561   5.023   0.478  11.994 -0.4255  0.4073  0.0042
17049TIP3    H172562   5.038   0.424  12.072 -1.3810 -1.2631 -0.9442
17049TIP3    H272563   4.999   0.564  12.029 -3.7931 -1.0853  1.6361
17050TIP3   OH272564   3.604   4.816   5.892  0.3454 -0.0942  0.5041
17050TIP3    H172565   3.570   4.802   5.803  0.9398 -0.8287  0.3860
17050TIP3    H272566   3.608   4.728   5.930  1.1861  0.0984  0.8580
17051TIP3   OH272567   4.530   5.209  12.520  0.2592  0.1329 -0.1456
17051TIP3    H172568   4.488   5.123  12.519  0.4565  0.0376 -0.3595
17051TIP3    H272569   4.602   5.201  12.582 -0.4076  0.4794  0.6904
17052TIP3   OH272570   1.798   4.788  14.451 -0.7147  0.7843  0.2386
17052TIP3    H172571   1.889   4.817  14.462  0.2063 -1.9248  0.0555
17052TIP3    H272572   1.784   4.726  14.523 -2.0211  0.2459 -0.4711
17053TIP3   OH272573   5.102   4.365   5.839  0.1773 -0.0386  0.4922
17053TIP3    H172574   5.019   4.355   5.887  0.4866 -1.4861  0.7406
17053TIP3    H272575   5.078   4.352   5.747  0.1453 -0.5575  0.5738
17054TIP3   OH272576   2.882   5.179  11.485 -0.0998 -0.3227  0.3480
17054TIP3    H172577   2.958   5.121  11.489  0.2035  0.0976  0.6640
17054TIP3    H272578   2.864   5.187  11.391  0.6146  0.0577  0.2398
17055TIP3   OH272579   5.372   2.264   3.699 -0.4967  0.1714  0.2136
17055TIP3    H172580   5.355   2.314   3.779 -1.8536 -0.7880  0.5454
17055TIP3    H272581   5.459   2.227   3.713 -1.4173 -1.3957  2.0243
17056TIP3   OH272582   3.195   1.257  10.799 -0.4251 -0.4100 -0.6717
17056TIP3    H172583   3.271   1.213  10.761  0.1099  0.7704 -0.9901
17056TIP3    H272584   3.167   1.318  10.731 -0.2229  0.8355  0.3629
17057TIP3   OH272585   5.390   1.706   6.068  0.1243 -0.3299  0.5560
17057TIP3    H172586   5.371   1.709   5.974 -0.0229  1.1826  0.6246
17057TIP3    H272587   5.304   1.697   6.109  0.0295  0.8145  0.6181
17058TIP3   OH272588   3.880   4.948  16.188 -0.5421 -0.0189 -0.2413
17058TIP3    H172589   3.831   4.872  16.157  0.5780 -0.0477 -2.0442
17058TIP3    H272590   3.873   5.012  16.117  1.9549 -0.0063 -0.5279
17059TIP3   OH272591   5.984   1.799   6.832  0.3619  0.3324  0.4123
17059TIP3    H172592   5.895   1.802   6.867  0.1481  0.3005 -0.1177
17059TIP3    H272593   5.984   1.722   6.774  0.8388  0.1207  0.6944
17060TIP3   OH272594   5.638   1.639  11.741 -0.1758  0.3601  0.3421
17060TIP3    H172595   5.646   1.558  11.793  0.5519  0.3928  0.2931
17060TIP3    H272596   5.726   1.678  11.745 -0.2239  0.5656 -0.5862
17061TIP3   OH272597   6.583   6.763  13.201  0.5086 -0.6677 -0.8201
17061TIP3    H172598   6.574   6.761  13.106 -0.4810 -1.1948 -0.7331
17061TIP3    H272599   6.545   6.847  13.227  0.6300 -0.5944 -0.8785
17062TIP3   OH272600   6.574   6.175  14.026  0.3462 -0.4215  0.2134
17062TIP3    H172601   6.540   6.151  13.940 -0.0387 -2.1537  0.8380
17062TIP3    H272602   6.576   6.093  14.075  3.3533  0.0393  0.9119
17063TIP3   OH272603   5.288   1.734   4.861  0.0886  0.0351  0.7235
17063TIP3    H172604   5.346   1.724   4.785  0.1733 -1.5027  0.9840
17063TIP3    H272605   5.340   1.784   4.924  0.8944 -0.7398  0.6918
17064TIP3   OH272606   0.596   0.326   0.936 -0.4214 -0.8173  0.0743
17064TIP3    H172607   0.628   0.399   0.989  1.3877 -0.5613 -1.3274
17064TIP3    H272608   0.503   0.343   0.925 -0.3576  0.3260  1.2469
17065TIP3   OH272609   5.973   2.843  16.838 -0.0942 -0.0433 -0.1786
17065TIP3    H172610   6.020   2.874  16.916 -1.9579  1.4083  0.3943
17065TIP3    H272611   5.991   2.749  16.836  1.8835  0.2821  0.6725
17066TIP3   OH272612   6.505   2.748   4.790 -0.7152  0.4083  0.2982
17066TIP3    H172613   6.589   2.792   4.805  0.1679 -0.8585 -0.8038
17066TIP3    H272614   6.516   2.703   4.707 -2.5062  0.2164  0.1366
17067TIP3   OH272615   1.693   5.824  12.662  0.9361 -0.2650 -0.4612
17067TIP3    H172616   1.668   5.915  12.645  1.0900 -0.0567  0.3601
17067TIP3    H272617   1.640   5.772  12.602  0.2024  0.3159 -0.3251
17068TIP3   OH272618   1.432   2.978   5.926  0.0565 -0.1008 -0.2661
17068TIP3    H172619   1.451   2.907   5.988  0.7533  0.4466  0.1575
17068TIP3    H272620   1.374   2.939   5.861  0.8161 -1.1957 -0.2980
17069TIP3   OH272621   6.748   0.298   3.804  0.6163  0.2433  0.7160
17069TIP3    H172622   6.701   0.344   3.734 -0.0474 -1.1268  0.2313
17069TIP3    H272623   6.835   0.281   3.768  0.3708 -0.1984  0.3221
17070TIP3   OH272624   2.304   0.143   2.205 -0.6265 -0.2178  0.4001
17070TIP3    H172625   2.302   0.238   2.201  1.0462 -0.1557  0.7909
17070TIP3    H272626   2.224   0.115   2.159 -0.4128  1.3316 -0.9576
17071TIP3   OH272627   3.698   1.936   0.696 -0.3306  0.4361  0.3016
17071TIP3    H172628   3.678   1.860   0.750 -0.6394  0.9692  0.9432
17071TIP3    H272629   3.784   1.918   0.659 -0.1907 -0.0042  0.8448
17072TIP3   OH272630   1.297   2.489   6.128 -1.1567  0.1720  0.3448
17072TIP3    H172631   1.353   2.506   6.204 -0.9065  0.5737  0.0718
17072TIP3    H272632   1.232   2.427   6.160 -1.3385  0.6964  1.0245
17073TIP3   OH272633   0.467   0.525  13.566 -0.3562 -0.7144  0.2627
17073TIP3    H172634   0.484   0.601  13.621  1.4483 -1.8291  1.3364
17073TIP3    H272635   0.388   0.485  13.603 -1.0492  0.3754 -0.0303
17074TIP3   OH272636   4.008   6.630  11.466 -0.1088 -0.1097  0.3124
17074TIP3    H172637   4.053   6.646  11.549  1.0061 -0.0913 -0.2913
17074TIP3    H272638   3.951   6.555  11.484  0.8714 -0.7478  0.8222
17075TIP3   OH272639   4.295   0.686   4.229  0.2425 -0.9692  0.0330
17075TIP3    H172640   4.255   0.641   4.304 -1.9436  0.2631 -0.3639
17075TIP3    H272641   4.276   0.630   4.154  0.1964 -0.9104  0.0008
17076TIP3   OH272642   2.310   3.613   3.695 -0.5379  0.0643  0.7964
17076TIP3    H172643   2.404   3.591   3.692 -0.4869  0.4332 -0.6702
17076TIP3    H272644   2.279   3.570   3.775  0.8788 -0.0697  1.3053
17077TIP3   OH272645   5.572   2.392   4.115 -0.2769  0.5732  0.3688
17077TIP3    H172646   5.638   2.364   4.180 -0.6550 -1.5630 -0.1323
17077TIP3    H272647   5.490   2.392   4.164 -0.3660  0.2325  0.2196
17078TIP3   OH272648   0.348   4.585  14.533 -0.0590  0.3468  0.2693
17078TIP3    H172649   0.329   4.670  14.572 -0.0441  0.5443 -0.1513
17078TIP3    H272650   0.265   4.537  14.537 -0.0117  0.2991  0.7056
17079TIP3   OH272651   3.881   5.781  11.704 -0.4417 -0.1316 -0.1451
17079TIP3    H172652   3.946   5.737  11.759  1.5076  2.4070 -0.3352
17079TIP3    H272653   3.826   5.829  11.766 -0.1866  0.2273 -0.1956
17080TIP3   OH272654   0.975   3.441   6.168 -0.8995  0.4982 -0.2838
17080TIP3    H172655   0.954   3.430   6.261 -0.3520 -1.6600 -0.3898
17080TIP3    H272656   0.905   3.395   6.122 -1.6523  2.3054 -0.9998
17081TIP3   OH272657   2.325   6.316  14.292 -0.0732 -0.0374 -0.3065
17081TIP3    H172658   2.321   6.223  14.313  1.8386  0.1685  1.0947
17081TIP3    H272659   2.418   6.335  14.280 -0.6422  1.1649 -3.1994
17082TIP3   OH272660   1.827   4.647   3.064  0.1003 -0.0394  0.1360
17082TIP3    H172661   1.846   4.567   3.015 -0.9593 -1.4448  1.9269
17082TIP3    H272662   1.905   4.659   3.119 -1.1100 -1.8164  2.3412
17083TIP3   OH272663   4.569   2.521  11.936 -0.5814 -0.6681 -0.1325
17083TIP3    H172664   4.643   2.493  11.990 -0.9756  0.2337  0.8989
17083TIP3    H272665   4.606   2.532  11.848  0.5200 -0.1799  0.3821
17084TIP3   OH272666   5.100   5.084   6.094 -0.1087  0.8379  0.0447
17084TIP3    H172667   5.016   5.051   6.127 -0.2719 -0.2294 -1.3886
17084TIP3    H272668   5.104   5.174   6.125 -1.2029  0.5051  1.2095
17085TIP3   OH272669   6.210   0.002  13.993 -0.2989  0.1493 -0.2310
17085TIP3    H172670   6.266  -0.072  14.018 -1.3599 -0.3673  0.7187
17085TIP3    H272671   6.270   0.072  13.971  0.7263 -0.7510 -0.3385
17086TIP3   OH272672   0.627   0.792   3.428 -0.2562  0.3527 -0.0309
17086TIP3    H172673   0.695   0.860   3.424  0.9591 -0.7408  1.5154
17086TIP3    H272674   0.577   0.804   3.347  2.5841  0.3275 -1.8648
17087TIP3   OH272675   1.585   3.506   0.624  0.3490  0.4246  0.2790
17087TIP3    H172676   1.493   3.480   0.615  0.2328  0.7715  0.4650
17087TIP3    H272677   1.606   3.488   0.715  0.2646  0.9890  0.4120
17088TIP3   OH272678   5.331   2.543   1.657  0.1644 -0.6219 -0.1613
17088TIP3    H172679   5.380   2.623   1.640  0.7362 -0.7285  0.9283
17088TIP3    H272680   5.243   2.561   1.624  0.4970  0.1674 -0.6158
17089TIP3   OH272681   2.121   3.707   4.526  0.6004  0.1228  0.2646
17089TIP3    H172682   2.096   3.619   4.495  0.1060  0.9031 -1.6231
17089TIP3    H272683   2.196   3.731   4.471  1.4033  0.4805  1.4878
17090TIP3   OH272684   3.932   3.154  14.948 -0.1908 -0.1412 -0.5539
17090TIP3    H172685   3.992   3.131  14.878  1.7399  0.8251  0.7468
17090TIP3    H272686   3.920   3.248  14.940  0.7132  0.1187  0.9065
17091TIP3   OH272687   2.131   2.188  16.154 -0.2885  0.3740  0.2606
17091TIP3    H172688   2.184   2.267  16.162  0.2936  0.0933 -0.6740
17091TIP3    H272689   2.195   2.117  16.147 -0.7873 -0.0482 -0.0849
17092TIP3   OH272690   4.173   0.056  13.123 -0.0674  0.5943 -0.1087
17092TIP3    H172691   4.103   0.069  13.059 -0.3994 -1.3314 -0.1764
17092TIP3    H272692   4.127   0.055  13.208  0.1971  1.7655  0.0534
17093TIP3   OH272693   4.670   6.682   2.116 -0.3386 -0.2590  0.1592
17093TIP3    H172694   4.649   6.611   2.176 -1.5816 -0.6266 -0.6879
17093TIP3    H272695   4.647   6.761   2.164  0.0001 -0.4756  0.6852
17094TIP3   OH272696   5.087   1.005  13.408 -0.6707 -0.0337 -0.5106
17094TIP3    H172697   5.039   0.924  13.421  1.0943 -1.1987 -1.1099
17094TIP3    H272698   5.132   1.020  13.491 -2.2383  1.2093  0.1498
17095TIP3   OH272699   1.588   1.621  17.176 -0.0015 -0.2021  0.5777
17095TIP3    H172700   1.611   1.714  17.164  0.3216 -0.0733  2.0334
17095TIP3    H272701   1.643   1.575  17.112 -1.5169  0.7381 -1.4543
17096TIP3   OH272702   0.273   6.442  12.628 -0.1821  0.0457  0.0449
17096TIP3    H172703   0.292   6.434  12.721 -1.9582 -0.0717  0.4105
17096TIP3    H272704   0.333   6.510  12.597  1.1659 -0.6563  1.0366
17097TIP3   OH272705   6.745   2.871  11.972  0.1158 -0.1236  1.0437
17097TIP3    H172706   6.781   2.860  11.884 -1.5634 -1.8458  0.5229
17097TIP3    H272707   6.760   2.787  12.015 -2.1975 -0.5235  1.1629
17098TIP3   OH272708   2.296   2.996  11.739  0.0454  0.2411 -0.3602
17098TIP3    H172709   2.349   3.039  11.672  2.5474  1.3043  2.2307
17098TIP3    H272710   2.326   2.905  11.739  0.6693  0.4438 -0.0888
17099TIP3   OH272711   1.228   6.475  14.252 -0.3638  0.8606 -0.1059
17099TIP3    H172712   1.290   6.504  14.185  1.6977 -0.0242  1.3606
17099TIP3    H272713   1.170   6.549  14.265 -0.5436  1.1879 -2.5884
17100TIP3   OH272714   2.858   4.457   4.261  0.4827 -0.2728  0.2832
17100TIP3    H172715   2.909   4.536   4.241  0.7894 -0.3982  0.5808
17100TIP3    H272716   2.904   4.387   4.215  0.3652 -0.3228  0.2429
17101TIP3   OH272717   3.767   1.570   4.372 -0.2410  0.0681  0.8878
17101TIP3    H172718   3.846   1.626   4.367  0.6799 -1.2260  0.7238
17101TIP3    H272719   3.697   1.625   4.337  1.1070  0.3266 -1.5314
17102TIP3   OH272720   3.438   4.278  14.091  0.8111 -0.4538 -0.0287
17102TIP3    H172721   3.410   4.355  14.041  0.2773  0.2386  1.3040
17102TIP3    H272722   3.532   4.290  14.102  0.6625  0.2223  0.5279
17103TIP3   OH272723   4.289   1.128  17.051  0.4833  0.3185  0.5452
17103TIP3    H172724   4.201   1.131  17.014  0.0231  0.5559  1.6460
17103TIP3    H272725   4.340   1.186  16.994  0.3703 -1.2279 -1.1815
17104TIP3   OH272726   6.341   1.940   4.020  0.2581  0.6221  0.0069
17104TIP3    H172727   6.400   1.942   3.945  0.0593  0.6700 -0.1481
17104TIP3    H272728   6.317   1.848   4.028 -0.0609  0.6837 -0.2526
17105TIP3   OH272729   1.047   3.489   2.626  0.9468  0.2461  0.5138
17105TIP3    H172730   1.053   3.407   2.577 -0.1843 -0.3508  1.3308
17105TIP3    H272731   0.959   3.486   2.666  1.5372  1.0674  1.9038
17106TIP3   OH272732   1.394   0.853   2.954  0.1920 -0.8406  0.1253
17106TIP3    H172733   1.445   0.877   3.031  0.9282 -0.8628 -0.3570
17106TIP3    H272734   1.346   0.775   2.981  1.8869 -1.9644 -0.0418
17107TIP3   OH272735   1.170   5.015  14.564 -0.2903 -0.0391  0.6002
17107TIP3    H172736   1.253   5.005  14.612 -1.0341 -1.6718  1.5838
17107TIP3    H272737   1.189   4.981  14.477 -0.5978 -2.7962  1.5747
17108TIP3   OH272738   0.132   0.872   1.306  0.9093  0.2599  0.3638
17108TIP3    H172739   0.048   0.917   1.296  0.9468  0.6869  1.8950
17108TIP3    H272740   0.154   0.882   1.398  2.3159 -0.4509  0.1182
17109TIP3   OH272741   6.679   0.284   3.197 -0.4460 -0.0334  1.0902
17109TIP3    H172742   6.709   0.355   3.254  0.2947 -0.0202  0.6888
17109TIP3    H272743   6.600   0.318   3.156 -0.3179  0.4070  1.2094
17110TIP3   OH272744   4.886   3.854   0.056 -1.0259  0.0420 -0.4829
17110TIP3    H172745   4.974   3.849   0.092 -1.6518 -0.5883  1.0023
17110TIP3    H272746   4.889   3.928  -0.005  1.0082 -1.1113 -1.8529
17111TIP3   OH272747   4.811   3.192  12.648 -0.1767 -0.6468 -0.5963
17111TIP3    H172748   4.769   3.261  12.699 -2.3594 -2.8730  0.7527
17111TIP3    H272749   4.811   3.225  12.558 -2.3125  0.6201 -0.1670
17112TIP3   OH272750   1.301   2.692  16.969  0.2506  0.3014  0.4102
17112TIP3    H172751   1.277   2.715  17.059  1.3240  0.5796  0.6214
17112TIP3    H272752   1.220   2.705  16.919 -0.3019  0.3121  1.2986
17113TIP3   OH272753   0.150   2.648   3.793 -0.1469 -0.2154  0.9278
17113TIP3    H172754   0.167   2.612   3.706 -0.1465  1.5439  0.1838
17113TIP3    H272755   0.074   2.598   3.824 -0.5371 -0.4416 -0.3364
17114TIP3   OH272756   4.019   2.711   1.522 -0.1160  0.2588  0.4511
17114TIP3    H172757   4.097   2.668   1.487 -0.6053 -1.8663  1.8788
17114TIP3    H272758   4.052   2.771   1.589  0.2070 -2.1698  2.5571
17115TIP3   OH272759   3.582   6.242  14.063 -0.5061 -0.0587  0.4942
17115TIP3    H172760   3.575   6.148  14.081  0.1558 -0.3715 -0.8233
17115TIP3    H272761   3.493   6.275  14.076 -0.9787 -1.0645 -0.1027
17116TIP3   OH272762   4.733   0.535   1.647 -0.6114 -0.2413 -0.1138
17116TIP3    H172763   4.806   0.571   1.697  0.6919 -0.1503 -2.0322
17116TIP3    H272764   4.703   0.607   1.593 -1.5713 -0.5142  0.0589
17117TIP3   OH272765   0.295   1.644   5.399  0.0318  0.2105 -0.8288
17117TIP3    H172766   0.301   1.685   5.485  2.1092 -1.3443 -0.1851
17117TIP3    H272767   0.264   1.555   5.417  2.2103 -0.7119 -1.4592
17118TIP3   OH272768   4.030   3.835   3.923 -0.0751 -0.4855 -0.0734
17118TIP3    H172769   4.033   3.745   3.956  0.6076 -0.5013 -0.1722
17118TIP3    H272770   4.079   3.831   3.840  2.1262  0.4903  1.1445
17119TIP3   OH272771   6.288   3.319   2.733  0.1279 -0.1243  0.3209
17119TIP3    H172772   6.221   3.294   2.798  0.8388 -1.4964  0.5524
17119TIP3    H272773   6.314   3.236   2.693  1.4550  0.4351  0.0038
17120TIP3   OH272774   0.276   5.641   3.318 -0.4224  0.2453 -0.4634
17120TIP3    H172775   0.284   5.629   3.412 -0.6490  3.1339 -0.0273
17120TIP3    H272776   0.365   5.630   3.284 -0.4692 -1.5392 -0.0239
17121TIP3   OH272777   6.418   2.196   5.727 -0.0564 -0.0672 -0.3883
17121TIP3    H172778   6.499   2.173   5.682 -0.7927  0.3629 -1.9765
17121TIP3    H272779   6.439   2.274   5.777  0.8694 -0.7426  0.2944
17122TIP3   OH272780   1.456   6.747   3.470  0.1441  0.0554  0.4050
17122TIP3    H172781   1.450   6.839   3.494 -0.9725  0.3097 -0.8383
17122TIP3    H272782   1.528   6.743   3.407  0.1207  0.0934  0.3761
17123TIP3   OH272783   5.336   0.776   4.478 -0.2084  0.5635 -0.6651
17123TIP3    H172784   5.263   0.715   4.496 -0.9913  2.1611  1.7096
17123TIP3    H272785   5.293   0.859   4.459  0.9366  0.8173 -2.2662
17124TIP3   OH272786   2.378   5.843   2.205  0.4254 -0.5573  0.1792
17124TIP3    H172787   2.394   5.870   2.295  1.9574  1.8512 -0.7642
17124TIP3    H272788   2.452   5.878   2.156 -1.0480 -0.6908 -2.2304
17125TIP3   OH272789   0.512   2.094   5.313  0.0349 -0.1553 -0.3914
17125TIP3    H172790   0.424   2.056   5.316 -0.1158  0.1693 -0.7065
17125TIP3    H272791   0.542   2.092   5.404 -0.7184  0.7188 -0.1128
17126TIP3   OH272792   2.291   6.185   4.464 -0.4012 -0.5400  0.2071
17126TIP3    H172793   2.198   6.194   4.446 -0.2108 -2.0718 -1.6738
17126TIP3    H272794   2.302   6.094   4.491  0.6371 -0.5306 -0.1704
17127TIP3   OH272795   3.586   1.585  11.498  0.1335  0.1203 -0.2681
17127TIP3    H172796   3.651   1.569  11.567 -0.7722 -3.1544 -0.0585
17127TIP3    H272797   3.502   1.569  11.542 -0.4845 -1.1924 -1.8884
17128TIP3   OH272798   6.781   5.947  11.381 -0.2686  0.0773 -0.1814
17128TIP3    H172799   6.781   6.042  11.389 -2.5560  0.1530 -0.7487
17128TIP3    H272800   6.704   5.927  11.328  1.4272 -1.9532 -2.0216
17129TIP3   OH272801   5.065   2.183  12.342 -0.5177  0.2171 -0.3776
17129TIP3    H172802   5.104   2.266  12.318 -0.4925  1.0109  2.2635
17129TIP3    H272803   5.134   2.137  12.391 -1.5292 -0.0618  0.8085
17130TIP3   OH272804   1.501   4.160   5.595  0.2383  0.1414 -0.3951
17130TIP3    H172805   1.484   4.214   5.671 -0.1337  1.8026 -1.6370
17130TIP3    H272806   1.594   4.173   5.577  0.6853 -1.4454  0.6641
17131TIP3   OH272807   5.122   5.516  14.537  0.3601 -0.4034  0.3198
17131TIP3    H172808   5.061   5.494  14.608  0.2095 -2.2857 -0.3422
17131TIP3    H272809   5.207   5.526  14.580 -0.1269  0.5984  1.0429
17132TIP3   OH272810   0.304   6.750  12.027  0.3662 -0.0738 -0.0505
17132TIP3    H172811   0.341   6.836  12.047  0.2122  0.0726 -0.3935
17132TIP3    H272812   0.266   6.760  11.940  4.0149 -1.6161 -1.9611
17133TIP3   OH272813   5.779   6.517  10.737  0.1099  0.4492  0.0765
17133TIP3    H172814   5.792   6.444  10.676 -0.5064 -0.7266  1.3158
17133TIP3    H272815   5.867   6.547  10.758  0.3201  0.9868 -1.5214
17134TIP3   OH272816   5.056   5.730  15.546 -0.5933  0.4690  0.5465
17134TIP3    H172817   5.036   5.733  15.452 -1.1351  1.1179  0.6696
17134TIP3    H272818   5.149   5.754  15.552 -0.5664  0.4554  0.1756
17135TIP3   OH272819   0.359   0.409   0.903 -0.3385 -0.3613  0.8805
17135TIP3    H172820   0.356   0.452   0.817  2.6659  0.8614  1.3212
17135TIP3    H272821   0.273   0.428   0.942 -1.0428  0.6892 -1.0788
17136TIP3   OH272822   5.433   2.381   3.278 -0.3525 -0.4421  0.0697
17136TIP3    H172823   5.452   2.438   3.353  0.9623 -2.0004  0.9571
17136TIP3    H272824   5.374   2.432   3.223 -0.8774  0.9434  1.8913
17137TIP3   OH272825   3.908   3.903   2.591  0.1208  0.1227  0.0158
17137TIP3    H172826   3.874   3.837   2.653  2.1205 -0.4094  0.5882
17137TIP3    H272827   3.977   3.857   2.543 -1.2637  0.5946 -2.5251
17138TIP3   OH272828   1.887   4.315  15.158 -0.6528  0.7942 -0.8188
17138TIP3    H172829   1.968   4.318  15.106  0.6914  1.3582  1.2361
17138TIP3    H272830   1.850   4.403  15.149 -0.7389  0.7008 -1.3417
17139TIP3   OH272831   2.653   3.670  15.570  0.9241 -0.3835 -0.2157
17139TIP3    H172832   2.718   3.602  15.553  3.0848  1.7493 -0.6537
17139TIP3    H272833   2.660   3.730  15.495 -1.7035 -0.2164 -0.3885
17140TIP3   OH272834   0.872   4.658  12.955 -0.0370  0.0929  0.5679
17140TIP3    H172835   0.795   4.681  13.006 -0.0205 -1.2476  1.2297
17140TIP3    H272836   0.929   4.612  13.018  0.2277 -1.0716 -0.5084
17141TIP3   OH272837   6.422   3.822   2.856  0.1034 -0.6733  0.2165
17141TIP3    H172838   6.373   3.817   2.938 -0.7327  1.1460 -0.1567
17141TIP3    H272839   6.369   3.770   2.795 -1.1722  0.9161 -0.0716
17142TIP3   OH272840   5.036   0.478  16.600  0.0376  0.2065 -0.3604
17142TIP3    H172841   4.973   0.444  16.537  0.5419 -0.5188 -0.4862
17142TIP3    H272842   5.009   0.568  16.616 -0.4825  0.1856 -1.1081
17143TIP3   OH272843   3.466   0.028  11.427 -0.5167  0.3558  0.3168
17143TIP3    H172844   3.545  -0.026  11.426 -1.9758 -1.8487  1.1222
17143TIP3    H272845   3.444   0.041  11.335  1.3088  1.8291  0.0518
17144TIP3   OH272846   1.180   6.607   5.038 -0.5359  0.3769 -0.1820
17144TIP3    H172847   1.171   6.521   5.080  0.5280  0.2660 -0.1551
17144TIP3    H272848   1.215   6.587   4.951 -0.1552  0.7948 -0.1226
17145TIP3   OH272849   5.831   6.457   4.837 -0.3447  0.1366 -0.4303
17145TIP3    H172850   5.900   6.391   4.839  1.1524  1.6393 -0.8317
17145TIP3    H272851   5.817   6.481   4.929 -1.3585 -1.1849 -0.2288
17146TIP3   OH272852   2.237   3.640   5.810 -0.0388 -0.5425 -0.1621
17146TIP3    H172853   2.308   3.592   5.768 -0.6927 -1.6164 -0.0848
17146TIP3    H272854   2.200   3.577   5.872 -1.7103 -0.3495 -0.9346
17147TIP3   OH272855   6.571   4.676   5.547 -0.5501 -0.0894 -0.5876
17147TIP3    H172856   6.617   4.602   5.586 -1.5972 -1.3733 -1.7430
17147TIP3    H272857   6.501   4.696   5.610  0.3820  0.6288  0.2415
17148TIP3   OH272858   4.224   4.674   6.877  0.0525  0.0977 -0.3701
17148TIP3    H172859   4.226   4.642   6.967 -0.7185  0.6174 -0.1588
17148TIP3    H272860   4.297   4.736   6.872  0.8680 -0.8576 -0.4706
17149TIP3   OH272861   4.463   1.062  13.215 -0.4583  0.1971 -0.2168
17149TIP3    H172862   4.555   1.076  13.238 -0.2746 -0.2454 -0.6673
17149TIP3    H272863   4.463   0.976  13.173 -1.3420 -0.5774  1.3270
17150TIP3   OH272864   0.101   1.584  13.782 -0.3048  0.0338 -0.5670
17150TIP3    H172865   0.171   1.520  13.795 -0.3622 -0.1863 -1.3692
17150TIP3    H272866   0.080   1.614  13.871  0.2261 -0.5158 -0.2528
17151TIP3   OH272867   5.025   2.481  16.699 -0.0657 -0.0031  0.4215
17151TIP3    H172868   5.063   2.435  16.624  0.5869  0.7304  0.3067
17151TIP3    H272869   5.026   2.573  16.674 -2.9475 -0.0421 -0.0527
17152TIP3   OH272870   1.738   0.036  16.469  0.3172 -0.0190 -0.0084
17152TIP3    H172871   1.705  -0.004  16.550  1.4200 -0.3503  0.2816
17152TIP3    H272872   1.764  -0.038  16.414 -1.3976  0.1639 -1.1030
17153TIP3   OH272873   5.496   0.994  16.981 -0.5414  0.0800 -0.1969
17153TIP3    H172874   5.485   0.976  17.074  0.7497  1.0944  0.1626
17153TIP3    H272875   5.557   0.927  16.950 -0.6531 -0.0070 -0.2280
17154TIP3   OH272876   1.312   2.665   1.032 -0.1106  0.4687  0.2105
17154TIP3    H172877   1.259   2.624   0.963 -1.4124  2.4070  0.0005
17154TIP3    H272878   1.254   2.667   1.108  0.3823  0.7528  0.5767
17155TIP3   OH272879   4.905   6.171  12.024  0.4293 -0.2228  0.4577
17155TIP3    H172880   4.903   6.154  11.930  1.1313  0.1240  0.3814
17155TIP3    H272881   4.825   6.128  12.057 -0.4358  0.6494 -0.4531
17156TIP3   OH272882   0.850   6.778   3.823  0.7149 -0.4163 -0.8609
17156TIP3    H172883   0.805   6.728   3.890  2.6257 -1.9964 -0.7164
17156TIP3    H272884   0.782   6.833   3.785 -1.4136 -2.9614 -0.8940
17157TIP3   OH272885   2.942   3.958  11.846  0.3765  0.2721  0.0858
17157TIP3    H172886   3.009   4.010  11.802 -1.2582  0.5945 -2.1606
17157TIP3    H272887   2.927   3.884  11.787 -1.4707  0.4164  0.3287
17158TIP3   OH272888   0.406   3.915  11.152 -0.9158  0.0159  0.6642
17158TIP3    H172889   0.360   3.878  11.228 -0.3774  1.2818  1.6173
17158TIP3    H272890   0.498   3.897  11.169 -0.7186  1.0851  0.7539
17159TIP3   OH272891   1.046   4.128  11.170  0.5452  0.2062 -0.6129
17159TIP3    H172892   1.000   4.201  11.129 -0.9381  1.0622  2.3862
17159TIP3    H272893   1.039   4.146  11.264  1.0758 -3.2618  0.1372
17160TIP3   OH272894   6.765   4.916  13.489 -0.3106  0.1475 -0.6475
17160TIP3    H172895   6.695   4.929  13.425 -1.7357  0.9464  1.0124
17160TIP3    H272896   6.732   4.957  13.569  2.3510  1.1655  0.0013
17161TIP3   OH272897   2.076   3.367  10.577  0.2376  0.0010  0.2449
17161TIP3    H172898   2.138   3.309  10.533  1.3768  1.1517  0.2668
17161TIP3    H272899   2.046   3.426  10.507  0.7833  0.7702  0.6459
17162TIP3   OH272900   6.262   4.542   1.049  0.0334 -0.1070  0.0339
17162TIP3    H172901   6.215   4.529   1.131  0.4366 -2.8958 -0.1047
17162TIP3    H272902   6.343   4.587   1.074 -0.5316  0.3923  0.9630
17163TIP3   OH272903   5.246   3.857   3.553 -0.6910  0.3981 -0.0754
17163TIP3    H172904   5.223   3.766   3.573  0.5602  0.3892  1.4782
17163TIP3    H272905   5.166   3.895   3.517 -1.4604 -1.0960  0.0085
17164TIP3   OH272906   6.419   1.733   0.632  0.0676 -0.2791  0.3856
17164TIP3    H172907   6.467   1.780   0.700  2.0609 -1.7181 -0.0014
17164TIP3    H272908   6.355   1.681   0.681 -0.3762  0.7999  0.9717
17165TIP3   OH272909   3.011   2.867   1.544  0.1980 -0.0132  0.1581
17165TIP3    H172910   2.985   2.913   1.624  1.1147  0.3042  0.2756
17165TIP3    H272911   2.999   2.774   1.566 -3.0611  0.1804 -0.5752
17166TIP3   OH272912   2.921   1.385  13.223 -0.3159  0.1322  0.4185
17166TIP3    H172913   2.983   1.434  13.276 -0.7742  1.8482 -0.6019
17166TIP3    H272914   2.901   1.308  13.276 -0.5116  1.6268  2.6127
17167TIP3   OH272915   0.333   5.440  15.359  0.0854 -0.2966 -0.3127
17167TIP3    H172916   0.381   5.517  15.388 -0.1712 -1.4481  3.4463
17167TIP3    H272917   0.397   5.369  15.360 -0.6474 -0.9648  0.4539
17168TIP3   OH272918   4.765   6.174   2.446 -0.1520 -0.5920 -0.2346
17168TIP3    H172919   4.787   6.083   2.425  1.3920 -1.0495  3.0839
17168TIP3    H272920   4.785   6.222   2.366  3.0659 -2.5850 -0.7179
17169TIP3   OH272921   6.363   2.384  14.329  0.1615 -0.1910  0.3263
17169TIP3    H172922   6.359   2.297  14.289 -2.2200 -0.4293  1.0107
17169TIP3    H272923   6.457   2.405  14.330  0.7333 -2.4956 -0.3597
17170TIP3   OH272924   5.568   2.957  11.756  0.4990  0.8009  0.1659
17170TIP3    H172925   5.523   2.875  11.737 -0.0589  1.6937 -2.5622
17170TIP3    H272926   5.506   3.005  11.811  0.5152 -0.2886  1.1581
17171TIP3   OH272927   3.188   2.932  14.053 -0.5191 -0.5003 -0.4664
17171TIP3    H172928   3.260   2.934  13.991 -0.6187  0.3185 -0.5556
17171TIP3    H272929   3.223   2.972  14.133 -0.7976 -0.3285 -0.4276
17172TIP3   OH272930   4.911   2.377   6.118  0.0387  0.2552  0.1815
17172TIP3    H172931   4.933   2.463   6.083  0.0332  0.5306  0.8366
17172TIP3    H272932   4.815   2.375   6.117  0.0292  0.4268  0.5592
17173TIP3   OH272933   3.451   6.462  13.767  0.2790 -0.6530 -0.1729
17173TIP3    H172934   3.372   6.487  13.815  1.1736  0.4857  0.7700
17173TIP3    H272935   3.488   6.389  13.817 -0.0732 -1.0391 -0.4865
17174TIP3   OH272936   1.420   5.729  15.847 -0.0252 -0.0292  1.2068
17174TIP3    H172937   1.400   5.763  15.934  1.0857  0.9927  1.0765
17174TIP3    H272938   1.511   5.699  15.852 -0.3358 -1.0907  0.7353
17175TIP3   OH272939   5.854   4.595  16.778  0.7088 -0.1022  0.5214
17175TIP3    H172940   5.887   4.680  16.807 -0.6081 -0.0987  2.1042
17175TIP3    H272941   5.882   4.587  16.687  0.7563  2.0756  0.3379
17176TIP3   OH272942   0.191   0.996   0.309  0.0262 -0.8909  0.1238
17176TIP3    H172943   0.280   1.025   0.291  0.3828 -1.6233  0.7100
17176TIP3    H272944   0.155   1.063   0.369  0.2084 -0.6480 -0.0391
17177TIP3   OH272945   1.169   2.075  15.150 -0.2725 -0.1801  0.1658
17177TIP3    H172946   1.240   2.138  15.133 -0.8245  0.9779  2.0266
17177TIP3    H272947   1.091   2.129  15.161 -1.6348 -1.5028 -2.6042
17178TIP3   OH272948   4.051   2.375   4.667 -0.4189  0.1156 -0.1554
17178TIP3    H172949   4.137   2.392   4.629 -0.4388 -0.4122 -0.4452
17178TIP3    H272950   4.066   2.378   4.762 -0.5815  2.4361 -0.1878
17179TIP3   OH272951   4.964   5.558  16.009 -0.4571 -0.8931 -0.1783
17179TIP3    H172952   4.949   5.600  15.924 -1.4488  0.0668  0.4617
17179TIP3    H272953   4.882   5.571  16.057  0.1181 -1.3879  0.9513
17180TIP3   OH272954   0.536   6.580   4.305  0.1557 -0.5244  0.4841
17180TIP3    H172955   0.568   6.534   4.383  0.0312 -0.6639  0.4507
17180TIP3    H272956   0.500   6.662   4.339  1.0898 -0.0999  0.4618
17181TIP3   OH272957   3.045   1.968   2.436 -0.5317  0.4483  0.3174
17181TIP3    H172958   2.955   1.947   2.412 -0.7874  1.1724  0.6302
17181TIP3    H272959   3.093   1.969   2.353 -0.5607 -1.1174  0.2752
17182TIP3   OH272960   4.538   2.665  10.393  0.2158 -0.4810  0.5118
17182TIP3    H172961   4.559   2.757  10.408 -1.1718 -0.5668  3.1951
17182TIP3    H272962   4.460   2.667  10.338  1.1940 -0.0944 -0.8887
17183TIP3   OH272963   0.520   3.275  12.767 -0.8397  0.7965  0.5345
17183TIP3    H172964   0.534   3.190  12.809 -2.3388  0.5413  0.5458
17183TIP3    H272965   0.505   3.254  12.675 -1.5942  1.0185  0.6075
17184TIP3   OH272966   0.425   5.090  11.147 -0.2933  0.0938 -0.5371
17184TIP3    H172967   0.482   5.032  11.198 -0.0100  0.8903  0.0581
17184TIP3    H272968   0.409   5.042  11.066  1.0782 -0.2276 -0.6390
17185TIP3   OH272969   5.396   0.502  13.087 -0.9021 -0.2844 -0.1211
17185TIP3    H172970   5.354   0.518  13.002 -0.2570  0.0656 -0.3836
17185TIP3    H272971   5.487   0.482  13.064  0.1372  3.2317  0.6788
17186TIP3   OH272972   0.272   1.391   3.386  0.1874 -0.2183 -0.4003
17186TIP3    H172973   0.319   1.470   3.414  0.9670 -0.0332 -2.2199
17186TIP3    H272974   0.212   1.422   3.318  0.3844 -1.1822 -1.0078
17187TIP3   OH272975   4.351   4.112   5.542 -0.6851  0.6646 -0.0520
17187TIP3    H172976   4.283   4.149   5.485  0.1874  0.8183 -0.9983
17187TIP3    H272977   4.334   4.018   5.540 -1.0061  0.7233 -0.1159
17188TIP3   OH272978   3.954   4.861  12.244 -0.0931 -0.0660  0.8581
17188TIP3    H172979   3.881   4.831  12.190 -0.4581 -0.5703  1.6151
17188TIP3    H272980   4.032   4.845  12.191 -0.4773 -0.2165  0.3382
17189TIP3   OH272981   6.318   0.284  10.980  0.3390  0.2753 -0.4721
17189TIP3    H172982   6.311   0.273  10.885 -0.7234 -1.8957 -0.1732
17189TIP3    H272983   6.344   0.376  10.992  0.7126  0.5074 -2.8539
17190TIP3   OH272984   3.169   3.807   1.920 -0.8674  0.1931 -0.3844
17190TIP3    H172985   3.203   3.767   1.839 -1.8327  0.7475 -1.0682
17190TIP3    H272986   3.146   3.896   1.895  0.5666  0.9566  0.9606
17191TIP3   OH272987   5.326   3.808  12.225  0.2351 -0.5186 -0.1905
17191TIP3    H172988   5.302   3.742  12.160  2.1232 -2.7909  1.3551
17191TIP3    H272989   5.266   3.792  12.298  1.4357 -1.3076  0.6456
17192TIP3   OH272990   6.148   3.955  15.061 -0.2112  0.5498 -0.1427
17192TIP3    H172991   6.241   3.980  15.060  0.1626 -0.7385  0.4921
17192TIP3    H272992   6.112   4.001  15.137 -0.0177  0.8125 -0.2098
17193TIP3   OH272993   2.576   4.743   4.111 -0.4812 -0.6502  0.2615
17193TIP3    H172994   2.668   4.752   4.133 -0.0395 -1.2588 -1.3474
17193TIP3    H272995   2.548   4.830   4.083 -0.5529 -0.3331  1.2939
17194TIP3   OH272996   0.288   2.779  14.877 -0.2221 -0.0760 -0.1437
17194TIP3    H172997   0.293   2.862  14.923  1.1788  0.3619 -1.0531
17194TIP3    H272998   0.323   2.798  14.790  0.1256 -1.6244 -0.3544
17195TIP3   OH272999   5.848   1.479   4.183 -0.0396  0.0969 -0.0020
17195TIP3    H173000   5.843   1.574   4.176 -1.1368  0.1004  0.7283
17195TIP3    H273001   5.819   1.460   4.272  0.3781 -0.9053 -0.0756
17196TIP3   OH273002   5.340   2.455  15.053  0.3051 -0.2884 -0.2065
17196TIP3    H173003   5.354   2.443  14.958  1.8161  0.8068 -0.1434
17196TIP3    H273004   5.298   2.540  15.061  1.3801  0.2244  0.1711
17197TIP3   OH273005   0.209   5.220  15.747 -0.1536 -0.3373 -0.4443
17197TIP3    H173006   0.277   5.212  15.680 -0.2165 -1.4578 -0.3767
17197TIP3    H273007   0.158   5.296  15.721  0.7162  0.1041 -0.8672
17198TIP3   OH273008   0.769   6.506   1.063  0.0865 -0.1378  0.3667
17198TIP3    H173009   0.713   6.520   1.139  2.1642  1.9645  1.5822
17198TIP3    H273010   0.736   6.568   0.998  1.6381  1.9178  1.4773
17199TIP3   OH273011   5.709   2.740   2.019  0.0787 -0.0226  0.0242
17199TIP3    H173012   5.644   2.810   2.027 -0.4166 -0.5405  0.4975
17199TIP3    H273013   5.660   2.664   1.987  0.4910 -0.3580  0.1806
17200TIP3   OH273014   3.291   5.365   6.195 -0.4788 -0.2981  0.1610
17200TIP3    H173015   3.360   5.304   6.223  1.9282  2.0800 -0.3824
17200TIP3    H273016   3.228   5.310   6.150  0.4271 -2.7479  1.7682
17201TIP3   OH273017   1.137   4.915  11.906 -0.2113  0.3224 -0.0737
17201TIP3    H173018   1.087   4.849  11.953 -1.5711  0.6494 -1.0554
17201TIP3    H273019   1.107   4.998  11.942  0.6231  0.4678  0.3028
17202TIP3   OH273020   3.567   2.109   0.182 -0.3055  0.3424 -0.3826
17202TIP3    H173021   3.497   2.142   0.126 -1.2629 -0.6206  0.2300
17202TIP3    H273022   3.582   2.019   0.151  0.4174  0.4298 -0.2820
17203TIP3   OH273023   4.514   1.536  13.969 -0.4418 -0.3743  0.3825
17203TIP3    H173024   4.428   1.554  14.007  0.0071 -0.5955  1.5089
17203TIP3    H273025   4.560   1.620  13.972 -0.5486 -0.2991 -0.0481
17204TIP3   OH273026   5.239   2.897  13.253  0.4537  0.0012  0.2676
17204TIP3    H173027   5.301   2.968  13.270  0.3025 -0.2554  1.9989
17204TIP3    H273028   5.183   2.930  13.183  1.4883  0.8964 -0.1444
17205TIP3   OH273029   5.571   3.206  11.027  0.0134 -0.2965  0.0863
17205TIP3    H173030   5.645   3.232  11.082 -1.0435  1.7825  0.5785
17205TIP3    H273031   5.511   3.163  11.087 -0.1219 -0.0747  0.1095
17206TIP3   OH273032   3.850   0.813  16.051 -0.6101 -0.3554 -0.0039
17206TIP3    H173033   3.758   0.786  16.046 -0.8903  0.8201 -1.5189
17206TIP3    H273034   3.874   0.834  15.960  1.2428 -0.9060  0.3293
17207TIP3   OH273035   4.709   0.992   4.320  0.5394 -0.0789  0.1843
17207TIP3    H173036   4.652   1.038   4.381  1.8851 -0.6185  1.8782
17207TIP3    H273037   4.674   0.903   4.317  1.3476 -0.4497  1.3371
17208TIP3   OH273038   0.753   0.514  15.154  0.1694  0.0002  0.2778
17208TIP3    H173039   0.731   0.602  15.125  1.2980  0.1346 -0.2219
17208TIP3    H273040   0.842   0.499  15.120 -0.6103 -1.9371 -1.0401
17209TIP3   OH273041   5.786   2.824   1.050  0.5356 -0.4382 -0.2045
17209TIP3    H173042   5.790   2.886   0.978  0.6324 -0.0908  0.0954
17209TIP3    H273043   5.725   2.757   1.021  0.6961 -0.3857 -0.6723
17210TIP3   OH273044   0.734   2.048   2.067 -0.3449  0.0830 -0.4388
17210TIP3    H173045   0.722   2.143   2.067 -0.0164  0.1368 -2.7508
17210TIP3    H273046   0.736   2.024   1.975 -1.3523 -2.3018  0.1323
17211TIP3   OH273047   2.486   5.462  14.250 -0.5312 -0.1482  0.3058
17211TIP3    H173048   2.413   5.436  14.193  0.5667  0.0391 -1.2012
17211TIP3    H273049   2.528   5.380  14.274 -0.3345 -0.1508 -0.0457
17212TIP3   OH273050   6.070   0.062  12.869  0.3888  0.4851 -0.4137
17212TIP3    H173051   6.149   0.088  12.822  1.2649  2.9518  2.2996
17212TIP3    H273052   6.079  -0.033  12.880  1.7556  0.3758 -2.2885
17213TIP3   OH273053   5.820   0.968   3.851 -0.4422 -0.1830  0.5357
17213TIP3    H173054   5.776   1.041   3.894  0.0585 -1.0447  2.5550
17213TIP3    H273055   5.834   0.998   3.761  0.2834  2.4349  1.4780
17214TIP3   OH273056   0.056   5.734   0.650  0.5166  0.3062 -0.0905
17214TIP3    H173057   0.081   5.740   0.743  0.2848 -3.3014  0.2806
17214TIP3    H273058   0.023   5.821   0.629 -1.3865  0.6530  3.8014
17215TIP3   OH273059   1.423   2.615   5.100 -0.3928  0.4947  0.0318
17215TIP3    H173060   1.359   2.592   5.033  0.4854 -0.4035 -0.5081
17215TIP3    H273061   1.375   2.608   5.182 -0.4657 -2.2750 -0.1889
17216TIP3   OH273062   6.065   5.706   1.740  0.8406 -0.4101  0.1125
17216TIP3    H173063   6.054   5.674   1.650 -2.7793  0.0822  0.3026
17216TIP3    H273064   6.157   5.690   1.760  1.6193 -0.9332 -3.5314
17217TIP3   OH273065   3.991   0.396   0.382 -0.3468 -0.2552  0.0746
17217TIP3    H173066   3.951   0.373   0.298  1.0024  2.9813 -1.5149
17217TIP3    H273067   4.069   0.340   0.387  0.1227  0.2452 -1.3408
17218TIP3   OH273068   5.608   2.793   5.193  0.1745 -0.4125 -0.4588
17218TIP3    H173069   5.645   2.713   5.231 -0.5327  0.0419  1.2176
17218TIP3    H273070   5.600   2.773   5.099 -1.1004 -2.7644  0.0881
17219TIP3   OH273071   1.642   3.569  11.031  0.6567 -0.0143  0.1326
17219TIP3    H173072   1.549   3.546  11.022  0.9679 -0.6953 -1.7344
17219TIP3    H273073   1.684   3.487  11.057  0.6326  0.5022  1.8514
17220TIP3   OH273074   4.435   5.698  12.869  0.0616 -0.1251  0.0361
17220TIP3    H173075   4.371   5.740  12.927  0.6494  0.4841  0.2473
17220TIP3    H273076   4.421   5.604  12.883  0.7166  0.0185  1.7548
17221TIP3   OH273077   2.922   1.560  16.446 -0.2028 -0.2437  0.1595
17221TIP3    H173078   3.005   1.556  16.494 -1.6631 -0.7916  2.7283
17221TIP3    H273079   2.892   1.650  16.457  0.6445  0.3005 -1.8489
17222TIP3   OH273080   5.957   5.236   4.229  0.9576 -0.5144 -0.0222
17222TIP3    H173081   5.899   5.310   4.247  1.3773 -0.2789  0.3431
17222TIP3    H273082   6.023   5.270   4.169  1.0882 -0.6244  0.0590
17223TIP3   OH273083   3.296   4.807  15.085  0.2145  0.4673  0.3308
17223TIP3    H173084   3.253   4.825  15.001 -1.0644 -0.2900  0.8056
17223TIP3    H273085   3.226   4.813  15.150  1.1725  0.9221  1.3353
17224TIP3   OH273086   6.012   2.349   1.829  0.2264  1.0831 -0.9236
17224TIP3    H173087   5.936   2.407   1.829  0.8207  1.8725 -0.4205
17224TIP3    H273088   5.976   2.262   1.847 -0.4412  1.6035  0.2881
17225TIP3   OH273089   4.371   1.706   3.829 -0.4561 -0.1249  0.7895
17225TIP3    H173090   4.291   1.654   3.827  0.0761 -1.0172  1.8786
17225TIP3    H273091   4.441   1.643   3.812  0.0200  0.6535 -0.2045
17226TIP3   OH273092   1.051   2.040  15.689 -0.5547  0.0578 -0.0092
17226TIP3    H173093   1.032   2.134  15.694 -1.4516 -0.1167 -0.1101
17226TIP3    H273094   1.147   2.036  15.681 -0.3080  0.8867  2.0753
17227TIP3   OH273095   6.313   0.116  12.024 -0.0627  0.6434  0.0251
17227TIP3    H173096   6.343   0.049  12.086  0.9651  0.9467 -0.1287
17227TIP3    H273097   6.377   0.112  11.952 -1.8580 -0.4689 -1.5495
17228TIP3   OH273098   1.417   5.462   6.364 -0.3324  0.4103 -0.0867
17228TIP3    H173099   1.442   5.554   6.357  0.0172  0.3109 -0.1783
17228TIP3    H273100   1.485   5.415   6.315 -0.9489  0.1655 -0.7219
17229TIP3   OH273101   1.311   2.673  11.951  0.1394  0.1128 -0.2269
17229TIP3    H173102   1.232   2.717  11.919 -1.2142 -1.5156  0.7932
17229TIP3    H273103   1.347   2.733  12.016 -0.8683  0.3757  0.0964
17230TIP3   OH273104   3.571   1.968   3.520 -0.3682  0.2265  0.7990
17230TIP3    H173105   3.519   1.913   3.578 -0.0391 -0.5839  0.3340
17230TIP3    H273106   3.507   2.024   3.476 -0.8113 -0.4965  0.5160
17231TIP3   OH273107   2.719   0.629   1.146 -0.2432  0.7375 -0.1770
17231TIP3    H173108   2.673   0.669   1.220  1.0700  1.9596  0.0039
17231TIP3    H273109   2.681   0.670   1.069 -0.4107  0.7355 -0.0958
17232TIP3   OH273110   4.640   3.940   4.540 -0.3534 -0.3584  0.1933
17232TIP3    H173111   4.700   3.868   4.561  0.4264 -0.1571 -1.2639
17232TIP3    H273112   4.607   3.919   4.453 -1.3219  0.2628  0.4051
17233TIP3   OH273113   4.640   6.547   2.518  0.6590 -0.5771 -0.4151
17233TIP3    H173114   4.629   6.640   2.497 -1.9488 -0.7394 -0.0010
17233TIP3    H273115   4.644   6.503   2.433 -0.9128 -0.3449 -0.6191
17234TIP3   OH273116   4.980   3.151   4.035 -0.5113  0.2415  0.4632
17234TIP3    H173117   4.950   3.240   4.018  0.7798  0.5720 -0.2207
17234TIP3    H273118   4.928   3.096   3.977  0.2577  0.8141 -0.7862
17235TIP3   OH273119   4.488   0.795   0.299 -0.3859 -0.8946  0.1110
17235TIP3    H173120   4.440   0.728   0.346 -0.9539 -0.6656 -0.1461
17235TIP3    H273121   4.543   0.837   0.366 -0.7551 -0.9642  0.4532
17236TIP3   OH273122   5.953   0.707  13.204 -0.5937  0.0889  0.2602
17236TIP3    H173123   6.047   0.720  13.213 -0.7498  0.5736  1.3029
17236TIP3    H273124   5.938   0.702  13.110  0.3963  0.5907  0.0709
17237TIP3   OH273125   3.483   3.755  11.572 -0.0551  0.1654 -0.2040
17237TIP3    H173126   3.438   3.839  11.561  0.4391  0.5085  0.3972
17237TIP3    H273127   3.569   3.768  11.534 -0.4887 -0.5285 -1.4526
17238TIP3   OH273128   2.191   1.110  11.690 -0.2558  0.2353 -0.0707
17238TIP3    H173129   2.106   1.078  11.720 -0.5423 -0.4160 -1.5302
17238TIP3    H273130   2.172   1.160  11.611  0.7732 -0.4834 -0.7940
17239TIP3   OH273131   2.019   5.440   5.516  0.2238  0.1321  0.2434
17239TIP3    H173132   2.088   5.506   5.505  0.5799 -0.2922 -0.0796
17239TIP3    H273133   1.966   5.448   5.437  1.3704 -1.2552 -0.6909
17240TIP3   OH273134   3.766   4.997  12.440  0.3292 -0.5114 -0.3951
17240TIP3    H173135   3.845   5.000  12.494 -0.2695 -2.1301  0.6305
17240TIP3    H273136   3.798   4.981  12.351  1.2339  0.3569 -0.2225
17241TIP3   OH273137   5.965   1.538  12.602 -0.2205  0.1146 -0.3064
17241TIP3    H173138   5.995   1.490  12.524  1.3975 -0.4599  0.6352
17241TIP3    H273139   5.997   1.627  12.589 -2.8458  0.9080 -1.8464
17242TIP3   OH273140   3.783   4.280   3.369 -0.0232 -0.0682 -0.5333
17242TIP3    H173141   3.836   4.201   3.361  0.7964  0.4615 -0.4346
17242TIP3    H273142   3.706   4.263   3.314 -0.1946 -1.2017  0.0437
17243TIP3   OH273143   1.904   5.422   2.143  0.0802  0.6146 -0.0900
17243TIP3    H173144   1.976   5.482   2.128 -0.0867  0.6793 -0.6267
17243TIP3    H273145   1.838   5.446   2.078  1.0846 -1.8786 -2.0879
17244TIP3   OH273146   6.450   1.323   1.899  0.4128  0.4137  0.2394
17244TIP3    H173147   6.473   1.351   1.988 -1.7190 -0.5929  1.1533
17244TIP3    H273148   6.432   1.229   1.908  0.2251  0.2918 -1.2841
17245TIP3   OH273149   0.369   0.167  15.058 -0.3400  0.2116 -0.2849
17245TIP3    H173150   0.402   0.139  15.143 -0.8833 -1.1008 -0.4976
17245TIP3    H273151   0.433   0.133  14.995 -2.1128 -2.4742 -0.7118
17246TIP3   OH273152   0.956   4.134  14.593  0.0019 -0.5157  0.8770
17246TIP3    H173153   0.997   4.219  14.609  0.1968 -0.7162  1.4507
17246TIP3    H273154   0.898   4.150  14.518 -0.6804  0.3637  1.5696
17247TIP3   OH273155   4.150   5.658   5.079  0.2485  0.3371 -0.1945
17247TIP3    H173156   4.091   5.669   5.004  0.6059  0.6186 -0.4369
17247TIP3    H273157   4.095   5.677   5.155 -0.2710 -0.5441 -0.3400
17248TIP3   OH273158   6.777   3.095  17.117  0.3716  0.2310  0.6951
17248TIP3    H173159   6.768   3.162  17.049  0.7162 -0.3371  0.0840
17248TIP3    H273160   6.690   3.090  17.157 -0.0802 -0.1004 -0.3299
17249TIP3   OH273161   2.232   0.393  13.286 -0.1455 -0.2883  0.3082
17249TIP3    H173162   2.145   0.355  13.275 -0.4341  0.5131 -0.2263
17249TIP3    H273163   2.258   0.420  13.197  0.2922  0.2286  0.5902
17250TIP3   OH273164   2.472   5.178   3.154 -0.6076 -0.0904  0.4994
17250TIP3    H173165   2.563   5.193   3.178 -0.3221 -0.7457 -0.1620
17250TIP3    H273166   2.446   5.256   3.104 -0.4371  0.1247  0.7459
17251TIP3   OH273167   2.815   5.989  14.138 -0.0210  0.0820  0.2030
17251TIP3    H173168   2.877   5.916  14.141  2.1626  1.8671  0.6110
17251TIP3    H273169   2.831   6.038  14.219 -1.8423  0.7045  0.2123
17252TIP3   OH273170   6.201   2.869  15.309 -0.1753  0.5828 -0.4032
17252TIP3    H173171   6.265   2.919  15.359  0.2600  1.0155 -1.3741
17252TIP3    H273172   6.220   2.777  15.330  2.3140  0.5611 -2.4435
17253TIP3   OH273173   4.511   2.994   2.873  0.3566 -0.1051  0.0196
17253TIP3    H173174   4.592   2.958   2.908  0.7102  0.3347 -0.3498
17253TIP3    H273175   4.442   2.960   2.931  0.7508 -0.8856  0.0312
17254TIP3   OH273176   5.165   4.274   0.500 -0.5976  0.0336 -0.4997
17254TIP3    H173177   5.195   4.255   0.411 -0.6404 -1.3681 -0.2115
17254TIP3    H273178   5.070   4.261   0.498 -0.7898  1.3328 -0.5823
17255TIP3   OH273179   6.008   1.958   3.756  0.0243 -0.5663  0.0531
17255TIP3    H173180   6.092   1.938   3.713 -0.5684 -0.2219 -1.3111
17255TIP3    H273181   6.006   1.901   3.833  1.7881 -0.1277  0.4450
17256TIP3   OH273182   3.869   4.178  15.057  0.1835 -0.0637  0.0860
17256TIP3    H173183   3.791   4.125  15.038 -1.0847  1.0480  2.0481
17256TIP3    H273184   3.885   4.166  15.150  2.5262 -0.4322 -0.3302
17257TIP3   OH273185   1.604   5.833  11.940  0.3396 -0.0138 -0.5363
17257TIP3    H173186   1.666   5.795  12.001  0.0285  1.4573  0.7247
17257TIP3    H273187   1.650   5.835  11.856  1.5385 -0.0964  0.1133
17258TIP3   OH273188   0.238   3.592  12.092  0.1448 -0.2581 -0.5541
17258TIP3    H173189   0.157   3.549  12.121  0.2899  0.5439  1.0939
17258TIP3    H273190   0.236   3.583  11.997 -2.5315  0.8701 -0.6583
17259TIP3   OH273191   1.940   2.027  13.739 -0.1776  0.2871 -0.2911
17259TIP3    H173192   1.866   1.993  13.689  0.0839 -0.4207 -0.1942
17259TIP3    H273193   2.017   1.983  13.702  0.2895  1.6361 -0.9528
17260TIP3   OH273194   5.930   6.093  14.445  0.0659 -0.4443  1.0826
17260TIP3    H173195   5.945   6.003  14.474 -1.1415 -0.3766  1.9585
17260TIP3    H273196   5.839   6.111  14.468 -0.2427  0.4105 -0.6739
17261TIP3   OH273197   3.357   2.128  15.368 -0.3296 -0.1843 -0.2098
17261TIP3    H173198   3.451   2.125  15.386 -0.2795  0.1950 -0.4131
17261TIP3    H273199   3.317   2.146  15.453 -0.1820  0.2226 -0.2260
17262TIP3   OH273200   0.099   1.644  13.283  0.1373  0.5717 -0.0466
17262TIP3    H173201   0.132   1.684  13.202  1.6439 -1.9726 -0.7601
17262TIP3    H273202   0.156   1.680  13.352 -0.2776  1.7163 -0.2956
17263TIP3   OH273203   3.950   5.370  11.646  0.5294  0.1673  0.0189
17263TIP3    H173204   3.961   5.292  11.701  1.9688  0.0567 -0.3995
17263TIP3    H273205   4.017   5.361  11.579 -0.3185  1.0006 -0.9520
17264TIP3   OH273206   1.775   2.260   0.565  0.8138  0.3469 -0.2730
17264TIP3    H173207   1.792   2.166   0.574  1.2079  0.4372 -0.0721
17264TIP3    H273208   1.764   2.273   0.470  0.5690  0.0686 -0.2860
17265TIP3   OH273209   0.444   1.585   2.543  0.6200 -0.3296  0.2147
17265TIP3    H173210   0.428   1.642   2.468  0.1830  0.8648  1.2154
17265TIP3    H273211   0.503   1.634   2.599  1.1888 -1.3467  0.5324
17266TIP3   OH273212   4.842   3.332   5.244 -0.0742  0.6593  0.2555
17266TIP3    H173213   4.921   3.372   5.281 -0.6310  1.0089  1.0907
17266TIP3    H273214   4.840   3.363   5.154  0.5713  0.9081  0.3223
17267TIP3   OH273215   5.726   4.460  15.990 -0.1690  0.1696  0.2509
17267TIP3    H173216   5.808   4.504  16.012  0.2728 -0.8179  0.5726
17267TIP3    H273217   5.744   4.367  16.002 -0.8082 -0.1807 -1.3874
17268TIP3   OH273218   0.066   1.077  10.937 -0.0663 -0.1828  0.8961
17268TIP3    H173219   0.021   1.123  10.866 -0.0973 -0.7447  0.5479
17268TIP3    H273220   0.122   1.014  10.892 -0.1401 -0.5918  1.3745
17269TIP3   OH273221   2.118   4.673   3.087 -0.2564 -0.3563  0.1077
17269TIP3    H173222   2.182   4.735   3.052 -1.9238  0.7838 -1.0343
17269TIP3    H273223   2.102   4.612   3.015 -1.5386  0.2568 -0.1454
17270TIP3   OH273224   2.151   5.173   3.377 -0.4463 -0.2401  0.7226
17270TIP3    H173225   2.142   5.124   3.295 -2.3386 -0.8496  1.2907
17270TIP3    H273226   2.229   5.227   3.363 -0.0380 -1.2317 -1.0170
17271TIP3   OH273227   3.523   3.960   3.836  0.4212  0.7282  0.2832
17271TIP3    H173228   3.616   3.974   3.852  0.5220 -0.4381  0.7462
17271TIP3    H273229   3.479   4.014   3.902  0.8122 -1.6801  2.6110
17272TIP3   OH273230   6.561   5.801   3.757 -0.1163  0.3869 -0.3248
17272TIP3    H173231   6.551   5.728   3.697  1.9894 -1.4942  1.4990
17272TIP3    H273232   6.535   5.878   3.706 -1.0624 -1.4376 -2.7126
17273TIP3   OH273233   5.308   0.579   6.186 -0.0295 -0.1527 -0.4868
17273TIP3    H173234   5.284   0.604   6.275  0.3076 -0.7837 -0.2183
17273TIP3    H273235   5.284   0.487   6.179  0.2198 -0.1876 -0.9494
17274TIP3   OH273236   0.685   0.489   4.390 -0.0783 -0.6286  0.1398
17274TIP3    H173237   0.631   0.537   4.327  0.0221  0.5253  0.9221
17274TIP3    H273238   0.698   0.550   4.462  0.5526 -1.6299  0.8867
17275TIP3   OH273239   1.639   2.177  15.410 -0.0271 -0.6559  0.2221
17275TIP3    H173240   1.561   2.191  15.355  0.6154 -0.1490 -0.5699
17275TIP3    H273241   1.671   2.265  15.430  0.0478 -0.8545  0.9799
17276TIP3   OH273242   5.289   6.421  15.667 -1.0882 -0.0236 -0.1704
17276TIP3    H173243   5.206   6.373  15.670 -0.6903 -0.7526 -0.6040
17276TIP3    H273244   5.347   6.364  15.617 -0.5617  0.8444 -0.5517
17277TIP3   OH273245   5.412   3.474   1.526 -0.0727  0.3031 -0.6511
17277TIP3    H173246   5.494   3.427   1.509  0.8358  1.1764  1.2213
17277TIP3    H273247   5.356   3.410   1.569  0.7977  0.6181  0.9830
17278TIP3   OH273248   2.615   3.761   4.267 -0.4539 -0.0193 -0.2792
17278TIP3    H173249   2.601   3.696   4.335 -1.1612  0.0796 -0.3348
17278TIP3    H273250   2.674   3.825   4.307  0.1159 -0.6056 -0.1741
17279TIP3   OH273251   2.393   4.102   1.270  0.7155 -0.0008 -0.2754
17279TIP3    H173252   2.337   4.178   1.283  2.2415  1.0310  0.4494
17279TIP3    H273253   2.432   4.086   1.356  1.9979 -0.3201 -0.8948
17280TIP3   OH273254   3.731   1.987  15.788  0.0026 -0.2464  0.0446
17280TIP3    H173255   3.650   2.036  15.777  0.7893  1.2777  0.8605
17280TIP3    H273256   3.721   1.911  15.731 -1.2869  0.8015 -1.1689
17281TIP3   OH273257   0.950   2.803   1.286  0.0549  0.7171  0.1352
17281TIP3    H173258   0.951   2.839   1.375 -0.6456  2.0947 -0.3975
17281TIP3    H273259   1.014   2.732   1.288  0.8217  1.4296  1.4518
17282TIP3   OH273260   3.582   2.606  14.277  0.4513  0.1636 -0.2464
17282TIP3    H173261   3.579   2.692  14.236  0.5073  0.4879  0.4268
17282TIP3    H273262   3.586   2.624  14.370 -1.2148 -0.6065 -0.0117
17283TIP3   OH273263   0.415   0.421   1.963 -0.1035  0.5440 -0.3481
17283TIP3    H173264   0.403   0.421   2.058  0.6336 -0.1234 -0.2532
17283TIP3    H273265   0.508   0.439   1.950 -0.2303  0.7773 -0.9471
17284TIP3   OH273266   3.834   2.514   1.634 -0.6707  0.5242  0.9681
17284TIP3    H173267   3.886   2.589   1.607 -0.3131  0.0742  0.4131
17284TIP3    H273268   3.750   2.526   1.590 -0.0892 -0.2129 -0.3609
17285TIP3   OH273269   5.046   4.152   4.962  0.3216 -0.4089  0.6112
17285TIP3    H173270   4.985   4.103   5.017  1.3745 -1.1492  1.1382
17285TIP3    H273271   5.085   4.217   5.022  1.2623 -1.0295  0.6688
17286TIP3   OH273272   0.386   5.936  14.856 -0.3469  0.1741 -0.3399
17286TIP3    H173273   0.403   5.888  14.937  0.0782  1.4836  0.3638
17286TIP3    H273274   0.472   5.946  14.815 -0.4227  0.4012 -0.4460
17287TIP3   OH273275   2.817   2.764  14.889  0.4928 -1.0607  1.2426
17287TIP3    H173276   2.859   2.836  14.936 -0.0228 -0.4014  0.7081
17287TIP3    H273277   2.840   2.686  14.939 -1.4184 -0.2043  3.5350
17288TIP3   OH273278   6.234   5.954   5.238 -0.9077  0.2183 -0.7606
17288TIP3    H173279   6.252   5.990   5.325  1.2625 -0.7986 -0.7577
17288TIP3    H273280   6.190   5.871   5.256  1.1187 -0.8475 -0.5454
17289TIP3   OH273281   0.103   2.716  17.130 -0.0489 -0.5514 -0.4207
17289TIP3    H173282   0.183   2.760  17.101  0.0387 -1.2282 -1.2318
17289TIP3    H273283   0.082   2.757  17.214  0.8249  0.0334 -0.4811
17290TIP3   OH273284   6.775   4.484  14.015  0.1461  0.3745  0.1816
17290TIP3    H173285   6.807   4.439  14.093  0.8053 -0.8017 -0.7437
17290TIP3    H273286   6.846   4.543  13.991 -0.8045  2.1158  1.5171
17291TIP3   OH273287   5.631   0.231  13.779 -0.4717 -0.1981  0.0770
17291TIP3    H173288   5.623   0.171  13.705 -2.1739 -1.4955  1.2609
17291TIP3    H273289   5.622   0.175  13.856  0.0966  1.2864  1.2444
17292TIP3   OH273290   2.427   3.339  15.578  0.1590  0.1736 -0.8891
17292TIP3    H173291   2.415   3.433  15.589 -0.4286  0.0227 -0.1702
17292TIP3    H273292   2.483   3.330  15.501  1.6053  1.1672  0.0147
17293TIP3   OH273293   0.879   4.224  15.476 -0.0616 -0.4840 -0.6450
17293TIP3    H173294   0.792   4.211  15.514  0.6106 -0.2363  1.0598
17293TIP3    H273295   0.868   4.211  15.382 -1.8545 -0.8474 -0.3848
17294TIP3   OH273296   5.128   0.511  14.088  0.2125 -0.2640 -0.4765
17294TIP3    H173297   5.130   0.450  14.015  2.0385 -0.7591 -0.0531
17294TIP3    H273298   5.114   0.457  14.166 -1.4663  0.2301 -0.4092
17295TIP3   OH273299   3.408   1.611   5.577  0.0290 -0.4045 -0.0514
17295TIP3    H173300   3.461   1.638   5.502 -0.6393  0.3656 -0.2577
17295TIP3    H273301   3.336   1.561   5.538 -0.9835  1.0073 -0.0668
17296TIP3   OH273302   3.185   2.741   6.177 -0.1364  0.3582  0.1130
17296TIP3    H173303   3.115   2.763   6.116  0.4246  1.9109  0.0127
17296TIP3    H273304   3.265   2.776   6.137  0.6649 -1.0614  0.4071
17297TIP3   OH273305   0.903   0.782  11.917  0.1025  0.4256  0.1388
17297TIP3    H173306   0.871   0.714  11.977 -1.2540  0.9685  0.0556
17297TIP3    H273307   0.997   0.788  11.935  0.5123 -2.4163 -0.7980
17298TIP3   OH273308   1.083   2.551  13.754  0.0552 -0.3389 -0.0743
17298TIP3    H173309   0.994   2.578  13.728  0.0361 -0.4351 -0.1105
17298TIP3    H273310   1.140   2.590  13.688 -0.0582 -1.2424 -0.7334
17299TIP3   OH273311   3.854   0.786  11.994 -0.8539  0.7796  0.0153
17299TIP3    H173312   3.890   0.798  11.906 -1.4418 -1.0180 -0.4935
17299TIP3    H273313   3.896   0.705  12.026 -2.1515  0.3355  0.6033
17300TIP3   OH273314   2.771   4.115  15.623 -0.3966 -0.2615 -0.2138
17300TIP3    H173315   2.739   4.154  15.704 -0.9951  0.3321 -0.7287
17300TIP3    H273316   2.693   4.081  15.580 -0.1376 -0.1779 -0.7529
17301TIP3   OH273317   4.191   5.228  11.286  0.1907 -0.0341  0.1032
17301TIP3    H173318   4.180   5.243  11.192  0.8312  1.2759  0.2374
17301TIP3    H273319   4.232   5.141  11.291  0.1672 -0.1065 -0.8208
17302TIP3   OH273320   4.933   2.649   5.990 -0.2465 -0.1017 -0.5799
17302TIP3    H173321   4.999   2.633   5.924 -1.0083  0.7956 -1.5749
17302TIP3    H273322   4.941   2.743   6.010  0.0771 -0.3959  0.7039
17303TIP3   OH273323   5.817   4.858  12.880 -0.2032 -0.2249  0.0864
17303TIP3    H173324   5.861   4.844  12.964  1.2419  2.9004 -0.0937
17303TIP3    H273325   5.751   4.925  12.898  0.5511  0.9401 -1.3923
17304TIP3   OH273326   4.563   0.856  13.998 -0.7357 -0.0423  0.3319
17304TIP3    H173327   4.546   0.911  14.075 -1.6636 -0.1176  0.1919
17304TIP3    H273328   4.637   0.897  13.955 -0.5334  0.2964  0.9958
17305TIP3   OH273329   1.862   4.547   1.524 -0.3257 -0.0854 -0.3497
17305TIP3    H173330   1.781   4.521   1.569 -0.2492 -2.0641 -1.3008
17305TIP3    H273331   1.922   4.570   1.594 -0.7116 -1.6532  0.5155
17306TIP3   OH273332   1.023   6.139  15.090 -0.1261  0.0981  0.2351
17306TIP3    H173333   1.005   6.233  15.079 -0.1174 -0.0043 -0.7310
17306TIP3    H273334   0.961   6.111  15.157  1.2093  1.1990  1.9901
17307TIP3   OH273335   4.160   3.130   3.180 -0.5261 -0.3129  0.3515
17307TIP3    H173336   4.086   3.105   3.235 -1.2050 -2.7474 -1.5193
17307TIP3    H273337   4.233   3.077   3.212 -0.6318 -0.8735 -0.3095
17308TIP3   OH273338   2.083   1.230  11.481  0.0953  0.0605  0.2466
17308TIP3    H173339   2.165   1.268  11.450 -0.7787  1.9413  0.1802
17308TIP3    H273340   2.025   1.233  11.406  0.1760 -1.9686  0.0771
17309TIP3   OH273341   5.264   2.761   0.673 -0.2742  0.3076  0.2572
17309TIP3    H173342   5.265   2.759   0.769 -0.8227 -2.2283  0.2504
17309TIP3    H273343   5.174   2.787   0.651  0.2055  2.1691  0.4033
17310TIP3   OH273344   5.596   2.022  14.435  0.3441  0.2117 -0.3287
17310TIP3    H173345   5.550   1.949  14.394 -0.0649  0.6975 -0.7324
17310TIP3    H273346   5.658   1.980  14.495 -0.0916 -0.4578 -0.3422
17311TIP3   OH273347   4.047   2.422  14.668 -0.1342  0.0195  0.1250
17311TIP3    H173348   4.021   2.509  14.639  2.7471  0.2779 -1.9103
17311TIP3    H273349   4.066   2.374  14.588  1.7140 -1.3337  1.3152
17312TIP3   OH273350   3.866   3.852   1.025  0.1201 -0.2561 -0.6989
17312TIP3    H173351   3.791   3.854   1.084  0.1337 -1.2896 -0.6409
17312TIP3    H273352   3.939   3.884   1.077 -0.6859  2.7469 -1.3545
17313TIP3   OH273353   4.549   5.750   5.588 -0.6303 -0.0216 -0.2879
17313TIP3    H173354   4.600   5.724   5.664 -1.7592 -0.7059  0.2614
17313TIP3    H273355   4.593   5.710   5.513 -1.8769 -2.9460  0.4599
17314TIP3   OH273356   6.264   4.485   4.908  0.3510 -0.1214  0.2727
17314TIP3    H173357   6.317   4.405   4.906 -0.3421 -0.5690 -0.6480
17314TIP3    H273358   6.268   4.514   4.999  0.2908 -1.4222  0.6988
17315TIP3   OH273359   0.545   5.471   1.346 -0.1688 -0.3721  0.2412
17315TIP3    H173360   0.585   5.462   1.432  0.7914 -1.6655 -0.3027
17315TIP3    H273361   0.543   5.565   1.329 -3.0962  0.1057  2.8778
17316TIP3   OH273362   2.707   6.465   0.961  0.0653 -0.4338 -0.5844
17316TIP3    H173363   2.762   6.396   0.999 -2.5940 -1.1257  2.2301
17316TIP3    H273364   2.717   6.539   1.021 -1.0450 -0.1391 -0.7562
17317TIP3   OH273365   5.243   3.173  11.834  0.2889  0.3734  0.1650
17317TIP3    H173366   5.221   3.092  11.878  1.0031  1.2689  2.2378
17317TIP3    H273367   5.308   3.148  11.768  1.4845 -0.5615  1.6651
17318TIP3   OH273368   2.198   5.873  13.775 -0.0245 -0.0815  0.5511
17318TIP3    H173369   2.168   5.794  13.731 -1.6293 -0.7441  2.7307
17318TIP3    H273370   2.294   5.867  13.774 -0.1362 -2.1883  0.9469
17319TIP3   OH273371   3.523   5.168  13.788 -0.3091  0.6360  0.7014
17319TIP3    H173372   3.524   5.121  13.704 -0.8537  1.3089  0.3098
17319TIP3    H273373   3.436   5.209  13.791  0.1652  1.6399  1.0125
17320TIP3   OH273374   1.526   5.513   1.537  0.0528 -0.1790  0.1100
17320TIP3    H173375   1.589   5.584   1.523  0.2775 -0.4525 -0.2939
17320TIP3    H273376   1.568   5.458   1.603  0.0733 -0.1663  0.1076
17321TIP3   OH273377   6.485   4.711  15.388 -0.8921 -0.1089 -0.5715
17321TIP3    H173378   6.394   4.726  15.414 -0.7692 -0.0187 -0.1865
17321TIP3    H273379   6.480   4.678  15.298 -1.3875 -1.6883  0.0304
17322TIP3   OH273380   0.290   0.630  13.386 -0.0154  0.3639 -0.6064
17322TIP3    H173381   0.306   0.725  13.386  0.1469  0.3453  1.8057
17322TIP3    H273382   0.377   0.591  13.381 -0.0571  0.3300 -1.1035
17323TIP3   OH273383   4.447   6.392  14.124  0.6059 -0.0279  0.4357
17323TIP3    H173384   4.483   6.471  14.085  1.0330  0.1724  1.2268
17323TIP3    H273385   4.451   6.407  14.218 -0.0603 -0.6605  0.5755
17324TIP3   OH273386   6.355   1.937  16.147 -0.2402 -0.5060 -0.1048
17324TIP3    H173387   6.294   2.007  16.122  2.1149  1.0365 -1.7095
17324TIP3    H273388   6.346   1.871  16.079 -0.5621 -0.5438 -0.0225
17325TIP3   OH273389   5.895   6.737   4.957  0.0867 -0.5960 -0.1741
17325TIP3    H173390   5.933   6.818   4.989  0.1119 -0.6371 -0.1013
17325TIP3    H273391   5.955   6.668   4.986 -0.0702 -0.6642 -0.0118
17326TIP3   OH273392   6.375   2.462   0.808 -0.2306 -0.2870 -0.0816
17326TIP3    H173393   6.452   2.519   0.814 -1.1578  0.9007  0.7984
17326TIP3    H273394   6.331   2.489   0.727 -0.3915 -0.1061  0.0657
17327TIP3   OH273395   4.747   3.215   4.987 -0.4922  0.3978 -0.1549
17327TIP3    H173396   4.721   3.304   4.963 -0.4248  1.6651  3.9445
17327TIP3    H273397   4.666   3.172   5.014  0.0712  0.9428  2.6376
17328TIP3   OH273398   2.127   2.045   3.210  0.1165  0.1502  0.0371
17328TIP3    H173399   2.094   2.053   3.300 -1.1685 -0.4927 -0.3798
17328TIP3    H273400   2.222   2.035   3.221 -0.0100  0.2370  1.3132
17329TIP3   OH273401   5.416   1.862   0.632 -0.5961 -0.2009 -0.4124
17329TIP3    H173402   5.350   1.836   0.567 -0.9845 -0.4528  0.0849
17329TIP3    H273403   5.422   1.957   0.624 -1.2955 -0.1390 -0.1903
17330TIP3   OH273404   0.635   6.365  10.565 -0.1039 -0.5854  0.0218
17330TIP3    H173405   0.545   6.337  10.547  0.0299 -0.9645 -0.0831
17330TIP3    H273406   0.647   6.443  10.511  0.1302 -1.4315 -1.1955
17331TIP3   OH273407   2.327   0.268   1.469 -0.2709 -0.4807  0.0315
17331TIP3    H173408   2.409   0.283   1.516  0.3822 -0.3793 -1.0994
17331TIP3    H273409   2.260   0.267   1.536  0.2980  2.2629  0.7227
17332TIP3   OH273410   6.468   1.501  12.681  0.3471  0.0418 -0.6198
17332TIP3    H173411   6.450   1.587  12.642 -0.1288  0.2934  0.1436
17332TIP3    H273412   6.533   1.462  12.623 -1.3965 -0.1896 -2.4909
17333TIP3   OH273413   0.793   4.792  13.275  0.1760 -0.2885  0.8821
17333TIP3    H173414   0.808   4.789  13.369  0.4765 -1.6331  0.7996
17333TIP3    H273415   0.713   4.743  13.261  0.6074 -0.8556  0.3520
17334TIP3   OH273416   4.614   0.120  16.454  0.1478  0.8857  0.3900
17334TIP3    H173417   4.569   0.198  16.421 -0.1363  0.0348 -1.2550
17334TIP3    H273418   4.548   0.074  16.506 -0.1592  0.9199  0.0314
17335TIP3   OH273419   4.857   2.930  15.755 -0.2342  0.0646  0.2039
17335TIP3    H173420   4.773   2.924  15.709 -0.0096 -1.3462 -0.0256
17335TIP3    H273421   4.891   2.841  15.756  0.2792  0.2579  2.1590
17336TIP3   OH273422   1.261   1.219  16.252  0.1447 -0.1085 -0.4445
17336TIP3    H173423   1.255   1.164  16.174  0.0280 -0.6438 -0.0565
17336TIP3    H273424   1.175   1.259  16.260  0.1469 -0.0772 -0.5701
17337TIP3   OH273425   0.640   2.836   3.175  0.5611 -0.2003  0.3057
17337TIP3    H173426   0.710   2.789   3.129  0.6068 -0.8714  1.0682
17337TIP3    H273427   0.650   2.927   3.145  0.0710 -0.7601 -1.6688
17338TIP3   OH273428   3.681   2.280  13.561  0.2105  0.0138 -0.0730
17338TIP3    H173429   3.716   2.345  13.622  0.2661 -0.8002  0.7623
17338TIP3    H273430   3.732   2.200  13.578 -1.3537 -0.8852  0.4367
17339TIP3   OH273431   5.610   6.691  11.968 -0.5202 -0.0817 -0.1846
17339TIP3    H173432   5.524   6.658  11.942  0.1029  0.4712 -3.1839
17339TIP3    H273433   5.661   6.613  11.988 -0.3046 -0.7735 -3.1526
17340TIP3   OH273434   0.366   4.329   2.187  0.2046  0.1882  0.3300
17340TIP3    H173435   0.392   4.415   2.221 -0.1439  1.3257 -2.1647
17340TIP3    H273436   0.299   4.348   2.122 -0.6174 -2.0860  0.4625
17341TIP3   OH273437   3.945   2.141  11.376  0.3316 -0.0358 -0.0785
17341TIP3    H173438   3.873   2.094  11.417 -1.4319  0.7793 -2.1874
17341TIP3    H273439   3.953   2.222  11.427 -1.4505  0.7022 -0.9370
17342TIP3   OH273440   3.281   2.113   0.120 -0.1085 -0.2371 -0.0776
17342TIP3    H173441   3.193   2.110   0.080 -0.8748  1.6784  1.4076
17342TIP3    H273442   3.268   2.079   0.208  0.7425 -0.3366  0.0110
17343TIP3   OH273443   1.265   3.076  11.918 -0.2280  0.5823 -0.2143
17343TIP3    H173444   1.312   3.088  11.836 -0.2334 -2.5501 -0.7531
17343TIP3    H273445   1.196   3.143  11.916  0.1591  0.9712 -2.4732
17344TIP3   OH273446   5.968   1.448  15.587 -0.1133  0.2710  0.2593
17344TIP3    H173447   5.923   1.374  15.546  0.5152  1.0591 -1.9306
17344TIP3    H273448   6.011   1.493  15.514  2.1048  0.9976  1.9587
17345TIP3   OH273449   5.239   2.165  12.842  0.3174 -0.0959 -0.1655
17345TIP3    H173450   5.193   2.200  12.766  0.6517 -0.1076 -0.3716
17345TIP3    H273451   5.287   2.090  12.809  1.3490  0.5618 -0.1803
17346TIP3   OH273452   5.011   5.576   6.144 -0.0102  0.4335 -0.2569
17346TIP3    H173453   5.029   5.488   6.177 -2.4446 -0.4911 -1.2776
17346TIP3    H273454   4.980   5.624   6.220 -0.8412 -0.2457 -0.1668
17347TIP3   OH273455   4.431   1.460   5.472  0.1231 -0.0741  0.2100
17347TIP3    H173456   4.416   1.488   5.562 -1.9510 -1.4441  0.3305
17347TIP3    H273457   4.519   1.424   5.472  0.0993 -0.1532  1.7004
17348TIP3   OH273458   1.275   0.829   4.569 -0.1694  0.3545 -0.0373
17348TIP3    H173459   1.227   0.908   4.594 -1.0025 -0.3907  0.7522
17348TIP3    H273460   1.367   0.854   4.577 -0.4066  1.5893 -0.9103
17349TIP3   OH273461   0.361   2.736  12.707  0.5259  0.2294 -0.5570
17349TIP3    H173462   0.430   2.703  12.650  0.3431 -0.7077 -0.2368
17349TIP3    H273463   0.329   2.659  12.753  0.9842  1.0434  1.1526
17350TIP3   OH273464   5.679   5.270  10.909  0.3654 -0.1036  0.2568
17350TIP3    H173465   5.608   5.206  10.900  0.1797 -0.0386  1.2929
17350TIP3    H273466   5.703   5.291  10.818 -2.5210  1.6403 -0.1503
17351TIP3   OH273467   0.724   6.295  13.787 -0.7622  0.0770  0.2803
17351TIP3    H173468   0.736   6.378  13.741  0.8552  0.7271  1.7966
17351TIP3    H273469   0.812   6.269  13.813 -1.4025 -1.4170  1.0275
17352TIP3   OH273470   1.389   5.267   2.533  0.2158 -0.3767 -0.0467
17352TIP3    H173471   1.483   5.252   2.527  0.3762  0.6947 -0.3999
17352TIP3    H273472   1.371   5.333   2.466 -0.4749  0.8088  1.2643
17353TIP3   OH273473   2.380   4.518   3.103  0.2337 -0.8567 -0.7439
17353TIP3    H173474   2.363   4.607   3.133  0.5577 -0.8585 -0.5468
17353TIP3    H273475   2.351   4.517   3.011 -1.2391 -0.9959 -0.2903
17354TIP3   OH273476   5.214   3.891   0.933 -0.3124 -0.2537 -0.2439
17354TIP3    H173477   5.226   3.854   1.020 -0.8967 -0.2056 -0.1405
17354TIP3    H273478   5.245   3.823   0.873  1.2977  0.2164  0.0431
17355TIP3   OH273479   2.518   6.080  13.097 -0.1743  0.2587  0.1678
17355TIP3    H173480   2.603   6.079  13.140  0.8947  0.2773 -1.8824
17355TIP3    H273481   2.465   6.019  13.149  1.4053 -0.5933  0.8404
17356TIP3   OH273482   0.346   4.081  15.451  0.2231 -0.0547  0.3462
17356TIP3    H173483   0.395   3.999  15.451 -1.5706 -1.1710  0.7817
17356TIP3    H273484   0.272   4.064  15.392  0.3934  1.6008 -0.3587
17357TIP3   OH273485   1.598   3.166  12.121 -0.5465  0.0196 -0.1030
17357TIP3    H173486   1.646   3.172  12.038 -0.9045  1.2012 -0.2345
17357TIP3    H273487   1.575   3.074  12.128  0.1302 -0.2241 -0.9621
17358TIP3   OH273488   1.122   5.321  13.176 -0.1687  0.1075  0.0112
17358TIP3    H173489   1.095   5.408  13.205  0.0871  0.1313  0.1830
17358TIP3    H273490   1.129   5.327  13.081 -0.2453  0.2469  0.0151
17359TIP3   OH273491   0.265   6.067   0.117 -0.4584 -0.4069 -0.0527
17359TIP3    H173492   0.333   6.115   0.069 -0.2917 -3.5191 -3.1015
17359TIP3    H273493   0.186   6.077   0.064 -1.3292 -0.4257  1.2220
17360TIP3   OH273494   2.538   4.022  15.486  0.6499  0.1417 -0.3126
17360TIP3    H173495   2.504   4.097  15.438 -0.8269 -0.1907  0.1617
17360TIP3    H273496   2.464   3.961  15.489  1.9801 -1.5518 -1.1435
17361TIP3   OH273497   1.421   3.355   2.116  0.4771  0.1347 -0.2412
17361TIP3    H173498   1.486   3.308   2.064 -0.5444  1.2230 -2.5643
17361TIP3    H273499   1.472   3.420   2.165  1.2217  0.7141 -1.7485
17362TIP3   OH273500   5.261   5.321   1.008  0.0282  0.1863 -0.4433
17362TIP3    H173501   5.229   5.282   0.926  0.8210 -0.9052 -0.2290
17362TIP3    H273502   5.339   5.271   1.030  0.0230  0.7141  0.8025
17363TIP3   OH273503   4.999   5.309  11.210 -0.2031 -0.0765 -0.2427
17363TIP3    H173504   4.948   5.302  11.290 -0.8481 -1.2412 -0.7344
17363TIP3    H273505   4.935   5.303  11.140  0.4264  0.2100 -0.8553
17364TIP3   OH273506   0.466   0.350   0.121 -0.0658  0.6237  0.0201
17364TIP3    H173507   0.408   0.401   0.065  0.0980  1.1630  0.3313
17364TIP3    H273508   0.553   0.388   0.107  0.1421  0.1048 -0.1198
17365TIP3   OH273509   2.812   1.878   2.158  0.4184  0.2330 -1.0617
17365TIP3    H173510   2.804   1.969   2.186  0.3702  0.4084 -1.6330
17365TIP3    H273511   2.777   1.827   2.231 -1.2727  0.7492 -1.4843
17366TIP3   OH273512   0.009   6.168  10.116 -0.2989 -0.2225 -0.6626
17366TIP3    H173513  -0.053   6.239  10.099  1.3281  1.3044 -0.4714
17366TIP3    H273514   0.081   6.211  10.163  0.4037 -2.1558  0.0798
17367TIP3   OH273515   2.872   2.255  14.424  0.2502  0.0502  0.1366
17367TIP3    H173516   2.823   2.188  14.471  2.7206 -1.8113  0.1877
17367TIP3    H273517   2.884   2.219  14.336  1.3452  0.5215  0.0779
17368TIP3   OH273518   3.380   3.158   2.008 -0.3967  0.1303 -0.3790
17368TIP3    H173519   3.470   3.127   2.018 -0.6616 -1.0128 -1.5154
17368TIP3    H273520   3.335   3.126   2.086 -0.5549 -1.9867 -1.3141
17369TIP3   OH273521   6.510   0.105   5.303  0.4978  0.5670  0.0562
17369TIP3    H173522   6.458   0.177   5.266 -0.1989  0.2562  0.4401
17369TIP3    H273523   6.567   0.148   5.367 -1.6293  0.4716  2.0806
17370TIP3   OH273524   3.619   6.170   0.880 -0.1241 -0.4159  0.2803
17370TIP3    H173525   3.636   6.217   0.962 -1.9286  0.6384  0.0825
17370TIP3    H273526   3.540   6.118   0.898 -1.6100  1.2304 -1.3217
17371TIP3   OH273527   1.632   5.788  16.519  0.1366  0.3114 -0.4257
17371TIP3    H173528   1.587   5.849  16.460  1.6009  0.1307 -1.7439
17371TIP3    H273529   1.724   5.814  16.515  0.8524 -2.2174 -1.3087
17372TIP3   OH273530   0.135   2.563   0.982 -0.3135 -0.0998 -0.0151
17372TIP3    H173531   0.066   2.629   0.989 -0.5243 -0.1265 -1.6301
17372TIP3    H273532   0.089   2.481   0.966 -0.0311 -0.5984  1.6563
17373TIP3   OH273533   6.722   2.131   3.540  0.2878 -0.1887  0.0847
17373TIP3    H173534   6.743   2.038   3.553  0.1808 -0.2320 -0.0482
17373TIP3    H273535   6.672   2.155   3.617 -0.7037 -0.5555 -0.4281
17374TIP3   OH273536   2.739   1.730  12.457 -0.0967  0.1388 -0.3774
17374TIP3    H173537   2.711   1.819  12.435  0.6559  0.6957  0.8575
17374TIP3    H273538   2.665   1.693  12.505 -0.0583  0.4197 -0.0978
17375TIP3   OH273539   4.792   2.581  14.133  0.0945  0.3387 -0.4571
17375TIP3    H173540   4.873   2.621  14.163 -1.0390  1.8813  0.6825
17375TIP3    H273541   4.816   2.492  14.106  1.7966  0.1214  1.7080
17376TIP3   OH273542   4.094   2.802   3.025 -0.2180  0.1678  0.4819
17376TIP3    H173543   4.095   2.722   3.078  0.4350 -1.6899 -2.2123
17376TIP3    H273544   4.171   2.794   2.969 -1.7523  1.2635 -1.8610
17377TIP3   OH273545   4.760   6.284  13.939 -0.1153  0.3775 -0.1853
17377TIP3    H173546   4.798   6.326  14.015 -0.6760  1.8486 -0.6960
17377TIP3    H273547   4.686   6.233  13.974  0.3073  0.1600  0.3859
17378TIP3   OH273548   0.662   3.469  16.571  0.2243  0.4238 -0.0943
17378TIP3    H173549   0.673   3.517  16.653  2.2001  0.2751 -0.2478
17378TIP3    H273550   0.586   3.413  16.586 -0.3278  1.4613  1.1089
17379TIP3   OH273551   3.196   2.673  10.668  0.6665  0.5265  0.0952
17379TIP3    H173552   3.129   2.735  10.638  2.3325  2.0469 -0.5803
17379TIP3    H273553   3.218   2.621  10.590 -1.3540 -1.5703  0.8627
17380TIP3   OH273554   4.975   3.534  14.313 -0.1167 -0.2336  0.1419
17380TIP3    H173555   4.964   3.592  14.389 -0.7058 -3.1813  2.3665
17380TIP3    H273556   5.061   3.495  14.325  0.3505  0.2523 -1.4570
17381TIP3   OH273557   2.211   4.222  14.562  0.2338  0.5252  0.1214
17381TIP3    H173558   2.275   4.230  14.492  0.6615  0.0211  0.4477
17381TIP3    H273559   2.180   4.311  14.577  0.8797  0.7770 -0.0198
17382TIP3   OH273560   2.858   1.270  16.047  0.0347  0.0344 -0.0330
17382TIP3    H173561   2.943   1.288  16.088  0.1873 -0.1630 -0.2585
17382TIP3    H273562   2.843   1.177  16.061  0.2415 -0.1040 -0.7010
17383TIP3   OH273563   0.351   4.747   2.014  0.2284 -0.2225 -0.3171
17383TIP3    H173564   0.301   4.760   1.933 -0.4295 -1.6881 -0.1566
17383TIP3    H273565   0.331   4.824   2.067 -1.1188 -0.3319 -0.6420
17384TIP3   OH273566   6.626   1.849  10.555  0.0559  0.0399 -0.2492
17384TIP3    H173567   6.697   1.890  10.603 -1.2242  1.5370  0.4364
17384TIP3    H273568   6.666   1.775  10.510  1.7278 -0.0318  1.3091
17385TIP3   OH273569   1.189   5.231  15.169  0.0208  0.3000  0.3836
17385TIP3    H173570   1.197   5.290  15.244 -0.3318 -0.3962  0.9716
17385TIP3    H273571   1.111   5.261  15.124 -0.5687 -0.1671  1.0867
17386TIP3   OH273572   3.965   6.752   0.235  0.2430  0.3018 -0.0832
17386TIP3    H173573   4.034   6.801   0.280  2.3156 -1.4529 -1.2574
17386TIP3    H273574   3.980   6.769   0.142 -0.0274 -1.2268 -0.4179
17387TIP3   OH273575   3.125   1.815  12.977  0.5189 -0.1552  0.1851
17387TIP3    H173576   3.219   1.830  12.977  0.5734 -0.4279 -1.1005
17387TIP3    H273577   3.086   1.902  12.968  0.6389 -0.0595  0.5557
17388TIP3   OH273578   0.882   6.498   2.938 -0.4275 -0.1111 -0.4496
17388TIP3    H173579   0.967   6.542   2.949  0.1536 -1.1215 -0.8410
17388TIP3    H273580   0.824   6.543   3.000  0.6267 -0.0113  0.4839
17389TIP3   OH273581   2.002   3.832   0.765 -0.5779 -0.5725  0.3171
17389TIP3    H173582   1.985   3.832   0.670 -2.9286 -0.2140  0.7092
17389TIP3    H273583   2.018   3.924   0.787 -0.4081 -0.6071  0.3418
17390TIP3   OH273584   4.551   2.877  15.091 -0.3502  0.1659  0.5631
17390TIP3    H173585   4.467   2.918  15.067  0.5276  1.9898  0.5529
17390TIP3    H273586   4.577   2.829  15.013 -1.0883  0.0647  0.3691
17391TIP3   OH273587   6.379   1.403   5.493  0.8195 -0.2414 -0.5317
17391TIP3    H173588   6.289   1.429   5.476  1.3525  0.3050 -2.6738
17391TIP3    H273589   6.381   1.381   5.586 -1.2893  0.6515 -0.2579
17392TIP3   OH273590   4.860   2.086  15.280 -0.1741  0.4962 -0.0471
17392TIP3    H173591   4.918   2.016  15.251  0.1369  0.3173  0.9817
17392TIP3    H273592   4.811   2.110  15.202  1.2514  0.6191 -0.9181
17393TIP3   OH273593   0.101   2.859   2.804 -0.0826 -0.4419 -0.6771
17393TIP3    H173594   0.183   2.840   2.758  0.4907 -1.0639  0.5626
17393TIP3    H273595   0.072   2.943   2.768 -0.1893 -1.3901 -2.8794
17394TIP3   OH273596   2.847   3.993   5.632 -0.3791  0.0847 -0.2494
17394TIP3    H173597   2.846   3.919   5.692 -0.0101 -0.7172 -1.2145
17394TIP3    H273598   2.820   3.956   5.548 -1.1925  1.2468 -0.5195
17395TIP3   OH273599   6.710   1.519  11.113  0.0499 -0.0820 -0.5022
17395TIP3    H173600   6.646   1.576  11.071 -1.4457 -2.2616 -1.2987
17395TIP3    H273601   6.761   1.482  11.041  0.7024 -0.0832 -0.0414
17396TIP3   OH273602   5.818   3.957  11.914 -0.3782 -0.3894  0.0556
17396TIP3    H173603   5.871   3.972  11.992 -0.1986 -1.1775  0.0824
17396TIP3    H273604   5.742   3.908  11.945 -0.1984 -0.8932 -0.3032
17397TIP3   OH273605   3.807   5.883   3.916  0.3556  0.0983 -0.1310
17397TIP3    H173606   3.785   5.882   3.823 -0.7065 -1.2478  0.1200
17397TIP3    H273607   3.903   5.878   3.917  0.5661  2.8490 -1.1684
17398TIP3   OH273608   6.395   2.685  11.684  0.3413  0.2703  0.3882
17398TIP3    H173609   6.445   2.606  11.701  0.4698 -0.0219 -1.2062
17398TIP3    H273610   6.437   2.724  11.607  0.3199  1.9157  1.1920
17399TIP3   OH273611   3.699   6.524   0.076 -0.2421  0.1535 -0.3096
17399TIP3    H173612   3.731   6.603   0.119  0.5038 -0.4461  0.2651
17399TIP3    H273613   3.623   6.497   0.128  0.4373 -0.3653  0.4341
17400TIP3   OH273614   6.045   1.608  14.219  0.1314  0.3405 -0.0650
17400TIP3    H173615   5.959   1.572  14.240  0.7288 -2.1381 -1.7100
17400TIP3    H273616   6.027   1.690  14.174 -1.3553  0.2973  0.4405
17401TIP3   OH273617   4.416   4.538   2.524  0.5779  0.3340 -0.5582
17401TIP3    H173618   4.345   4.571   2.579  0.6940 -1.0087  0.4136
17401TIP3    H273619   4.377   4.466   2.475  0.4650  1.5532 -2.2903
17402TIP3   OH273620   5.445   0.437  15.624 -0.0616  0.0351 -0.1734
17402TIP3    H173621   5.494   0.408  15.547 -1.1083 -0.8796 -0.5131
17402TIP3    H273622   5.488   0.517  15.652  0.6984  0.0443 -1.3618
17403TIP3   OH273623   6.438   3.112  16.179 -0.3079  0.9956  0.0771
17403TIP3    H173624   6.401   3.029  16.150 -0.2464  1.3047 -0.9194
17403TIP3    H273625   6.425   3.113  16.274 -0.0659 -0.2612  0.1237
17404TIP3   OH273626   5.191   4.369   1.948  0.0338 -0.1321  0.4597
17404TIP3    H173627   5.129   4.361   1.875  0.1825  1.8711  0.0988
17404TIP3    H273628   5.231   4.282   1.955 -1.0617 -0.7587 -0.8745
17405TIP3   OH273629   0.247   5.105   0.409 -0.9336  0.0287  0.0026
17405TIP3    H173630   0.233   5.073   0.320 -0.5415  2.3796 -0.9510
17405TIP3    H273631   0.283   5.193   0.398  0.6798 -0.2349  2.4826
17406TIP3   OH273632   6.440   1.261  14.247  0.6007  0.0190 -0.5584
17406TIP3    H173633   6.443   1.211  14.329 -1.0432 -2.1576 -1.7607
17406TIP3    H273634   6.355   1.306  14.250  1.4613  1.6634 -0.1308
17407TIP3   OH273635   3.590   0.498   2.101 -0.3792  0.4723 -0.5600
17407TIP3    H173636   3.542   0.564   2.051 -0.2671  0.5758 -0.5345
17407TIP3    H273637   3.554   0.504   2.189 -1.5898 -0.7208 -0.9563
17408TIP3   OH273638   5.617   1.754  17.000  0.1600 -0.0852  0.0849
17408TIP3    H173639   5.709   1.780  17.001  0.1709 -0.1328  0.9325
17408TIP3    H273640   5.574   1.822  16.947  0.4520  0.7605  0.9123
17409TIP3   OH273641   0.911   1.106  14.809  0.2305 -0.6425  0.1330
17409TIP3    H173642   0.886   1.190  14.770 -0.7343 -0.1951  1.6916
17409TIP3    H273643   0.841   1.046  14.785  0.5807 -0.8408 -0.4048
17410TIP3   OH273644   2.386   1.988  11.457  0.8524  0.7876  0.1874
17410TIP3    H173645   2.333   2.031  11.390  0.6228 -0.7852 -0.6610
17410TIP3    H273646   2.327   1.977  11.532  0.8627  1.7643  0.3416
17411TIP3   OH273647   1.609   4.387  12.975  0.3099 -0.4304  0.0093
17411TIP3    H173648   1.623   4.353  13.063  0.7911 -1.9868 -0.6391
17411TIP3    H273649   1.520   4.421  12.975  0.9885  1.4112  1.6601
17412TIP3   OH273650   0.738   2.118   5.138  0.0398  0.2881 -0.2530
17412TIP3    H173651   0.665   2.111   5.200  1.1370 -2.7543  0.8158
17412TIP3    H273652   0.815   2.097   5.191  1.6475  2.7587 -1.5175
17413TIP3   OH273653   1.467   1.429   6.255 -0.0890 -0.2789 -0.5775
17413TIP3    H173654   1.481   1.336   6.271 -0.5796 -0.2710 -0.0960
17413TIP3    H273655   1.516   1.473   6.324  1.7009 -0.1127 -1.8837
17414TIP3   OH273656   2.093   6.478   3.470  0.5490 -0.3033  0.1184
17414TIP3    H173657   2.085   6.442   3.382 -0.9080  0.2209  0.0158
17414TIP3    H273658   2.112   6.571   3.456  4.7450 -1.0395  0.3765
17415TIP3   OH273659   6.421   6.467   0.414 -0.0703 -0.0614  0.2475
17415TIP3    H173660   6.468   6.452   0.332 -0.9542 -1.7270  0.0335
17415TIP3    H273661   6.490   6.479   0.479  0.6623 -2.1317 -0.1246
17416TIP3   OH273662   2.301   0.963  16.651 -0.1883  0.2638 -0.2573
17416TIP3    H173663   2.289   0.904  16.577 -1.0605  0.8886 -0.6223
17416TIP3    H273664   2.277   1.049  16.617  1.2761  0.8682  0.2173
17417TIP3   OH273665   0.104   3.962  13.356 -0.3510  0.1668 -0.1087
17417TIP3    H173666   0.061   4.034  13.402  0.4712  0.0993  0.7806
17417TIP3    H273667   0.182   4.001  13.317 -1.1789  0.2827 -1.6995
17418TIP3   OH273668   0.003   5.219   3.068 -0.0980 -0.3452 -0.2612
17418TIP3    H173669   0.072   5.169   3.111 -0.4394 -1.9139 -1.4910
17418TIP3    H273670   0.049   5.275   3.005  0.1643 -0.3557 -0.0757
17419TIP3   OH273671   4.639   2.105   0.248 -0.1451  0.0573 -0.2941
17419TIP3    H173672   4.697   2.156   0.192  1.2368 -0.9215  0.2374
17419TIP3    H273673   4.610   2.032   0.194  0.0892 -0.1279 -0.1691
17420TIP3   OH273674   4.665   5.303  12.982  0.4677 -0.3505 -0.0898
17420TIP3    H173675   4.703   5.370  13.039 -0.4238  0.0052  0.0809
17420TIP3    H273676   4.613   5.248  13.041 -0.6802  0.1809 -0.6147
17421TIP3   OH273677   3.636   4.120   3.094  0.2609 -0.1713 -0.5092
17421TIP3    H173678   3.730   4.105   3.089  0.5877  1.8448 -0.6839
17421TIP3    H273679   3.610   4.147   3.006 -0.1431  1.0543 -0.0316
17422TIP3   OH273680   2.110   1.343  11.974 -0.0634 -0.4519  0.6377
17422TIP3    H173681   2.189   1.290  11.976 -0.4798 -1.1565 -1.2501
17422TIP3    H273682   2.124   1.405  11.902 -0.6645  0.2947  1.1564
17423TIP3   OH273683   1.198   1.019  11.346 -0.2428 -0.2249 -0.2493
17423TIP3    H173684   1.165   0.960  11.279 -0.8655 -1.6221  1.2427
17423TIP3    H273685   1.262   0.967  11.394  0.3185  0.8103  0.1314
17424TIP3   OH273686   1.022   4.665   2.941  0.3371  0.2182 -0.2016
17424TIP3    H173687   0.988   4.719   3.012  1.2700 -1.1712  1.3620
17424TIP3    H273688   1.018   4.576   2.975 -0.3309 -0.6203 -2.3843
17425TIP3   OH273689   6.214   1.965  14.581 -0.0717  0.1811  0.4644
17425TIP3    H173690   6.238   1.947  14.490 -0.6766  0.5142  0.2383
17425TIP3    H273691   6.119   1.957  14.583 -0.0688  0.2846  1.0410
17426TIP3   OH273692   0.567   0.584   3.986 -0.8374 -0.1150  0.0519
17426TIP3    H173693   0.581   0.614   4.075 -0.1522  0.5838 -0.2880
17426TIP3    H273694   0.554   0.664   3.935  3.6987 -0.1307 -1.3600
17427TIP3   OH273695   4.674   0.733  15.888  0.6105  0.0305  0.3590
17427TIP3    H173696   4.697   0.659  15.944  1.0149  1.3154  1.8982
17427TIP3    H273697   4.753   0.752  15.838  0.9817  0.4066  1.0861
17428TIP3   OH273698   1.716   6.269   4.829  0.3166  0.1181  0.2871
17428TIP3    H173699   1.669   6.248   4.910 -0.3665  1.5366  0.2738
17428TIP3    H273700   1.680   6.209   4.764  0.2983 -0.4904  0.8573
17429TIP3   OH273701   3.222   3.406   2.787 -0.1350  0.2250 -0.0021
17429TIP3    H173702   3.314   3.381   2.797 -0.1061  0.3619  0.0862
17429TIP3    H273703   3.206   3.402   2.693  0.1710  0.9181 -0.0897
17430TIP3   OH273704   2.357   5.006  16.347 -0.0274  0.4323 -0.1433
17430TIP3    H173705   2.349   5.102  16.345 -0.3741  0.4297  0.8732
17430TIP3    H273706   2.337   4.982  16.437  1.5451 -0.4794 -0.0343
17431TIP3   OH273707   4.789   1.815   0.660 -0.3137 -0.1364 -0.7558
17431TIP3    H173708   4.733   1.885   0.627  0.0850 -0.1572 -1.4946
17431TIP3    H273709   4.878   1.853   0.659 -0.0529 -0.7516 -1.4728
17432TIP3   OH273710   1.009   5.921  12.905  0.0263 -0.1724  0.1423
17432TIP3    H173711   0.956   5.873  12.841  1.5155 -1.0070 -0.4897
17432TIP3    H273712   0.981   6.012  12.895 -1.2173 -0.5839 -0.2376
17433TIP3   OH273713   3.237   5.087  11.800  0.4917  0.0061 -0.1638
17433TIP3    H173714   3.219   5.135  11.882 -0.5719 -1.7058  0.6363
17433TIP3    H273715   3.268   5.154  11.740  1.7571  1.2229  1.7937
17434TIP3   OH273716   3.146   2.350  16.592 -0.3851  0.2444  0.0953
17434TIP3    H173717   3.136   2.340  16.687  0.1524  0.2661  0.1555
17434TIP3    H273718   3.167   2.443  16.580 -0.5134  0.2549 -0.0475
17435TIP3   OH273719   4.195   0.365  11.638  1.3240 -0.0030 -0.0273
17435TIP3    H173720   4.134   0.348  11.567 -0.5564  0.2316  1.4738
17435TIP3    H273721   4.171   0.302  11.706  1.7992  1.0381  1.1429
17436TIP3   OH273722   6.466   5.633   4.357  0.6159  0.2058  0.0444
17436TIP3    H173723   6.525   5.641   4.282  1.1164 -1.8585  0.1924
17436TIP3    H273724   6.506   5.565   4.411 -0.5960  0.5499  1.4010
17437TIP3   OH273725   4.999   2.211  11.861  1.0843 -0.4915  0.4713
17437TIP3    H173726   4.915   2.166  11.850  0.3587  0.6214  1.3228
17437TIP3    H273727   5.061   2.141  11.883 -0.0390 -1.0884  1.8134
17438TIP3   OH273728   1.889   3.613   0.882  0.3283  0.2577 -0.1500
17438TIP3    H173729   1.959   3.548   0.882  0.6197  0.5385  1.8539
17438TIP3    H273730   1.927   3.689   0.839 -0.0450 -0.9035 -2.5917
17439TIP3   OH273731   6.533   5.858   1.314 -0.0614 -0.1297  0.0884
17439TIP3    H173732   6.579   5.811   1.244  2.6324  0.1846  1.5908
17439TIP3    H273733   6.532   5.949   1.285 -1.1255 -0.3734 -0.6609
17440TIP3   OH273734   6.694   2.601  14.983  0.2020  0.4078 -0.0855
17440TIP3    H173735   6.647   2.620  14.902 -0.7596 -0.8070  0.1665
17440TIP3    H273736   6.769   2.547  14.956  1.2269  1.9886 -0.4352
17441TIP3   OH273737   6.018   0.701   0.887 -0.3793  0.3934 -0.2333
17441TIP3    H173738   6.061   0.739   0.811 -1.2800  1.3590 -0.2870
17441TIP3    H273739   5.969   0.627   0.853 -1.7266  1.5259 -0.8264
17442TIP3   OH273740   4.901   0.107  14.263  0.7102  0.0856 -0.1405
17442TIP3    H173741   4.840   0.140  14.196  2.7184  0.9351 -1.6040
17442TIP3    H273742   4.968   0.062  14.213  1.1129 -1.1490  1.4887
17443TIP3   OH273743   3.704   6.381   2.323 -0.2247  0.3247  0.3205
17443TIP3    H173744   3.641   6.310   2.334 -0.5100  0.2546 -1.6163
17443TIP3    H273745   3.657   6.460   2.348 -0.6610  0.1033  0.2067
17444TIP3   OH273746   1.328   1.719   2.468 -0.3177  0.2334 -0.3366
17444TIP3    H173747   1.295   1.804   2.440 -1.3889 -0.1907 -0.3517
17444TIP3    H273748   1.404   1.740   2.523 -0.3837  1.1788 -0.5985
17445TIP3   OH273749   4.500   5.505  15.643 -0.0482  0.3945  0.6424
17445TIP3    H173750   4.488   5.591  15.683 -0.9227  0.1121  0.9951
17445TIP3    H273751   4.411   5.472  15.629  0.2376  0.3636 -1.2726
17446TIP3   OH273752   2.886   5.268  12.562 -0.4805 -0.1744 -0.1549
17446TIP3    H173753   2.877   5.359  12.593 -1.1212  0.1614 -1.2873
17446TIP3    H273754   2.796   5.241  12.542 -0.1475 -0.6243 -1.0391
17447TIP3   OH273755   0.878   0.112   1.167 -0.1812  0.8278  0.1624
17447TIP3    H173756   0.888   0.205   1.145 -0.9678  1.0321  0.6791
17447TIP3    H273757   0.966   0.085   1.195  0.9047  0.5352 -3.2614
17448TIP3   OH273758   5.510   5.613   4.808 -0.5674 -0.2515 -0.4913
17448TIP3    H173759   5.522   5.573   4.894  1.5020 -1.0797 -1.1243
17448TIP3    H273760   5.417   5.636   4.804 -0.4695  0.7329  2.3401
17449TIP3   OH273761   1.905   0.258  11.550 -0.3346  0.0535  0.2405
17449TIP3    H173762   1.831   0.197  11.549 -0.9509  0.8329 -1.8167
17449TIP3    H273763   1.965   0.223  11.485  0.5988  0.0942  1.0647
17450TIP3   OH273764   2.716   3.461  12.095 -0.5410  0.0578 -0.4462
17450TIP3    H173765   2.737   3.548  12.131  1.1233  0.2319 -1.8000
17450TIP3    H273766   2.679   3.479  12.009 -0.3119 -0.5608 -0.6790
17451TIP3   OH273767   0.344   6.345   3.023 -0.5605  0.2682 -0.3306
17451TIP3    H173768   0.428   6.391   3.019 -1.0628  1.1716 -0.6092
17451TIP3    H273769   0.288   6.401   3.077 -0.6106 -0.9393  0.8939
17452TIP3   OH273770   4.070   5.765  13.822 -0.1589 -0.1145 -0.2476
17452TIP3    H173771   4.137   5.727  13.879 -0.4753 -0.8485 -0.3460
17452TIP3    H273772   4.027   5.831  13.876  1.8887  1.7183 -0.8123
17453TIP3   OH273773   4.390   2.615  12.135  0.5375 -0.0914 -0.2323
17453TIP3    H173774   4.374   2.530  12.176  2.5994 -0.0745  0.6946
17453TIP3    H273775   4.443   2.594  12.058  0.5308  0.3032 -0.3441
17454TIP3   OH273776   0.680   6.728   4.732  0.2133  0.0640  0.0176
17454TIP3    H173777   0.773   6.705   4.744  0.5481  1.4881  0.2362
17454TIP3    H273778   0.653   6.765   4.816 -0.8523 -1.2595  0.2814
17455TIP3   OH273779   3.484   2.128   5.156  0.0872 -0.1537 -0.0902
17455TIP3    H173780   3.511   2.219   5.167  1.2664 -0.4305 -0.6441
17455TIP3    H273781   3.460   2.098   5.244 -0.3234  0.6915  0.0872
17456TIP3   OH273782   1.930   0.165   5.083  0.3297  0.1529  0.1076
17456TIP3    H173783   2.007   0.218   5.064  0.3137  0.7859  1.7325
17456TIP3    H273784   1.885   0.156   4.999  3.4964 -2.4081 -1.4024
17457TIP3   OH273785   0.544   6.563  11.945  0.0055  0.0878  0.2902
17457TIP3    H173786   0.466   6.614  11.964 -0.1794 -0.2907  0.5339
17457TIP3    H273787   0.555   6.571  11.850 -1.2088 -1.1427  0.0397
17458TIP3   OH273788   2.115   5.967   0.507  0.0600 -0.0653 -0.1371
17458TIP3    H173789   2.170   5.891   0.487  0.0408 -0.6291  1.8277
17458TIP3    H273790   2.136   6.031   0.439  2.1396 -0.7885 -0.2005
17459TIP3   OH273791   4.160   4.557  13.504 -0.8548  0.4545  0.2461
17459TIP3    H173792   4.198   4.628  13.452  0.7937 -2.0205 -2.0660
17459TIP3    H273793   4.178   4.582  13.595  1.4217  2.0630 -0.5814
17460TIP3   OH273794   6.544   3.302   3.821  0.0349  0.0538  0.1404
17460TIP3    H173795   6.640   3.302   3.813 -0.0647 -0.0326 -1.2393
17460TIP3    H273796   6.519   3.211   3.805 -0.3884  0.3846 -1.1393
17461TIP3   OH273797   5.853   1.177  16.720  0.4528 -0.1407  0.0112
17461TIP3    H173798   5.761   1.158  16.734  0.2089  0.2835 -0.9619
17461TIP3    H273799   5.898   1.138  16.795 -0.4213 -1.1427  0.0206
17462TIP3   OH273800   6.164   6.333  17.056  0.4449  0.1240 -0.1004
17462TIP3    H173801   6.235   6.278  17.090  1.0583  0.4846 -0.7898
17462TIP3    H273802   6.111   6.354  17.133  0.4774 -1.0382  0.2527
17463TIP3   OH273803   4.525   5.178   5.707  0.1669 -0.2604 -0.0729
17463TIP3    H173804   4.563   5.174   5.795 -0.4153 -0.3933  0.1803
17463TIP3    H273805   4.599   5.174   5.648  0.7293  1.7223  0.4404
17464TIP3   OH273806   2.541   6.067   1.102 -0.1130  0.2588 -0.4359
17464TIP3    H173807   2.590   6.145   1.128 -0.6156 -0.2081  2.1286
17464TIP3    H273808   2.584   5.996   1.149 -0.9673 -0.6961 -1.0735
17465TIP3   OH273809   0.132   0.725   4.582 -0.1405  0.8808 -0.1626
17465TIP3    H173810   0.102   0.667   4.652  1.0332  0.3274 -0.1005
17465TIP3    H273811   0.159   0.805   4.626  1.3080  0.2577  0.1304
17466TIP3   OH273812   1.071   1.050   0.432 -0.2214 -0.2056  0.1298
17466TIP3    H173813   0.999   0.997   0.466 -0.3063  0.2426  0.6564
17466TIP3    H273814   1.046   1.141   0.452  0.6144 -0.0662  0.5586
17467TIP3   OH273815   2.085   4.049  10.519 -0.0100 -0.4349  1.4167
17467TIP3    H173816   2.007   4.101  10.540  0.7370  1.0693  0.5886
17467TIP3    H273817   2.053   3.976  10.468 -0.8733  0.2158  1.0259
17468TIP3   OH273818   1.646   5.258   1.074  0.1155  0.3342 -0.3352
17468TIP3    H173819   1.662   5.164   1.065  0.3220  0.3802 -0.4470
17468TIP3    H273820   1.581   5.264   1.145  0.7509  0.1577  0.2680
17469TIP3   OH273821   6.141   3.199   4.925  0.5614 -0.6090  0.0398
17469TIP3    H173822   6.128   3.112   4.888  2.0235 -0.5332 -0.6900
17469TIP3    H273823   6.225   3.228   4.889 -1.0210  2.0889 -1.6658
17470TIP3   OH273824   2.007   6.459   5.343 -0.0484  0.4970  0.3229
17470TIP3    H173825   1.974   6.512   5.271  1.3189 -0.7530 -1.2460
17470TIP3    H273826   2.099   6.482   5.350 -0.1762  0.6645  1.7488
17471TIP3   OH273827   5.299   1.518   5.689 -0.1724 -0.5939  0.4100
17471TIP3    H173828   5.368   1.491   5.749 -1.0187  0.0116  1.6788
17471TIP3    H273829   5.326   1.483   5.604  1.1265 -1.3103  1.1026
17472TIP3   OH273830   5.122   4.931   5.248  0.0550 -0.1526  0.2678
17472TIP3    H173831   5.176   4.914   5.171 -0.2148 -1.3274  0.3180
17472TIP3    H273832   5.079   4.847   5.265 -0.3109  0.2506  1.3670
17473TIP3   OH273833   2.062   0.482   1.055 -0.0037 -0.0635  0.4281
17473TIP3    H173834   1.995   0.413   1.057  0.3241 -0.4511 -1.1911
17473TIP3    H273835   2.131   0.450   1.113  0.3247 -1.2901 -0.6329
17474TIP3   OH273836   5.401   0.717   5.526  0.3784  0.6971 -0.4047
17474TIP3    H173837   5.475   0.678   5.571  0.4368  2.0737  0.7419
17474TIP3    H273838   5.367   0.648   5.469  2.9187  0.2404 -1.4321
17475TIP3   OH273839   4.871   4.454  14.991 -0.2796  0.2034  0.6878
17475TIP3    H173840   4.821   4.503  14.926 -0.0581 -0.1485  0.2527
17475TIP3    H273841   4.812   4.385  15.020  0.0552 -0.4092 -0.0612
17476TIP3   OH273842   5.719   0.977  13.929  0.4030 -0.1099  0.3716
17476TIP3    H173843   5.672   1.019  14.001  1.0889  0.9184  0.2297
17476TIP3    H273844   5.681   1.015  13.850  0.4408 -0.3967  0.2140
17477TIP3   OH273845   3.738   6.499  13.673 -0.8431 -0.4296  0.2815
17477TIP3    H173846   3.650   6.536  13.678 -0.5955  0.0403  1.4223
17477TIP3    H273847   3.736   6.425  13.734 -0.6537 -0.8687 -0.2369
17478TIP3   OH273848   3.490   5.081   3.174 -0.6184  1.1999 -0.5291
17478TIP3    H173849   3.522   5.106   3.261 -1.8771 -1.3226  0.7186
17478TIP3    H273850   3.561   5.105   3.114 -0.2682  4.1670  1.0233
17479TIP3   OH273851   1.036   3.752   5.046 -0.1741 -0.6454 -0.1441
17479TIP3    H173852   1.005   3.714   4.964 -1.0712 -1.2150  0.4595
17479TIP3    H273853   0.961   3.801   5.080  0.2777 -0.1923  0.2108
17480TIP3   OH273854   4.977   2.606   1.153 -0.7329 -0.2334  0.3245
17480TIP3    H173855   4.958   2.565   1.236 -0.2953  0.9184  1.0095
17480TIP3    H273856   4.988   2.699   1.174 -0.1397 -0.0047 -0.9317
17481TIP3   OH273857   3.239   0.029  14.930 -0.1510 -0.2825  0.2558
17481TIP3    H173858   3.165  -0.007  14.881 -0.5662  0.8140  0.0527
17481TIP3    H273859   3.227   0.124  14.925  0.3082 -0.1304  1.7029
17482TIP3   OH273860   1.194   4.689   0.153 -0.2136 -0.0487 -0.1013
17482TIP3    H173861   1.248   4.639   0.213 -0.6733 -1.2786 -0.6877
17482TIP3    H273862   1.104   4.665   0.176 -0.4596  0.9974  0.0332
17483TIP3   OH273863   5.860   5.295  12.046 -0.0606  0.9639  0.1126
17483TIP3    H173864   5.815   5.229  12.100  1.1695  0.4153  0.4967
17483TIP3    H273865   5.949   5.261  12.037  0.6961  2.7735  0.6417
17484TIP3   OH273866   0.485   2.122  17.236 -0.1796 -0.3854  0.4512
17484TIP3    H173867   0.572   2.123  17.276  0.3944 -1.3820 -0.7290
17484TIP3    H273868   0.493   2.060  17.163 -1.4594  0.6749 -0.6082
17485TIP3   OH273869   3.093   4.827   5.860  0.0117  0.1867  0.1760
17485TIP3    H173870   3.062   4.842   5.771 -0.8575 -1.8665  0.0994
17485TIP3    H273871   3.014   4.823   5.914  0.4529  0.2857  0.8476
17486TIP3   OH273872   2.168   6.375  13.953 -0.1525 -0.0498  0.2904
17486TIP3    H173873   2.243   6.358  13.896 -1.2053 -0.8060 -0.8990
17486TIP3    H273874   2.124   6.290  13.959 -2.4575  0.9718 -1.2858
17487TIP3   OH273875   1.683   1.640   3.068  0.2939  0.1845 -0.5228
17487TIP3    H173876   1.594   1.672   3.059  0.2383 -0.1241 -1.0423
17487TIP3    H273877   1.736   1.720   3.078 -0.1815  0.3160  1.0390
17488TIP3   OH273878   5.248   6.778   3.254  0.0599  0.3248  0.0856
17488TIP3    H173879   5.277   6.869   3.257  2.3309 -0.3513 -0.0486
17488TIP3    H273880   5.279   6.747   3.169  0.7166 -1.0103  0.7976
17489TIP3   OH273881   2.938   5.130  15.216 -0.0654 -0.1243  0.4872
17489TIP3    H173882   3.020   5.179  15.227  0.0239 -0.2618  0.4373
17489TIP3    H273883   2.881   5.164  15.285  0.3685 -0.7106  1.1415
17490TIP3   OH273884   5.463   3.837  14.604 -0.4670  0.3220  0.4464
17490TIP3    H173885   5.516   3.828  14.683 -0.5135 -0.1379  0.4279
17490TIP3    H273886   5.386   3.887  14.632 -0.5093  0.1131  0.7052
17491TIP3   OH273887   0.909   5.336  16.087  0.1771 -0.2501 -0.0933
17491TIP3    H173888   0.907   5.270  16.155 -0.7977 -0.5464 -0.4028
17491TIP3    H273889   0.974   5.304  16.024  0.2663 -0.5297  0.1420
17492TIP3   OH273890   4.138   0.582   1.552 -0.0847  0.0883  0.7938
17492TIP3    H173891   4.199   0.538   1.611  1.4881  2.1317  0.7314
17492TIP3    H273892   4.077   0.513   1.526  0.5857 -1.3812  2.9551
17493TIP3   OH273893   1.860   5.198  13.958  0.1073  0.7195  0.3381
17493TIP3    H173894   1.907   5.272  13.920  0.4363 -0.5055 -1.7386
17493TIP3    H273895   1.790   5.180  13.895  1.9781 -2.7548 -0.8836
17494TIP3   OH273896   1.756   6.736   3.811 -0.2094 -0.1131 -0.1127
17494TIP3    H173897   1.813   6.810   3.833 -0.2823  0.2366 -1.0942
17494TIP3    H273898   1.672   6.757   3.850  0.0358 -0.1293  0.4262
17495TIP3   OH273899   0.897   0.964   0.874 -0.1257  0.5248 -0.0943
17495TIP3    H173900   0.884   0.992   0.964  0.2841  1.0794 -0.1988
17495TIP3    H273901   0.970   0.902   0.878  1.2102  2.0335 -0.2789
17496TIP3   OH273902   0.368   2.971   4.351 -0.2127  0.5869  0.6239
17496TIP3    H173903   0.383   3.064   4.337 -2.3665  1.0177  1.0224
17496TIP3    H273904   0.343   2.937   4.265  0.7505  0.3294  0.4396
17497TIP3   OH273905   0.737   4.731  11.768  0.2029  0.3427 -0.2046
17497TIP3    H173906   0.802   4.800  11.783 -0.9179  1.3367  0.2106
17497TIP3    H273907   0.670   4.773  11.714 -0.4844 -0.4379  0.0358
17498TIP3   OH273908   5.022   1.606   0.195  0.0481 -0.5361 -0.0769
17498TIP3    H173909   4.930   1.628   0.181 -0.3353 -1.3275  1.0791
17498TIP3    H273910   5.020   1.519   0.235  1.2136  0.3199  1.8801
17499TIP3   OH273911   6.755   2.798  12.319 -0.4657  0.3592  0.2431
17499TIP3    H173912   6.677   2.821  12.369 -0.4001  4.9403 -1.5984
17499TIP3    H273913   6.827   2.841  12.365  0.7305 -1.9129  0.5893
17500TIP3   OH273914   0.429   1.151  12.222 -0.1703 -0.1114 -0.0119
17500TIP3    H173915   0.456   1.118  12.307  0.0742  1.8360  0.6835
17500TIP3    H273916   0.389   1.236  12.240 -0.9942 -0.0973 -1.7382
17501TIP3   OH273917   0.867   1.321   2.117  0.0705  0.0796 -0.0507
17501TIP3    H173918   0.804   1.328   2.189 -0.2947 -0.1912 -0.3382
17501TIP3    H273919   0.942   1.371   2.146  0.4781 -1.1664  1.1241
17502TIP3   OH273920   0.699   0.911   5.685  0.1540 -0.4776  0.3994
17502TIP3    H173921   0.716   0.953   5.601 -0.7590  0.1731  0.5371
17502TIP3    H273922   0.681   0.819   5.662  1.3673 -0.6384  0.0319
17503TIP3   OH273923   4.659   0.769  11.961 -0.0798 -0.0992  0.3899
17503TIP3    H173924   4.630   0.776  12.052  0.9476 -4.1024  1.1182
17503TIP3    H273925   4.636   0.680  11.935  0.8423  0.5400 -2.8450
17504TIP3   OH273926   2.909   3.503  13.396  0.5598 -0.4919  0.6017
17504TIP3    H173927   2.918   3.436  13.329 -1.3246 -0.3189  0.1560
17504TIP3    H273928   2.852   3.569  13.357 -0.4043 -0.2901  2.2777
17505TIP3   OH273929   0.870   4.273   1.266 -0.4692 -0.4842 -0.1130
17505TIP3    H173930   0.851   4.300   1.177 -0.0815 -0.5096 -0.2071
17505TIP3    H273931   0.937   4.205   1.256 -1.7540 -1.7900  0.0888
17506TIP3   OH273932   3.711   1.892   2.702 -0.3386 -0.4551  0.5583
17506TIP3    H173933   3.717   1.966   2.763  0.6306 -1.7185  2.0383
17506TIP3    H273934   3.664   1.927   2.626 -0.8749  1.3696  1.6995
17507TIP3   OH273935   5.737   0.136  12.004 -0.6187  0.2925 -0.3453
17507TIP3    H173936   5.699   0.211  11.958  0.1664  1.7346  1.2901
17507TIP3    H273937   5.676   0.064  11.987 -1.4722  1.3391 -1.8215
17508TIP3   OH273938   5.135   1.288  13.068  0.1031 -0.1848 -0.3914
17508TIP3    H173939   5.119   1.341  12.991  0.2186  0.1297 -0.2008
17508TIP3    H273940   5.051   1.285  13.114  0.4576  1.0861  0.3705
17509TIP3   OH273941   1.150   5.327   1.345  0.3371 -0.5403  0.4613
17509TIP3    H173942   1.196   5.247   1.372  0.4411 -0.9414 -0.8808
17509TIP3    H273943   1.169   5.390   1.414  0.0491 -1.7548  1.6731
17510TIP3   OH273944   3.837   5.142  13.079  0.3900 -0.0397  0.0588
17510TIP3    H173945   3.861   5.067  13.023 -2.8254  0.4476 -2.1248
17510TIP3    H273946   3.887   5.215  13.043 -0.9638  0.0724 -1.6438
17511TIP3   OH273947   0.966   1.491   5.092  0.0596  0.5431  0.2306
17511TIP3    H173948   1.019   1.540   5.156  1.8340 -0.1915 -0.6392
17511TIP3    H273949   1.012   1.504   5.009  1.2622 -3.5977  0.1812
17512TIP3   OH273950   0.494   4.462  13.061  0.1357  0.1639 -0.3798
17512TIP3    H173951   0.533   4.430  12.980  1.3789  0.5695  0.0513
17512TIP3    H273952   0.527   4.402  13.128  1.7829  1.8045  0.3094
17513TIP3   OH273953   3.363   0.282   0.372 -0.0140 -0.0729 -0.3111
17513TIP3    H173954   3.363   0.186   0.373 -1.4893 -0.0746  0.1570
17513TIP3    H273955   3.279   0.306   0.333  0.0970  1.0307  0.1078
17514TIP3   OH273956   3.604   4.088  15.057  0.1926  0.0402  0.4626
17514TIP3    H173957   3.548   4.084  15.135 -0.9182  2.0901 -0.1931
17514TIP3    H273958   3.571   4.019  15.000 -0.4618  0.0174  0.8591
17515TIP3   OH273959   2.120   5.737   0.088 -0.6035  0.0842 -0.2074
17515TIP3    H173960   2.108   5.759  -0.004  0.3255  0.0537 -0.3307
17515TIP3    H273961   2.178   5.661   0.088  0.4038  0.8416  0.4544
17516TIP3   OH273962   6.542   6.296  15.498  0.1239 -0.3267  0.0046
17516TIP3    H173963   6.455   6.337  15.496  0.0806 -0.4486 -2.7825
17516TIP3    H273964   6.576   6.317  15.585 -2.4106  0.3079  0.9005
17517TIP3   OH273965   4.584   5.543  10.895 -0.4264 -0.3883  1.0625
17517TIP3    H173966   4.672   5.562  10.927  0.3101  0.4274 -1.2805
17517TIP3    H273967   4.541   5.628  10.890 -0.6400 -0.5327  0.2794
17518TIP3   OH273968   4.620   3.061  16.724 -0.1433 -0.4675 -0.3604
17518TIP3    H173969   4.619   3.005  16.801  0.1226 -0.3261 -0.2540
17518TIP3    H273970   4.712   3.062  16.696 -0.1322 -0.0317 -0.3211
17519TIP3   OH273971   5.106   4.242  15.809 -0.3043 -0.3710  0.1368
17519TIP3    H173972   5.079   4.315  15.864 -0.6712 -0.0517 -0.4688
17519TIP3    H273973   5.057   4.253  15.728  0.0350 -0.9906 -0.1587
17520TIP3   OH273974   2.267   3.882   2.763  0.3730  0.0681 -0.1330
17520TIP3    H173975   2.186   3.850   2.803 -0.3575 -1.2898 -2.5130
17520TIP3    H273976   2.337   3.833   2.807 -0.3013 -0.4194  0.4038
17521TIP3   OH273977   3.993   4.723   3.020  0.3820  0.5717  0.2369
17521TIP3    H173978   3.929   4.794   3.018  2.1537  2.2136 -0.3520
17521TIP3    H273979   4.069   4.758   2.973  2.2847 -0.7497  2.2060
17522TIP3   OH273980   6.455   0.940   1.403 -0.3076 -0.0309  0.0263
17522TIP3    H173981   6.483   1.000   1.472 -0.5419  1.1028 -0.8632
17522TIP3    H273982   6.508   0.964   1.327 -1.0959 -0.3027 -0.6121
17523TIP3   OH273983   4.704   0.087   5.530  0.1332  0.4864 -0.2911
17523TIP3    H173984   4.628   0.066   5.584  0.0114  0.0277 -0.6272
17523TIP3    H273985   4.766   0.016   5.548  0.8160  1.3165  0.6121
17524TIP3   OH273986   3.219   0.416   3.251 -0.4672 -0.1805  0.2360
17524TIP3    H173987   3.137   0.427   3.299 -0.9808  0.2399 -0.7252
17524TIP3    H273988   3.209   0.470   3.173  0.5134 -0.5461 -0.1543
17525TIP3   OH273989   6.381   5.645  17.122 -0.5494 -0.1221  0.4800
17525TIP3    H173990   6.438   5.640  17.199 -0.9067  1.6770  0.8805
17525TIP3    H273991   6.302   5.597  17.148 -0.9689  1.1014  1.5383
17526TIP3   OH273992   2.821   4.461   0.064 -0.2094  0.1599 -0.2401
17526TIP3    H173993   2.890   4.439   0.001 -1.2397 -0.3952 -1.1967
17526TIP3    H273994   2.863   4.522   0.125  0.8853  0.4922 -1.2997
17527TIP3   OH273995   3.939   2.714  11.636 -0.2759 -0.4824  0.1235
17527TIP3    H173996   3.910   2.662  11.711 -2.8280 -1.4927 -1.4994
17527TIP3    H273997   3.996   2.655  11.587 -0.9547 -0.8228 -0.2617
17528TIP3   OH273998   4.172   0.411   6.367 -0.0197  0.0918 -0.0143
17528TIP3    H173999   4.245   0.470   6.355 -0.7584  1.2623  1.0855
17528TIP3    H274000   4.209   0.335   6.413  0.9427 -0.3506 -1.5050
17529TIP3   OH274001   4.001   0.507   5.589 -0.2438 -0.0252 -0.1881
17529TIP3    H174002   4.034   0.542   5.671  0.1815  2.3180 -1.3111
17529TIP3    H274003   4.076   0.462   5.550 -0.3028 -0.6816  0.4492
17530TIP3   OH274004   3.201   4.747  14.365  0.5268 -0.3060  0.8715
17530TIP3    H174005   3.126   4.728  14.421 -1.1238 -0.9091 -1.4766
17530TIP3    H274006   3.241   4.662  14.348  0.1431 -0.3087 -0.0459
17531TIP3   OH274007   2.143   0.530  17.155  0.4002  0.4296  0.2110
17531TIP3    H174008   2.106   0.618  17.156  1.1863  0.7637  0.6423
17531TIP3    H274009   2.117   0.491  17.238 -1.3582 -0.3497 -0.6910
17532TIP3   OH274010   4.118   3.003  15.200 -0.4824 -0.1924  0.0048
17532TIP3    H174011   4.054   2.952  15.152  0.1085 -0.3881 -0.5761
17532TIP3    H274012   4.089   3.094  15.190  0.3683 -0.1002 -1.8584
17533TIP3   OH274013   1.946   3.860  15.501  0.1036  0.2307 -0.0568
17533TIP3    H174014   2.004   3.888  15.430  0.0256 -1.8518 -0.9901
17533TIP3    H274015   1.858   3.871  15.466  0.0156  0.5255  0.2508
17534TIP3   OH274016   4.359   2.177  13.055 -0.4135 -0.2355 -0.0490
17534TIP3    H174017   4.280   2.127  13.077 -0.3012 -0.8761 -1.0718
17534TIP3    H274018   4.329   2.268  13.052 -0.7087 -0.2720  1.4179
17535TIP3   OH274019   3.756   3.358   3.928 -0.1863 -0.2845 -0.0038
17535TIP3    H174020   3.809   3.361   3.849  1.2040  0.3301  0.9240
17535TIP3    H274021   3.789   3.430   3.982 -1.0664 -0.7352  1.1569
17536TIP3   OH274022   0.101   3.435   0.814  0.0142 -0.6350 -0.1711
17536TIP3    H174023   0.018   3.482   0.812  0.6660  0.5249 -3.1160
17536TIP3    H274024   0.082   3.353   0.859 -1.8489  1.1656  2.3971
17537TIP3   OH274025   3.708   0.511   0.340 -0.2642  0.7282 -0.0714
17537TIP3    H174026   3.723   0.594   0.295 -0.7968  1.5003  1.1588
17537TIP3    H274027   3.796   0.475   0.354 -0.0011  1.3344 -0.1452
17538TIP3   OH274028   1.987   6.493   2.947  0.0908  0.6492 -0.1943
17538TIP3    H174029   1.946   6.456   3.025  0.6565 -0.9727 -0.6414
17538TIP3    H274030   1.926   6.473   2.876  1.1069 -0.8470 -0.6872
17539TIP3   OH274031   3.592   1.812   5.998 -0.2721 -0.0029 -0.0715
17539TIP3    H174032   3.640   1.729   6.003  0.4574  0.4149  0.0802
17539TIP3    H274033   3.594   1.835   5.905  0.6397  0.4722  0.0579
17540TIP3   OH274034   2.691   3.677  14.760  0.1942 -0.2889 -0.1635
17540TIP3    H174035   2.672   3.594  14.804 -1.1097 -0.2429 -0.6206
17540TIP3    H274036   2.665   3.663  14.669  0.1147  0.5651 -0.2764
17541TIP3   OH274037   3.894   5.170   1.866 -0.2131  0.0905  0.2497
17541TIP3    H174038   3.885   5.114   1.943 -0.7000 -1.6160 -1.0163
17541TIP3    H274039   3.809   5.212   1.856 -0.5867 -0.7307 -0.1177
17542TIP3   OH274040   5.271   5.741  10.686  0.2800 -0.4606  0.2229
17542TIP3    H174041   5.281   5.796  10.764  0.3631 -1.7252  1.1103
17542TIP3    H274042   5.183   5.705  10.692  0.9868 -2.1612  0.8014
17543TIP3   OH274043   5.079   6.103  16.078 -0.4220 -0.2375  0.3782
17543TIP3    H174044   5.082   6.143  15.991 -0.6529 -0.4180  0.2843
17543TIP3    H274045   5.099   6.011  16.062 -2.1029 -0.6075  0.2888
17544TIP3   OH274046   6.521   5.874  13.445  0.0379 -0.2249  0.2279
17544TIP3    H174047   6.427   5.855  13.442 -0.2037  1.2365 -2.4588
17544TIP3    H274048   6.533   5.946  13.383  3.2948 -1.8506 -1.1025
17545TIP3   OH274049   4.683   4.748   3.290 -0.0319 -0.0739 -0.0689
17545TIP3    H174050   4.693   4.716   3.201 -0.6601 -2.8677  0.8018
17545TIP3    H274051   4.589   4.743   3.307  0.1412 -0.0920  0.9394
17546TIP3   OH274052   1.974   4.859   5.453 -0.3995  0.2085  0.7712
17546TIP3    H174053   2.021   4.815   5.524 -2.0606  1.3143  2.6059
17546TIP3    H274054   1.983   4.952   5.471 -0.6097  0.5206 -0.6384
17547TIP3   OH274055   5.520   5.772  15.435 -0.2695 -0.4714 -0.3341
17547TIP3    H174056   5.447   5.778  15.497 -0.7939 -1.1447 -0.8774
17547TIP3    H274057   5.571   5.698  15.467  0.1016 -0.0844 -0.0315
17548TIP3   OH274058   4.646   6.464   2.259  0.0101 -0.1395  0.1534
17548TIP3    H174059   4.696   6.387   2.232 -0.6189 -0.4169 -0.2227
17548TIP3    H274060   4.556   6.445   2.233 -0.2069  0.5787  0.3651
17549TIP3   OH274061   0.573   5.717  12.212 -0.8829  0.0669  0.2598
17549TIP3    H174062   0.583   5.662  12.290  0.6084  1.2424  0.9262
17549TIP3    H274063   0.649   5.695  12.157 -0.9137  0.5888  0.0045
17550TIP3   OH274064   4.076   5.819  12.308  0.2723 -0.7168 -0.4353
17550TIP3    H174065   3.997   5.765  12.311  0.2052 -0.5486  1.2395
17550TIP3    H274066   4.098   5.835  12.400  1.8944 -0.2278 -0.8930
17551TIP3   OH274067   6.373   2.873  13.337  0.1514  0.0465  0.2555
17551TIP3    H174068   6.337   2.850  13.423 -1.8396  1.2337 -0.2294
17551TIP3    H274069   6.435   2.944  13.355 -0.9445  0.9247  0.6265
17552TIP3   OH274070   0.393   5.590  16.308 -0.2753  0.2915 -0.1536
17552TIP3    H174071   0.423   5.500  16.300  1.8078  1.0303 -1.0532
17552TIP3    H274072   0.422   5.618  16.395  0.3558  0.5268 -0.4341
17553TIP3   OH274073   1.543   1.127  11.509 -0.1980 -0.3343  0.0457
17553TIP3    H174074   1.610   1.079  11.558  0.7067 -0.7282 -1.5548
17553TIP3    H274075   1.533   1.209  11.558  0.1042 -1.0467  1.3431
17554TIP3   OH274076   3.826   6.224  10.449 -0.1417  0.3762  0.2362
17554TIP3    H174077   3.851   6.155  10.510 -1.1736 -0.1789  0.0419
17554TIP3    H274078   3.749   6.190  10.404 -1.1073  1.9524  0.6541
17555TIP3   OH274079   6.526   1.120  12.269  0.3652  0.3859  0.5231
17555TIP3    H174080   6.516   1.201  12.218 -0.3098 -0.6166 -0.9505
17555TIP3    H274081   6.618   1.120  12.296  0.2526  1.8861  0.9611
17556TIP3   OH274082   1.751   5.420   2.913 -0.2477  0.2737 -0.1857
17556TIP3    H174083   1.731   5.417   2.820  2.3588  1.6631 -0.8466
17556TIP3    H274084   1.803   5.342   2.930  1.0001  1.0442 -0.3690
17557TIP3   OH274085   1.705   3.258  15.007  0.1199 -0.3126  0.0164
17557TIP3    H174086   1.780   3.250  14.948 -1.1154 -0.6019 -1.5424
17557TIP3    H274087   1.630   3.225  14.956 -1.4807  2.0520  0.7470
17558TIP3   OH274088   1.869   0.838  12.445  0.3697 -0.5107  0.1230
17558TIP3    H174089   1.917   0.909  12.402  0.9950 -1.0361 -0.0441
17558TIP3    H274090   1.936   0.786  12.489 -0.0339 -1.3087 -0.1958
17559TIP3   OH274091   3.397   6.338   0.825  0.0727  1.0901  0.2752
17559TIP3    H174092   3.359   6.315   0.910 -0.4669  0.6953 -0.0717
17559TIP3    H274093   3.489   6.311   0.832 -0.2709 -0.1358  0.2823
17560TIP3   OH274094   4.226   3.216  13.668 -0.0074  0.2280 -0.7977
17560TIP3    H174095   4.265   3.191  13.752 -0.4514  0.9604 -0.3765
17560TIP3    H274096   4.180   3.137  13.639  0.1005 -0.0119 -0.3285
17561TIP3   OH274097   4.209   2.419   6.460 -0.1956  0.2345 -0.1031
17561TIP3    H174098   4.184   2.333   6.425 -1.1304  0.0213  1.0722
17561TIP3    H274099   4.129   2.454   6.500  1.0289  0.0316  2.6835
17562TIP3   OH274100   6.320   2.215   1.788 -0.2017 -0.2678  0.1272
17562TIP3    H174101   6.334   2.242   1.697 -2.4652  2.2042  0.4707
17562TIP3    H274102   6.362   2.282   1.841 -2.7531  0.7816  0.9304
17563TIP3   OH274103   6.252   2.663  15.996  0.1520  0.0151 -0.0140
17563TIP3    H174104   6.293   2.689  15.913  0.0325  0.6343  0.1147
17563TIP3    H274105   6.226   2.572  15.983 -2.4937  0.9289 -1.7390
17564TIP3   OH274106   5.462   3.027  14.600 -0.7683 -0.2971 -0.3074
17564TIP3    H174107   5.399   2.999  14.534  0.7697 -1.2557 -1.3956
17564TIP3    H274108   5.409   3.043  14.678 -2.8735  2.8781 -2.3172
17565TIP3   OH274109   4.846   4.373   1.468 -0.3675 -0.1520  0.1026
17565TIP3    H174110   4.860   4.339   1.557  1.1961 -0.4019 -0.2211
17565TIP3    H274111   4.926   4.422   1.449 -0.6055 -0.2721 -1.2487
17566TIP3   OH274112   2.543   3.929   5.549 -0.1917  0.6282  0.3704
17566TIP3    H174113   2.623   3.918   5.499  1.3855  1.9118  2.5328
17566TIP3    H274114   2.509   3.841   5.560  1.2460  0.0097 -0.0333
17567TIP3   OH274115   3.096   3.415   4.222 -0.1646  0.5314  0.4549
17567TIP3    H174116   3.179   3.412   4.173 -0.3166  0.7584  0.1800
17567TIP3    H274117   3.092   3.331   4.268  1.0300  1.1881  1.7957
17568TIP3   OH274118   6.552   3.001   2.725  0.0163  0.0009 -0.2233
17568TIP3    H174119   6.503   3.081   2.702  0.2522  0.5225  1.0307
17568TIP3    H274120   6.641   3.019   2.696  0.9059  1.7040  3.2289
17569TIP3   OH274121   0.804   0.820   0.325  0.4763  0.8287  0.2672
17569TIP3    H174122   0.805   0.895   0.266  0.0306  1.1878  0.7158
17569TIP3    H274123   0.756   0.850   0.402 -0.1104 -0.0580  0.2575
17570TIP3   OH274124   3.254   2.404   5.241  0.4481  0.2032 -0.0465
17570TIP3    H174125   3.181   2.462   5.265 -0.1441 -0.3099 -0.6303
17570TIP3    H274126   3.331   2.447   5.279 -0.2669  0.2882  1.3396
17571TIP3   OH274127   3.049   2.873   3.207 -0.1156 -0.6325  0.2974
17571TIP3    H174128   3.008   2.794   3.172 -0.0548 -0.6822  0.3401
17571TIP3    H274129   2.982   2.912   3.263 -0.3635 -0.3300 -0.2052
17572TIP3   OH274130   2.967   5.262   5.820 -0.3518 -0.2307  0.0511
17572TIP3    H174131   2.936   5.272   5.910 -1.3814  0.7595 -0.3937
17572TIP3    H274132   2.983   5.352   5.790  0.3927 -0.5792 -0.6190
17573TIP3   OH274133   0.898   5.753   2.152 -0.2746 -0.6997  0.8272
17573TIP3    H174134   0.878   5.744   2.245 -2.0477 -0.0229  0.5361
17573TIP3    H274135   0.946   5.674   2.129 -0.5329 -1.2407  2.1419
17574TIP3   OH274136   2.357   0.578  11.886  1.1978 -0.0219 -1.2836
17574TIP3    H174137   2.374   0.600  11.978 -0.7269 -2.1181 -0.3574
17574TIP3    H274138   2.310   0.653  11.851 -0.6610 -0.3920  0.3118
17575TIP3   OH274139   5.304   2.558  11.140  0.3709 -0.3326 -0.0647
17575TIP3    H174140   5.325   2.487  11.079 -0.0136  0.2439 -0.8739
17575TIP3    H274141   5.242   2.613  11.092  0.7717  0.6277  0.4998
17576TIP3   OH274142   4.680   5.023   3.680  0.3683 -0.0221  0.2367
17576TIP3    H174143   4.754   5.080   3.658  0.0364  0.6675  0.8856
17576TIP3    H274144   4.609   5.055   3.625  0.0251  0.5735  1.0061
17577TIP3   OH274145   0.254   6.387   5.805  0.1087 -0.6689 -0.2287
17577TIP3    H174146   0.211   6.352   5.883  0.4021  0.7500  0.5936
17577TIP3    H274147   0.215   6.339   5.732 -2.0458 -0.2316  0.5923
17578TIP3   OH274148   4.318   1.343   4.355 -0.5835 -0.1405  0.1932
17578TIP3    H174149   4.236   1.380   4.386  0.3114  0.7508  1.5569
17578TIP3    H274150   4.386   1.401   4.390  0.5866 -0.2683 -1.7806
17579TIP3   OH274151   2.689   6.767   2.374  0.2574  0.7622 -0.5595
17579TIP3    H174152   2.725   6.704   2.436 -2.4366  2.0590  2.4400
17579TIP3    H274153   2.765   6.796   2.323  2.1931 -1.7972  0.7468
17580TIP3   OH274154   2.209   1.325   5.768 -0.6966  0.1680  0.2679
17580TIP3    H174155   2.139   1.380   5.732 -1.1978 -0.3094  0.5065
17580TIP3    H274156   2.276   1.388   5.796 -1.2911  0.6666  0.5932
17581TIP3   OH274157   4.271   2.956  12.466  0.2512  0.3596  0.0181
17581TIP3    H174158   4.326   2.882  12.438  0.9530  0.5578  0.8490
17581TIP3    H274159   4.222   2.980  12.387  0.5931 -0.4901 -0.4663
17582TIP3   OH274160   2.287   4.838  12.441  0.0558  0.5943  0.0887
17582TIP3    H174161   2.382   4.823  12.435 -0.1530 -0.8986  0.2313
17582TIP3    H274162   2.266   4.816  12.532 -0.3890  1.2191  0.1380
17583TIP3   OH274163   2.176   2.291   0.363 -0.5299  0.6358 -0.2680
17583TIP3    H174164   2.181   2.324   0.452 -0.6614 -0.4234  0.1329
17583TIP3    H274165   2.088   2.313   0.334 -0.5477  0.8188 -0.0750
17584TIP3   OH274166   5.969   2.529  16.776 -0.0075  0.0346  0.3235
17584TIP3    H174167   5.945   2.453  16.829 -0.1366  0.3826  0.7683
17584TIP3    H274168   5.927   2.514  16.691  0.5202 -0.7146  0.1899
17585TIP3   OH274169   2.867   5.431  17.216  0.5782  0.0658  0.2216
17585TIP3    H174170   2.802   5.380  17.264 -0.0958 -1.6771 -2.4034
17585TIP3    H274171   2.949   5.385  17.229  0.2783 -0.7666 -0.7844
17586TIP3   OH274172   0.424   0.210  15.351 -0.4963 -0.2377 -0.0877
17586TIP3    H174173   0.440   0.211  15.445  1.1372 -0.3604 -0.3588
17586TIP3    H274174   0.339   0.254  15.341 -0.7049 -0.2740  1.4364
17587TIP3   OH274175   0.200   2.580   2.911  0.3482 -0.3982 -0.1144
17587TIP3    H174176   0.219   2.674   2.922  1.3897 -0.5179 -0.8409
17587TIP3    H274177   0.265   2.537   2.966  0.3906 -0.7328 -0.4332
17588TIP3   OH274178   1.895   3.222   0.404 -0.2603 -0.3097 -0.1060
17588TIP3    H174179   1.857   3.203   0.319  1.0339 -0.9452 -0.5689
17588TIP3    H274180   1.941   3.305   0.392 -1.6761  0.5849  0.5181
17589TIP3   OH274181   3.443   4.505   5.767 -0.2615 -0.2762 -0.1802
17589TIP3    H174182   3.350   4.495   5.789 -0.4061  0.5898 -0.3597
17589TIP3    H274183   3.446   4.585   5.715  0.6198 -0.1841  0.0117
17590TIP3   OH274184   2.759   1.229  14.298 -0.6715 -0.4749  0.1397
17590TIP3    H174185   2.748   1.142  14.336  0.7096 -0.8473 -0.2797
17590TIP3    H274186   2.684   1.239  14.239 -1.0065 -1.2538  0.4284
17591TIP3   OH274187   2.939   0.691  11.174 -0.1929  0.5213  0.0792
17591TIP3    H174188   2.940   0.742  11.093 -1.6248 -0.2322 -0.4199
17591TIP3    H274189   2.933   0.600  11.145  1.5527  0.1002  0.9837
17592TIP3   OH274190   3.177   6.623  16.564 -0.8305 -0.3715 -0.0326
17592TIP3    H174191   3.092   6.639  16.605 -1.5728  0.1811 -1.7293
17592TIP3    H274192   3.169   6.536  16.525  0.0632 -1.1320  1.3948
17593TIP3   OH274193   3.854   1.020   2.610 -0.2091  0.8012 -0.6772
17593TIP3    H174194   3.912   0.948   2.634 -1.6229 -0.0397  0.3306
17593TIP3    H274195   3.894   1.098   2.650 -0.2274  0.0981  0.7362
17594TIP3   OH274196   2.965   2.717  13.589  0.6768  0.4113 -0.0723
17594TIP3    H174197   3.053   2.725  13.552  0.9087  1.3524  0.6829
17594TIP3    H274198   2.979   2.677  13.675  0.1402 -1.7303 -0.9338
17595TIP3   OH274199   0.215   2.269   4.302  0.5058  0.1926 -0.0964
17595TIP3    H174200   0.221   2.178   4.271  0.4893  0.2229 -0.1895
17595TIP3    H274201   0.172   2.315   4.230 -2.5367 -0.3577  1.3048
17596TIP3   OH274202   2.314   3.931   4.890  0.3392  0.2368 -0.2664
17596TIP3    H174203   2.239   3.876   4.866 -1.0328  0.9428  2.2200
17596TIP3    H274204   2.387   3.870   4.897 -0.7952 -1.0350  0.7765
17597TIP3   OH274205   4.484   3.682  13.023  0.5108  0.3077 -0.0207
17597TIP3    H174206   4.566   3.633  13.014 -0.6157 -1.4710 -0.9622
17597TIP3    H274207   4.463   3.677  13.116  0.7668 -0.3734  0.0015
17598TIP3   OH274208   2.630   0.719  11.684 -0.1847 -0.4970  0.1262
17598TIP3    H174209   2.630   0.814  11.675  1.6115 -0.4910  0.0042
17598TIP3    H274210   2.630   0.703  11.779 -0.9974 -0.4003  0.1507
17599TIP3   OH274211   0.370   4.128   2.397  0.5877  0.4564  0.3338
17599TIP3    H174212   0.390   4.043   2.358 -1.9051  0.9352 -2.1538
17599TIP3    H274213   0.381   4.190   2.326 -0.6269  1.8327  1.3174
17600TIP3   OH274214   6.733   4.243   2.070  0.0929 -0.7487  1.2374
17600TIP3    H174215   6.714   4.151   2.088  1.3678 -0.9309  1.6883
17600TIP3    H274216   6.810   4.240   2.012 -0.2210  0.0122  0.7796
17601TIP3   OH274217   6.407   1.940  13.801 -0.1126  0.2648  0.3033
17601TIP3    H174218   6.329   1.969  13.848  0.7697  3.1834  0.0621
17601TIP3    H274219   6.386   1.954  13.708 -0.0951 -1.0096  0.0997
17602TIP3   OH274220   6.503   3.533   5.705 -0.3870  0.2520 -0.1373
17602TIP3    H174221   6.422   3.532   5.756  0.7062  3.1986  1.8068
17602TIP3    H274222   6.474   3.538   5.614 -2.3690 -3.5996  0.1775
17603TIP3   OH274223   6.594   5.524  11.217 -0.6995  0.0835 -0.0150
17603TIP3    H174224   6.612   5.463  11.145 -0.8063 -1.9462  1.6447
17603TIP3    H274225   6.532   5.587  11.180  0.3139 -0.0970 -2.1073
17604TIP3   OH274226   3.423   1.722  12.485 -0.3489 -0.6780 -0.0212
17604TIP3    H174227   3.417   1.762  12.572 -0.3471  0.7593 -0.6785
17604TIP3    H274228   3.404   1.793  12.424  2.3970 -0.9990 -1.3223
17605TIP3   OH274229   5.529   3.076   1.474 -0.3391 -0.1863  0.7659
17605TIP3    H174230   5.565   3.046   1.390  3.4770 -0.2942  2.3228
17605TIP3    H274231   5.520   2.996   1.526 -2.3222 -0.0785  0.6037
17606TIP3   OH274232   1.891   5.162   2.897  0.5480  0.3037 -0.3706
17606TIP3    H174233   1.919   5.113   2.974 -1.6727  1.9506  1.5477
17606TIP3    H274234   1.957   5.230   2.886  0.8772  0.0489  0.0336
17607TIP3   OH274235   3.689   3.176  15.911  0.0925  0.0517  0.0840
17607TIP3    H174236   3.753   3.109  15.887 -0.1622  0.5505 -2.0370
17607TIP3    H274237   3.615   3.127  15.948 -0.0003 -0.8206 -1.2522
17608TIP3   OH274238   4.419   1.575   5.720 -0.3294  0.3520 -0.1016
17608TIP3    H174239   4.358   1.648   5.730 -1.0295 -0.1057 -0.9876
17608TIP3    H274240   4.395   1.514   5.789 -0.9895  0.1006 -0.5473
17609TIP3   OH274241   4.704   0.099   5.025  0.3490  0.2608  0.1328
17609TIP3    H174242   4.765   0.116   5.096  1.0105 -0.7593 -0.1730
17609TIP3    H274243   4.642   0.035   5.061  2.0311 -2.0129 -0.8816
17610TIP3   OH274244   2.437   6.204   5.273 -0.4030  0.3812 -0.1468
17610TIP3    H174245   2.448   6.295   5.243 -1.0429  0.4910 -0.0481
17610TIP3    H274246   2.380   6.164   5.208  0.8687 -0.3032 -0.8584
17611TIP3   OH274247   3.026   3.737  15.683  0.0516 -0.2114 -0.6503
17611TIP3    H174248   2.976   3.732  15.764 -0.2908  0.3884 -0.8212
17611TIP3    H274249   3.117   3.733  15.711 -0.0898 -2.4426 -0.4215
17612TIP3   OH274250   2.841   6.433  15.428 -0.2991  0.4489  0.0604
17612TIP3    H174251   2.933   6.413  15.414 -0.4702 -0.4354  0.1559
17612TIP3    H274252   2.820   6.392  15.512 -1.1524 -0.5976 -0.6602
17613TIP3   OH274253   2.450   4.686  10.967  0.0905 -0.1630 -0.2524
17613TIP3    H174254   2.386   4.689  10.895  0.6541  0.7930 -0.7265
17613TIP3    H274255   2.445   4.773  11.007  1.2106 -0.0259 -0.3983
17614TIP3   OH274256   6.320   3.678   3.274  0.0395  0.3683  0.1857
17614TIP3    H174257   6.289   3.720   3.193  0.1100  0.1217  0.0298
17614TIP3    H274258   6.240   3.643   3.314  0.3349 -2.1040 -1.2645
17615TIP3   OH274259   6.717   0.161   5.482  0.4353 -0.5499  0.0983
17615TIP3    H174260   6.651   0.103   5.519  0.4067 -0.0566  0.8241
17615TIP3    H274261   6.766   0.194   5.557 -1.8898  3.2276  0.0848
17616TIP3   OH274262   2.106   0.571   6.125  0.4727 -0.0207  0.3201
17616TIP3    H174263   2.166   0.512   6.170 -0.4869 -1.5180 -0.3385
17616TIP3    H274264   2.162   0.633   6.079  1.4832 -0.3006  1.1607
17617TIP3   OH274265   4.299   1.162  13.604 -0.1814  0.3375  0.0586
17617TIP3    H174266   4.334   1.212  13.678 -0.5860 -0.2110  0.6401
17617TIP3    H274267   4.252   1.226  13.551  2.7985  1.3194 -1.4530
17618TIP3   OH274268   1.352   1.413   0.253  0.0800 -0.2478  0.2913
17618TIP3    H174269   1.400   1.412   0.335  0.6689  2.2993  0.0242
17618TIP3    H274270   1.260   1.401   0.278  0.0951  1.9292  1.4787
17619TIP3   OH274271   6.023   4.291  17.166  0.1749  0.5898 -0.3762
17619TIP3    H174272   5.936   4.279  17.129  0.2644  0.8257 -0.6761
17619TIP3    H274273   6.071   4.211  17.142  0.3815  0.9516 -1.2218
17620TIP3   OH274274   0.873   3.296   5.273 -0.2864  0.0536 -0.1908
17620TIP3    H174275   0.928   3.245   5.332  1.6540 -0.3461 -2.2671
17620TIP3    H274276   0.914   3.382   5.271 -1.9964  0.9288  1.2141
17621TIP3   OH274277   6.027   4.796  13.444  0.4077  0.1327 -0.3682
17621TIP3    H174278   5.980   4.879  13.446 -1.2301 -0.7813 -0.3509
17621TIP3    H274279   6.000   4.750  13.524  0.0724 -1.0692 -1.1475
17622TIP3   OH274280   0.811   2.179   0.965  0.4302 -0.2220  0.1342
17622TIP3    H174281   0.791   2.142   0.879  1.9828 -0.5073 -0.1156
17622TIP3    H274282   0.895   2.139   0.989  2.7565  3.9215 -0.6174
17623TIP3   OH274283   0.532   5.974  12.237 -0.1321  0.0638 -1.0475
17623TIP3    H174284   0.534   5.880  12.218 -2.2904 -0.8991  3.0112
17623TIP3    H274285   0.440   5.994  12.253  0.6127  2.3781  0.5105
17624TIP3   OH274286   4.110   4.587  13.960  0.1392  0.2192  0.1000
17624TIP3    H174287   4.154   4.504  13.944  2.4121  1.3060  0.4747
17624TIP3    H274288   4.138   4.643  13.888 -0.5152  0.9737  0.4317
17625TIP3   OH274289   0.768   4.258  12.664 -0.5472  0.0865  0.3965
17625TIP3    H174290   0.789   4.165  12.674  1.0564  0.5655  1.5834
17625TIP3    H274291   0.737   4.265  12.574  0.0986 -1.4540  0.0330
17626TIP3   OH274292   6.691   0.345  14.506 -0.4128 -0.2362 -0.0218
17626TIP3    H174293   6.601   0.349  14.476 -0.8297  0.0337  1.2451
17626TIP3    H274294   6.714   0.435  14.529  0.2494 -0.2676 -0.5280
17627TIP3   OH274295   4.725   5.158   5.480  0.2707 -0.4055 -0.0255
17627TIP3    H174296   4.734   5.250   5.456  1.6664 -0.6891 -0.6605
17627TIP3    H274297   4.785   5.112   5.421 -1.6050 -1.9063 -0.8456
17628TIP3   OH274298   4.308   1.131   0.549 -0.3830  0.4501 -0.3282
17628TIP3    H174299   4.233   1.154   0.494  0.9661  1.7620 -1.7054
17628TIP3    H274300   4.372   1.095   0.487  0.3958  0.0366  0.7097
17629TIP3   OH274301   6.567   5.835   5.358 -0.5791 -0.4388  0.3759
17629TIP3    H174302   6.591   5.918   5.317  1.4040 -1.0894  0.1865
17629TIP3    H274303   6.573   5.853   5.452  1.3679 -0.7795  0.3330
17630TIP3   OH274304   5.142   3.340  16.916  0.2390 -0.2610  0.8176
17630TIP3    H174305   5.182   3.362  16.832  0.7785  0.8450  1.3613
17630TIP3    H274306   5.216   3.318  16.973 -0.1504 -1.4020  0.9009
17631TIP3   OH274307   0.892   2.185   5.758 -0.2563 -0.1352 -0.6609
17631TIP3    H174308   0.933   2.249   5.815  0.6222 -0.6461 -0.7116
17631TIP3    H274309   0.867   2.113   5.817 -0.6843 -0.0164 -0.6967
17632TIP3   OH274310   4.314   0.279   4.257 -0.6871 -0.0008 -0.0211
17632TIP3    H174311   4.287   0.194   4.294 -0.7675 -0.0884 -0.2775
17632TIP3    H274312   4.265   0.285   4.175 -0.1271 -0.0375 -0.3560
17633TIP3   OH274313   3.574   2.893  15.952  0.4250  0.3851  0.1124
17633TIP3    H174314   3.644   2.887  16.018  0.3668  1.2637  0.2693
17633TIP3    H274315   3.546   2.803  15.939  1.6661  0.0059 -0.0266
17634TIP3   OH274316   3.030   6.255   4.803  0.2219 -0.0448  0.4610
17634TIP3    H174317   2.950   6.208   4.825  0.7721 -0.7907  0.8696
17634TIP3    H274318   3.096   6.219   4.861  0.9224  0.3717 -0.0673
17635TIP3   OH274319   6.553   4.950  13.343 -0.5115 -0.3451  0.1382
17635TIP3    H174320   6.588   5.020  13.287  2.1106 -2.2225 -0.6778
17635TIP3    H274321   6.458   4.960  13.338 -0.2780  0.7387 -3.1225
17636TIP3   OH274322   5.337   5.429  15.281 -0.1060 -0.1123  0.0014
17636TIP3    H174323   5.411   5.369  15.270  1.8183  1.8220  1.7605
17636TIP3    H274324   5.356   5.502  15.223 -0.8400  0.2229  0.1775
17637TIP3   OH274325   4.919   1.417   1.844 -0.4373 -0.2181 -0.4871
17637TIP3    H174326   4.886   1.490   1.791 -0.3261  0.8558  0.8873
17637TIP3    H274327   4.840   1.374   1.876 -0.5607  1.4638  1.5938
17638TIP3   OH274328   1.317   6.564   5.710 -0.3961  0.3839  0.9074
17638TIP3    H174329   1.268   6.608   5.779 -1.6049 -0.1304  0.3878
17638TIP3    H274330   1.338   6.633   5.647 -3.0843  0.0789 -0.3663
17639TIP3   OH274331   5.958   2.913  15.353  0.4849  0.0065 -0.1860
17639TIP3    H174332   6.050   2.894  15.369  0.3398  0.1007  0.7658
17639TIP3    H274333   5.912   2.832  15.373  0.1951  0.4243  0.8824
17640TIP3   OH274334   1.811   5.455   1.366  0.7773  0.4586  0.2742
17640TIP3    H174335   1.799   5.385   1.430  1.2557  2.0588  2.1667
17640TIP3    H274336   1.795   5.535   1.416  2.4471  1.8048 -1.2983
17641TIP3   OH274337   1.676   2.543   2.886 -0.3823 -0.1970 -0.3181
17641TIP3    H174338   1.652   2.516   2.974 -0.9733  0.0997 -0.3807
17641TIP3    H274339   1.595   2.535   2.836  0.0859 -0.8960 -0.9651
17642TIP3   OH274340   0.809   4.561   1.744  0.2020 -0.2221 -0.4729
17642TIP3    H174341   0.822   4.505   1.820  2.7519 -0.8411 -1.3213
17642TIP3    H274342   0.832   4.506   1.669 -2.9787  0.1423 -1.7960
17643TIP3   OH274343   5.009   2.699  10.475  0.3643 -0.3452  0.3492
17643TIP3    H174344   5.012   2.615  10.521 -0.8266 -0.9806 -0.6830
17643TIP3    H274345   4.930   2.693  10.421  1.3288  0.6580 -1.2072
17644TIP3   OH274346   6.430   1.768  17.003 -0.3289  0.0988  0.2851
17644TIP3    H174347   6.514   1.811  17.021  0.2573  0.6158 -3.3428
17644TIP3    H274348   6.367   1.840  16.997 -0.3388  0.0247 -0.5693
17645TIP3   OH274349   5.183   0.619   0.437 -0.3253  0.6274 -0.1352
17645TIP3    H174350   5.154   0.535   0.473  1.0947 -0.2434 -0.9746
17645TIP3    H274351   5.156   0.615   0.345 -0.5237  1.2245 -0.1020
17646TIP3   OH274352   6.276   3.081  13.011  0.0945  0.1639 -0.0473
17646TIP3    H174353   6.317   3.163  13.036 -1.6217  0.9571  0.2195
17646TIP3    H274354   6.246   3.043  13.094  1.3658 -1.0129 -0.1092
17647TIP3   OH274355   6.746   6.361   2.808  0.3529 -0.1428  0.1069
17647TIP3    H174356   6.764   6.288   2.868 -0.5504  0.3234  0.9502
17647TIP3    H274357   6.830   6.406   2.800  1.0039 -1.4653 -0.6830
17648TIP3   OH274358   2.239   4.102   6.130 -0.0920 -0.3071 -0.7872
17648TIP3    H174359   2.283   4.125   6.212 -0.6127  1.4241 -0.9712
17648TIP3    H274360   2.257   4.008   6.118 -1.5347 -1.0079  2.2048
17649TIP3   OH274361   4.919   4.998  12.964 -0.1436 -0.5244  0.5252
17649TIP3    H174362   4.832   4.982  12.929  0.5383 -2.3404 -0.3901
17649TIP3    H274363   4.913   5.084  13.005 -1.8834  0.1491 -1.0826
17650TIP3   OH274364   1.772   2.624   0.092 -0.1046 -0.1959 -0.9241
17650TIP3    H174365   1.699   2.624   0.030 -0.9400  2.2470 -0.0202
17650TIP3    H274366   1.837   2.682   0.051 -1.0050  2.1076  0.8053
17651TIP3   OH274367   4.051   6.684  15.609 -0.9840 -0.3571 -0.2296
17651TIP3    H174368   4.038   6.778  15.591  2.9739 -0.0981 -2.1987
17651TIP3    H274369   3.996   6.667  15.686 -0.7420  3.8718  1.0235
17652TIP3   OH274370   1.681   0.668  11.196 -0.6407 -0.3874  0.0064
17652TIP3    H174371   1.600   0.718  11.190  0.8441  2.1326  0.4625
17652TIP3    H274372   1.687   0.622  11.112 -3.1686 -1.6440  0.4652
17653TIP3   OH274373   2.355   4.145   2.882 -0.2116  0.0814 -0.1935
17653TIP3    H174374   2.330   4.059   2.848 -0.8676 -0.0372  0.5730
17653TIP3    H274375   2.433   4.128   2.934  0.0320  0.0499 -0.5713
17654TIP3   OH274376   6.068   5.386   2.281 -0.1121  0.4050 -0.4086
17654TIP3    H174377   5.977   5.358   2.291 -0.6506  2.0569 -0.4659
17654TIP3    H274378   6.087   5.435   2.361  0.9067 -0.3920 -0.1553
17655TIP3   OH274379   4.220   2.398   5.794  0.2992 -0.4535 -0.4266
17655TIP3    H174380   4.205   2.317   5.745 -0.6864  1.0086 -2.6338
17655TIP3    H274381   4.292   2.441   5.747 -1.0051  1.2228 -0.9398
17656TIP3   OH274382   2.060   2.525  14.092  0.2588 -0.3834  0.3637
17656TIP3    H174383   2.080   2.488  14.006 -1.1622  0.4995 -0.3639
17656TIP3    H274384   2.105   2.467  14.154  0.2411 -1.7872 -0.8973
17657TIP3   OH274385   0.171   6.617   5.989  0.2268 -0.3510 -0.3214
17657TIP3    H174386   0.118   6.560   6.045  1.6879 -2.4457 -0.9944
17657TIP3    H274387   0.199   6.687   6.047 -0.6782 -0.9080  0.8313
17658TIP3   OH274388   0.550   3.058   6.723  0.0736  0.7695 -0.4776
17658TIP3    H174389   0.627   3.067   6.666  0.5604  1.7805  0.3049
17658TIP3    H274390   0.490   3.002   6.674  1.4079 -0.2208 -1.0002
17659TIP3   OH274391   5.710   1.007  10.761 -0.2379  0.7851  0.7168
17659TIP3    H174392   5.789   1.059  10.750  0.2446 -0.1930 -0.5686
17659TIP3    H274393   5.715   0.940  10.692 -0.4981 -1.4111  2.7599
17660TIP3   OH274394   4.755   0.835   1.225 -0.0839 -0.2949  0.4049
17660TIP3    H174395   4.759   0.771   1.154  0.4580  0.7975 -0.5900
17660TIP3    H274396   4.847   0.860   1.240 -0.3376  0.6975  0.3356
17661TIP3   OH274397   5.991   3.563   5.678  0.1230 -0.4918  0.2179
17661TIP3    H174398   5.919   3.595   5.624 -0.1951  0.1909  1.0374
17661TIP3    H274399   6.069   3.600   5.636  0.0132 -1.2968 -0.7151
17662TIP3   OH274400   2.700   6.072  16.922  0.3913  0.1774  0.6923
17662TIP3    H174401   2.769   6.138  16.914 -0.8398  1.5316  1.0138
17662TIP3    H274402   2.660   6.069  16.836 -0.3476  0.7639  1.0028
17663TIP3   OH274403   4.943   2.697  16.075  0.3595  0.7567 -0.5118
17663TIP3    H174404   4.940   2.694  15.980  0.7526 -1.1503 -0.4855
17663TIP3    H274405   4.855   2.725  16.101  0.0648  0.6885 -1.4235
17664TIP3   OH274406   3.408   1.094   0.858 -0.1516 -0.3915  0.0125
17664TIP3    H174407   3.393   1.081   0.951  0.4501  2.2886  0.5408
17664TIP3    H274408   3.320   1.103   0.820 -0.3951 -1.5191  0.3041
17665TIP3   OH274409   0.031   0.917   3.579 -0.2445 -0.2514  0.6126
17665TIP3    H174410  -0.048   0.970   3.566  0.8844  1.2564 -0.1868
17665TIP3    H274411   0.026   0.890   3.671 -0.5765  1.6812  1.1831
17666TIP3   OH274412   3.091   4.429  17.185 -0.4967  0.2864  0.6557
17666TIP3    H174413   3.167   4.480  17.212 -0.0121  1.5198 -2.7765
17666TIP3    H274414   3.105   4.342  17.224  1.3876  1.1904  2.0923
17667TIP3   OH274415   4.395   2.362  16.579 -0.2189  0.0644  0.0415
17667TIP3    H174416   4.414   2.281  16.627  0.2883  0.0111 -0.2508
17667TIP3    H274417   4.311   2.344  16.536 -0.5513  0.0235  0.7128
17668TIP3   OH274418   0.567   0.770   2.111 -0.2655  0.0602  0.1446
17668TIP3    H174419   0.536   0.860   2.122 -0.1439  0.1520 -0.2706
17668TIP3    H274420   0.553   0.730   2.197 -0.9180  0.2931  0.1526
17669TIP3   OH274421   3.313   2.845   4.889  0.4759  1.0005 -0.1847
17669TIP3    H174422   3.377   2.916   4.881  0.1404  1.2856 -0.3443
17669TIP3    H274423   3.236   2.877   4.843  0.3383  0.5123 -0.2939
17670TIP3   OH274424   5.092   4.907  15.697  0.0147  0.4001 -0.1350
17670TIP3    H174425   5.036   4.833  15.671  0.3742  0.0452  0.0897
17670TIP3    H274426   5.034   4.966  15.744 -0.2764  0.2519 -0.3049
17671TIP3   OH274427   4.940   5.907  11.237  0.7986 -0.3579  0.3610
17671TIP3    H174428   4.990   5.978  11.195 -2.0721  1.1920 -0.5975
17671TIP3    H274429   4.910   5.853  11.164 -1.2473  0.3368  0.6577
17672TIP3   OH274430   1.667   1.323   3.862  0.1541 -0.0666  0.3999
17672TIP3    H174431   1.750   1.368   3.877 -0.1960  0.3278  1.2576
17672TIP3    H274432   1.634   1.359   3.780  0.2828  0.6427  0.6514
17673TIP3   OH274433   1.972   6.119  16.531  0.4486  0.2235  0.1344
17673TIP3    H174434   1.896   6.140  16.585  1.2469 -0.3475  1.5181
17673TIP3    H274435   1.980   6.023  16.537  0.1410  0.0767 -1.5750
17674TIP3   OH274436   2.705   3.683  17.146 -0.2449 -0.0398  0.2485
17674TIP3    H174437   2.767   3.718  17.209  0.0247  0.0649 -0.0733
17674TIP3    H274438   2.634   3.746  17.144  0.3034  0.5603 -0.4348
17675TIP3   OH274439   2.722   3.642   5.293 -0.3178  0.0445 -0.3564
17675TIP3    H174440   2.635   3.602   5.288 -1.0605  1.4471  0.8889
17675TIP3    H274441   2.740   3.674   5.205 -0.8061 -0.7939 -0.7609
17676TIP3   OH274442   3.123   5.570   3.538 -0.4952  0.1521 -0.0721
17676TIP3    H174443   3.144   5.646   3.591  0.5135 -0.2595  0.1331
17676TIP3    H274444   3.204   5.519   3.535 -0.9466 -0.5493 -0.8101
17677TIP3   OH274445   4.119   0.935  16.149 -0.4298  0.2187 -0.1330
17677TIP3    H174446   4.096   0.849  16.184 -1.7479 -0.1528 -1.8811
17677TIP3    H274447   4.035   0.977  16.132  0.2011  1.9745  0.9546
17678TIP3   OH274448   3.671   3.137   3.785 -0.3207  0.4045  1.0345
17678TIP3    H174449   3.691   3.151   3.692 -1.0550  2.5411  1.1756
17678TIP3    H274450   3.723   3.203   3.831 -1.0389  0.2842  2.0362
17679TIP3   OH274451   5.797   5.794   0.683  0.6099  0.4628 -0.3440
17679TIP3    H174452   5.846   5.781   0.602 -0.8870  1.8765 -1.4939
17679TIP3    H274453   5.837   5.870   0.724  1.3409 -0.2283  0.2373
17680TIP3   OH274454   5.536   3.227   1.102  0.5007 -0.2091  0.3908
17680TIP3    H174455   5.617   3.218   1.152  2.3694 -1.4847 -2.7743
17680TIP3    H274456   5.488   3.145   1.118  0.3035  0.0754  1.3428
17681TIP3   OH274457   4.625   0.638   1.888 -0.0153  0.1497  0.2144
17681TIP3    H174458   4.700   0.662   1.941  0.5708 -0.0354 -0.5280
17681TIP3    H274459   4.655   0.563   1.836 -0.7057  0.0766 -0.0879
17682TIP3   OH274460   0.734   3.302  16.863 -0.0508  0.2594  0.2031
17682TIP3    H174461   0.763   3.226  16.913  2.1304  1.1248  0.3010
17682TIP3    H274462   0.770   3.288  16.775 -1.2746  0.2408 -0.3023
17683TIP3   OH274463   6.451   0.968   0.518  0.0713  0.1605  0.4141
17683TIP3    H174464   6.515   1.002   0.581  0.1798 -0.1647  0.4836
17683TIP3    H274465   6.466   1.018   0.438  0.0209  0.4881  0.6102
17684TIP3   OH274466   1.537   4.553  16.431  0.0673  0.5053 -0.2841
17684TIP3    H174467   1.601   4.622  16.448  0.3689  0.0501  0.4740
17684TIP3    H274468   1.481   4.553  16.508 -0.4804  0.5051 -0.6808
17685TIP3   OH274469   2.763   6.313  15.178 -0.0788 -0.0810  0.0958
17685TIP3    H174470   2.808   6.385  15.222  0.3850 -0.2503 -0.0953
17685TIP3    H274471   2.673   6.318  15.209  0.3511 -0.4928  1.4289
17686TIP3   OH274472   4.936   0.032  11.641 -0.3879  0.1174 -0.2974
17686TIP3    H174473   5.010  -0.014  11.601 -0.0446 -0.9886  1.5636
17686TIP3    H274474   4.915   0.101  11.578  1.4138 -0.3268 -1.4484
17687TIP3   OH274475   6.572   0.389  15.373 -0.1587  0.0577 -0.0074
17687TIP3    H174476   6.581   0.329  15.299 -0.4945  1.1158 -0.9278
17687TIP3    H274477   6.633   0.461  15.353  1.7232 -0.9030  2.0425
17688TIP3   OH274478   4.637   5.286   2.635 -0.1355  0.4004  0.1067
17688TIP3    H174479   4.633   5.200   2.678  2.7861  0.3259  0.3317
17688TIP3    H274480   4.671   5.344   2.703  2.0334  0.8209 -1.3063
17689TIP3   OH274481   4.757   5.515  13.117 -0.4543  0.1394 -0.2620
17689TIP3    H174482   4.758   5.587  13.054 -1.0154  0.2242 -0.1844
17689TIP3    H274483   4.807   5.549  13.192 -1.3233  0.7284  0.0629
17690TIP3   OH274484   4.296   3.512  14.627  0.4341 -0.5650  0.8494
17690TIP3    H174485   4.351   3.556  14.562  1.1962 -1.5692  0.8115
17690TIP3    H274486   4.296   3.420  14.601 -2.0154 -0.4589  0.3122
17691TIP3   OH274487   5.582   1.933  12.778  0.0279  0.0392  0.2389
17691TIP3    H174488   5.652   1.968  12.834  1.2426 -3.2133  0.8784
17691TIP3    H274489   5.564   2.003  12.716  0.9209  2.5273  2.6772
17692TIP3   OH274490   1.786   4.695  14.182  0.6316 -0.8359 -0.2964
17692TIP3    H174491   1.856   4.749  14.144  1.0094 -0.7140  0.5612
17692TIP3    H274492   1.781   4.723  14.273 -1.7184  0.3863 -0.7656
17693TIP3   OH274493   4.711   2.733  12.535  0.4841  0.2398 -0.3705
17693TIP3    H174494   4.700   2.787  12.614 -0.4462 -0.7857  0.2118
17693TIP3    H274495   4.763   2.788  12.476 -0.2434  1.6866  0.3020
17694TIP3   OH274496   0.475   5.226  12.041 -0.0861  0.0081  0.0537
17694TIP3    H174497   0.467   5.154  12.104 -0.8230 -0.6552 -0.7953
17694TIP3    H274498   0.414   5.293  12.073 -1.8282 -1.0714 -0.9562
17695TIP3   OH274499   1.890   5.155  14.848  0.0208 -0.5838 -0.2535
17695TIP3    H174500   1.878   5.064  14.824  0.4932 -0.5329 -0.6731
17695TIP3    H274501   1.904   5.201  14.766  0.8779 -0.3003  0.0451
17696TIP3   OH274502   3.054   6.433   3.776  0.7178 -0.0513 -0.1596
17696TIP3    H174503   2.975   6.419   3.829  0.0147  0.2759 -1.1152
17696TIP3    H274504   3.122   6.382   3.821  0.4725  1.3633  1.8625
17697TIP3   OH274505   6.534   5.554  12.344  0.0217  0.3605  0.4231
17697TIP3    H174506   6.479   5.614  12.294 -0.4690 -0.9239 -0.5937
17697TIP3    H274507   6.571   5.609  12.414 -0.6027  1.7848 -0.3367
17698TIP3   OH274508   1.597   2.769  14.451 -0.2358  0.0529  0.1842
17698TIP3    H174509   1.620   2.859  14.429  1.1980 -0.3650 -0.0530
17698TIP3    H274510   1.611   2.763  14.546 -2.3446  0.6476  0.5748
17699TIP3   OH274511   4.829   0.454  16.932  0.6032 -0.4726  0.0983
17699TIP3    H174512   4.904   0.504  16.899  0.7153 -0.9840 -0.4448
17699TIP3    H274513   4.767   0.520  16.962  0.9227 -0.0219 -0.2200
17700TIP3   OH274514   5.787   2.805   5.615  0.4727 -0.0662 -0.5703
17700TIP3    H174515   5.826   2.892   5.621 -0.6387  0.3681  1.0240
17700TIP3    H274516   5.722   2.813   5.546 -0.6287  0.8240  0.5267
17701TIP3   OH274517   2.975   5.036   3.624  0.1029 -0.1495  0.6228
17701TIP3    H174518   2.983   4.996   3.710  0.2086 -0.5589  0.4221
17701TIP3    H274519   2.990   4.964   3.562 -0.7394 -0.0135  0.2615
17702TIP3   OH274520   2.953   0.948  11.536  0.3966  0.1699 -0.2282
17702TIP3    H174521   2.903   1.008  11.481 -1.1785 -0.1483  0.8383
17702TIP3    H274522   2.923   0.965  11.625  0.8455 -1.3060  0.2251
17703TIP3   OH274523   5.188   1.352  13.631  0.0565  0.2260  0.1762
17703TIP3    H174524   5.234   1.381  13.710  0.0250  0.2385  0.1907
17703TIP3    H274525   5.208   1.259  13.625  2.6906  0.8686 -1.5667
17704TIP3   OH274526   0.390   2.334   2.891  0.3190  0.0712 -0.0638
17704TIP3    H174527   0.348   2.252   2.915  2.2678 -0.8486  0.2989
17704TIP3    H274528   0.454   2.310   2.824  0.3934  1.4064 -0.4926
17705TIP3   OH274529   4.604   3.695  13.873  0.1625  0.4644 -0.3945
17705TIP3    H174530   4.530   3.700  13.813  0.1506 -0.1250 -0.4303
17705TIP3    H274531   4.626   3.602  13.877  2.3966  0.8489 -2.2350
17706TIP3   OH274532   1.019   1.888   0.765 -0.1386 -0.6633  1.1119
17706TIP3    H174533   1.103   1.919   0.799  0.6792 -1.6508  0.0553
17706TIP3    H274534   0.995   1.816   0.822 -0.4785 -0.1245  1.6584
17707TIP3   OH274535   5.381   0.675   3.068  0.4621  0.2416  0.1626
17707TIP3    H174536   5.351   0.750   3.017 -0.5224  1.2364  2.1576
17707TIP3    H274537   5.472   0.697   3.091  0.6240  0.1865 -0.4220
17708TIP3   OH274538   3.902   3.375   0.761 -0.2230  0.0890  0.0327
17708TIP3    H174539   3.984   3.424   0.760 -0.2791  0.1759 -0.8254
17708TIP3    H274540   3.833   3.442   0.763 -0.3051  0.0618 -1.5609
17709TIP3   OH274541   0.741   2.120  14.496  0.0987  0.5157  0.3754
17709TIP3    H174542   0.651   2.154  14.494 -0.0443  0.0641 -1.6768
17709TIP3    H274543   0.736   2.044  14.553 -1.1009 -0.2369 -0.7083
17710TIP3   OH274544   6.100   5.981  13.404 -0.7348  0.1028 -0.6210
17710TIP3    H174545   6.067   6.023  13.325 -1.9064 -0.9000 -0.6880
17710TIP3    H274546   6.184   6.023  13.421 -0.0222 -0.3184 -2.9455
17711TIP3   OH274547   6.491   0.618  11.819 -0.1251 -0.7961 -0.5108
17711TIP3    H174548   6.546   0.671  11.761  0.9171 -1.7932 -0.4553
17711TIP3    H274549   6.421   0.676  11.845 -1.0119 -0.5163 -3.3433
17712TIP3   OH274550   3.667   4.739  16.679 -0.2996 -0.1669 -0.0022
17712TIP3    H174551   3.664   4.830  16.651  1.3593  0.5352  1.9909
17712TIP3    H274552   3.675   4.689  16.598 -1.0631  1.4629 -1.1019
17713TIP3   OH274553   4.218   2.941   1.583  0.1363  0.3147  0.3603
17713TIP3    H174554   4.272   2.936   1.504  1.2144  0.8994  1.0419
17713TIP3    H274555   4.273   2.903   1.652 -1.0666 -0.8353  0.6939
17714TIP3   OH274556   2.999   2.954  11.491  0.6981 -0.7766  0.0347
17714TIP3    H174557   2.948   2.878  11.462  2.4622 -0.9029 -2.9641
17714TIP3    H274558   2.934   3.019  11.516 -0.8458 -2.8211  1.4688
17715TIP3   OH274559   5.267   3.394  16.674  0.4456  0.3125  0.4967
17715TIP3    H174560   5.321   3.364  16.601 -0.7412  1.0312 -0.6791
17715TIP3    H274561   5.309   3.475  16.703  0.5303  0.3737  0.2022
17716TIP3   OH274562   0.697   6.349  12.733  0.2143 -0.2355 -0.2231
17716TIP3    H174563   0.643   6.276  12.760 -2.2835  1.1057 -1.4459
17716TIP3    H274564   0.756   6.365  12.807 -0.4683 -2.2532  0.7699
17717TIP3   OH274565   6.246   0.434   4.909 -0.5337 -0.0273 -0.3991
17717TIP3    H174566   6.177   0.436   4.975 -0.0153  0.9017  0.1170
17717TIP3    H274567   6.206   0.475   4.832 -0.9193 -0.5053 -0.4558
17718TIP3   OH274568   0.248   1.059  15.735  0.0489  0.0300 -0.0838
17718TIP3    H174569   0.286   1.076  15.649 -1.1847 -1.3360 -0.9155
17718TIP3    H274570   0.157   1.086  15.727  0.1000  0.5440  1.0142
17719TIP3   OH274571   2.967   5.940   1.777  0.1836  0.0633  0.1215
17719TIP3    H174572   2.916   6.012   1.813  0.9895 -0.0017  1.4323
17719TIP3    H274573   2.911   5.863   1.787  0.9857 -0.2494  2.7724
17720TIP3   OH274574   3.062   1.259  17.237 -0.3637 -0.2064  0.5198
17720TIP3    H174575   3.102   1.200  17.301  2.2916  0.8231 -0.1180
17720TIP3    H274576   3.042   1.338  17.288 -0.7168 -0.3656  0.6317
17721TIP3   OH274577   0.314   5.645   5.675  0.1303 -0.2266 -0.5031
17721TIP3    H174578   0.325   5.681   5.587 -0.5161 -0.0036 -0.4947
17721TIP3    H274579   0.292   5.720   5.730  0.3108 -0.3984 -0.1885
17722TIP3   OH274580   1.259   4.206  12.036 -0.1339  0.5799  0.5281
17722TIP3    H174581   1.294   4.255  11.962  1.4072 -0.7004  0.3884
17722TIP3    H274582   1.203   4.269  12.082 -0.3719  1.6429 -1.1934
17723TIP3   OH274583   1.535   2.235  13.776  0.7962  0.6808 -0.2791
17723TIP3    H174584   1.562   2.197  13.860 -0.5825  0.1546 -0.0582
17723TIP3    H274585   1.451   2.278  13.796  0.4570  0.5341 -1.3912
17724TIP3   OH274586   6.504   3.660  11.764  0.2464  0.5448  0.8814
17724TIP3    H174587   6.543   3.614  11.839 -0.9851 -0.6075  0.8411
17724TIP3    H274588   6.412   3.637  11.768  0.0412  1.0945 -0.5648
17725TIP3   OH274589   3.501   1.436   3.296 -0.3853  0.2365 -0.8023
17725TIP3    H174590   3.566   1.368   3.280  0.2534  1.2979 -2.9647
17725TIP3    H274591   3.489   1.436   3.391  1.7100 -0.9465 -0.5081
17726TIP3   OH274592   4.562   6.681   1.865  0.0284  0.6172 -0.2757
17726TIP3    H174593   4.591   6.772   1.864  0.4495  0.4746 -2.1162
17726TIP3    H274594   4.595   6.646   1.948 -0.4222  2.2299  0.5867
17727TIP3   OH274595   2.889   1.642   4.172  0.6420  0.0757 -0.5456
17727TIP3    H174596   2.959   1.587   4.136  0.6260 -0.1933 -0.1623
17727TIP3    H274597   2.808   1.601   4.140  0.6103 -0.4466  0.1968
17728TIP3   OH274598   1.363   3.570  13.557  0.2138 -0.0211 -0.0094
17728TIP3    H174599   1.279   3.525  13.560  1.1317 -1.7832  0.0735
17728TIP3    H274600   1.426   3.502  13.533  1.3578  1.6373 -1.9017
17729TIP3   OH274601   6.595   1.564  14.568  0.1936  0.0322 -0.0840
17729TIP3    H174602   6.656   1.547  14.640  1.1788  0.8596 -0.7206
17729TIP3    H274603   6.582   1.658  14.568 -0.0966 -0.0022 -0.7590
17730TIP3   OH274604   1.483   2.004  11.440  0.6725  0.0582 -0.2675
17730TIP3    H174605   1.398   2.020  11.397 -0.5354 -0.9592  1.6810
17730TIP3    H274606   1.533   1.954  11.375 -0.3095  0.4159 -1.3270
17731TIP3   OH274607   4.489   5.420   5.584  0.3158  0.2663 -0.0675
17731TIP3    H174608   4.437   5.356   5.535 -0.0339  1.1571 -0.8720
17731TIP3    H274609   4.529   5.369   5.655  0.6739 -0.9940 -1.1670
17732TIP3   OH274610   5.595   5.392  16.951 -0.9046  0.1811 -0.6041
17732TIP3    H174611   5.683   5.405  16.987 -1.2542  1.1398 -0.0816
17732TIP3    H274612   5.605   5.408  16.857 -0.1645 -1.4933 -0.8309
17733TIP3   OH274613   4.361   4.272   0.368  0.1829 -0.8153  0.3767
17733TIP3    H174614   4.362   4.219   0.448  1.2939 -1.7130 -0.2108
17733TIP3    H274615   4.450   4.264   0.334  0.6482  2.2428  0.7746
17734TIP3   OH274616   5.475   5.370  10.588 -0.8625  0.0385 -0.3015
17734TIP3    H174617   5.448   5.302  10.650  0.4008 -0.4769 -0.3022
17734TIP3    H274618   5.393   5.405  10.553 -1.5485 -0.6700  0.5813
17735TIP3   OH274619   2.725   2.370  16.502 -0.1197  0.0547 -0.3063
17735TIP3    H174620   2.664   2.443  16.495  0.9227  0.8895 -0.7662
17735TIP3    H274621   2.719   2.343  16.594 -1.0311  0.2595 -0.3053
17736TIP3   OH274622   2.941   1.826  16.772 -0.0519 -0.4410  0.3698
17736TIP3    H174623   3.027   1.864  16.753 -0.1177 -0.4627  0.0155
17736TIP3    H274624   2.895   1.829  16.688 -0.6675  0.2551  0.7202
17737TIP3   OH274625   4.417   3.422   6.673 -0.4627 -0.5605  0.2252
17737TIP3    H174626   4.422   3.517   6.683 -0.1291 -0.6783  1.2185
17737TIP3    H274627   4.508   3.394   6.670 -0.5620 -0.8910  0.3018
17738TIP3   OH274628   4.652   6.393  15.935  0.1008  0.0796  0.6009
17738TIP3    H174629   4.658   6.310  15.888  1.1904  0.9177 -0.7690
17738TIP3    H274630   4.576   6.437  15.896  1.1368  0.8692 -0.5370
17739TIP3   OH274631   5.215   3.665  14.991  0.0682 -0.1971  0.1744
17739TIP3    H174632   5.294   3.612  14.999  1.1097  1.3700  0.3450
17739TIP3    H274633   5.180   3.671  15.080  1.1767  1.2744  0.5106
17740TIP3   OH274634   2.283   4.342   1.355 -0.0650  0.4542 -0.2221
17740TIP3    H174635   2.318   4.393   1.282  1.0318  0.7018  0.4596
17740TIP3    H274636   2.193   4.373   1.365  0.4171  1.8827 -0.1683
17741TIP3   OH274637   1.150   5.054  16.421 -0.2785  0.4283 -0.5691
17741TIP3    H174638   1.233   5.009  16.434 -0.2296  1.0148  1.2938
17741TIP3    H274639   1.162   5.138  16.465 -1.9418  0.4093 -0.0601
17742TIP3   OH274640   0.037   2.397   5.033  0.2172 -0.4937 -0.2962
17742TIP3    H174641  -0.011   2.420   4.954  0.0242  2.5977  0.6480
17742TIP3    H274642   0.129   2.409   5.009  0.3947 -3.2019 -1.1191
17743TIP3   OH274643   5.153   3.734  13.789 -0.2372  0.0986  0.1868
17743TIP3    H174644   5.170   3.653  13.742 -0.4292  0.4605 -0.5033
17743TIP3    H274645   5.059   3.748  13.780 -0.0373  0.9658 -0.6174
17744TIP3   OH274646   4.379   4.123   5.145  0.1943 -0.2481 -0.0021
17744TIP3    H174647   4.417   4.206   5.116  1.1474 -0.8916 -0.6370
17744TIP3    H274648   4.345   4.083   5.064  0.5874 -0.8993  0.1538
17745TIP3   OH274649   4.589   0.480   3.996  0.4040 -0.2626 -0.0376
17745TIP3    H174650   4.640   0.548   4.040 -0.4627  0.7683 -0.6197
17745TIP3    H274651   4.591   0.503   3.903 -1.0144 -0.2754 -0.0887
17746TIP3   OH274652   6.376   5.768  15.214  0.1093  0.0119 -0.3648
17746TIP3    H174653   6.315   5.774  15.287  1.4535 -0.0533  0.7838
17746TIP3    H274654   6.323   5.734  15.141 -0.7979 -1.8710  1.1240
17747TIP3   OH274655   1.378   4.520   1.487 -0.1115 -0.1677  0.2295
17747TIP3    H174656   1.352   4.458   1.419 -0.1596  0.1121 -0.0091
17747TIP3    H274657   1.295   4.559   1.516  0.0148  0.5887 -0.3990
17748TIP3   OH274658   4.285   4.458   0.715  0.0032 -0.3496  0.1731
17748TIP3    H174659   4.259   4.550   0.728 -0.6855 -0.5645  0.3335
17748TIP3    H274660   4.376   4.463   0.687 -0.2764  0.4311 -0.6305
17749TIP3   OH274661   6.411   2.667  16.992  0.3289 -0.0993  0.2728
17749TIP3    H174662   6.382   2.607  16.923 -0.2513 -0.2860  0.6736
17749TIP3    H274663   6.505   2.676  16.978  0.1997 -0.0548 -0.6095
17750TIP3   OH274664   1.131   1.390   2.214  0.4326  0.1155  0.2306
17750TIP3    H174665   1.146   1.297   2.234  1.8060 -0.1429 -1.8517
17750TIP3    H274666   1.156   1.436   2.294  2.7466 -1.0988  0.2645
17751TIP3   OH274667   6.587   4.752   3.470 -0.2508  0.7060 -0.2320
17751TIP3    H174668   6.672   4.717   3.496 -0.8069 -0.3486  0.1889
17751TIP3    H274669   6.554   4.689   3.406  0.1159  2.1059 -1.8438
17752TIP3   OH274670   3.807   5.927  14.425 -0.4809 -0.1137 -0.1145
17752TIP3    H174671   3.869   5.855  14.431  0.5180  0.8507  1.6505
17752TIP3    H274672   3.831   5.974  14.345 -0.1800 -0.8756 -0.4698
17753TIP3   OH274673   1.009   4.830  12.309  0.3556 -0.3961 -0.2588
17753TIP3    H174674   1.074   4.802  12.374  1.1942 -0.8056 -1.2534
17753TIP3    H274675   0.953   4.892  12.356  1.5676  0.0926  0.5690
17754TIP3   OH274676   6.280   5.992  10.826 -0.3541 -0.1966  0.6626
17754TIP3    H174677   6.261   5.911  10.778  0.4777 -1.9445  3.1771
17754TIP3    H274678   6.200   6.009  10.876 -0.9368  1.1838 -0.7103
17755TIP3   OH274679   5.754   6.333  16.129  0.2092 -0.1670  0.2072
17755TIP3    H174680   5.795   6.401  16.182 -0.6185  0.1163  0.4959
17755TIP3    H274681   5.737   6.261  16.191 -1.4299  0.4507  0.5016
17756TIP3   OH274682   6.273   2.745  16.662  0.2896 -0.1410 -0.5084
17756TIP3    H174683   6.298   2.685  16.732 -0.4411 -0.1817 -0.2754
17756TIP3    H274684   6.218   2.693  16.604  1.8280 -0.4226 -1.7372
17757TIP3   OH274685   1.527   1.259  12.941  0.2651  0.5817 -0.4878
17757TIP3    H174686   1.493   1.183  12.988  0.8312  0.5742 -0.0919
17757TIP3    H274687   1.491   1.335  12.987 -0.4634  0.5589 -1.0033
17758TIP3   OH274688   0.761   2.306  11.141  0.0370 -0.4121  0.0101
17758TIP3    H174689   0.828   2.266  11.086 -0.3916 -0.1280 -0.7317
17758TIP3    H274690   0.713   2.364  11.082 -0.1154  0.2791  0.7930
17759TIP3   OH274691   1.740   0.822   3.946 -0.4945  0.2036 -0.1676
17759TIP3    H174692   1.802   0.780   4.005 -0.2461  1.7455  0.7013
17759TIP3    H274693   1.765   0.793   3.859  0.5997 -0.2417  0.2936
17760TIP3   OH274694   1.698   1.914  14.237 -0.1165  0.0285 -0.3329
17760TIP3    H174695   1.728   1.849  14.300  1.2063  1.6141  0.7162
17760TIP3    H274696   1.604   1.922  14.254 -0.7408 -3.1155 -1.9231
17761TIP3   OH274697   6.474   3.935   5.858 -0.2015  0.0825  0.5467
17761TIP3    H174698   6.538   3.864   5.846 -0.7752 -0.3710  0.1435
17761TIP3    H274699   6.439   3.950   5.770 -2.2018 -1.1258  1.1035
17762TIP3   OH274700   1.855   6.014   2.997 -0.4694 -0.2331  0.2106
17762TIP3    H174701   1.819   5.926   3.006 -1.4144 -0.0823 -1.7785
17762TIP3    H274702   1.854   6.031   2.902  0.3915  1.6253  0.5086
17763TIP3   OH274703   0.381   6.601   2.890  0.0046 -0.4637 -0.5406
17763TIP3    H174704   0.344   6.640   2.970  0.4432  1.4797 -1.2602
17763TIP3    H274705   0.305   6.578   2.837 -0.2707  1.3807 -1.0035
17764TIP3   OH274706   2.406   4.166  15.103  0.1753  0.2289  0.3993
17764TIP3    H174707   2.413   4.257  15.073 -0.5083  0.2776  0.3924
17764TIP3    H274708   2.380   4.172  15.194 -0.4397  0.0278  0.2362
17765TIP3   OH274709   5.009   5.169  16.480  0.8320  0.0198 -0.0930
17765TIP3    H174710   5.026   5.092  16.533  1.5648 -0.2768 -0.7375
17765TIP3    H274711   5.010   5.137  16.390  3.5093  1.1193 -0.5296
17766TIP3   OH274712   4.178   6.049  15.077 -0.1883  0.2469  0.5665
17766TIP3    H174713   4.174   6.145  15.084  0.0020  0.4701 -1.9876
17766TIP3    H274714   4.271   6.028  15.089 -0.2712  0.3374  1.4175
17767TIP3   OH274715   1.847   3.270   1.192 -0.3950  0.2574 -0.6536
17767TIP3    H174716   1.903   3.212   1.140 -0.5049 -0.9614  0.5797
17767TIP3    H274717   1.771   3.288   1.136 -0.1865 -0.4899 -1.1705
17768TIP3   OH274718   4.646   5.513  14.099  0.2610 -0.3375  0.1260
17768TIP3    H174719   4.638   5.443  14.035  2.5674 -0.7249  0.1903
17768TIP3    H274720   4.634   5.469  14.184  3.2386 -1.0146  0.2578
17769TIP3   OH274721   4.060   0.614   1.182  0.3521 -0.1679  0.7000
17769TIP3    H174722   4.051   0.665   1.262  0.9998  0.0755  0.6264
17769TIP3    H274723   4.086   0.527   1.211 -1.2262 -0.6011  0.8543
17770TIP3   OH274724   6.205   2.710   2.137 -0.4552  0.0442  1.0030
17770TIP3    H174725   6.234   2.755   2.217  0.3760 -0.3730  0.9413
17770TIP3    H274726   6.164   2.779   2.084  1.0865  0.8035  0.7727
17771TIP3   OH274727   3.628   6.350  15.152 -0.7831 -0.0713  0.2008
17771TIP3    H174728   3.617   6.440  15.181  0.7706  0.5615 -1.1333
17771TIP3    H274729   3.611   6.351  15.058  0.6096 -0.8831 -0.0862
17772TIP3   OH274730   4.409   3.614   3.912 -0.2822  0.5092 -0.1981
17772TIP3    H174731   4.447   3.657   3.989  2.8321 -1.1261 -0.7470
17772TIP3    H274732   4.439   3.666   3.838  2.3476 -1.6743 -0.7555
17773TIP3   OH274733   4.355   6.423  16.796  0.2270 -0.8395 -0.3547
17773TIP3    H174734   4.436   6.466  16.823  0.6008 -1.4156 -0.5304
17773TIP3    H274735   4.288   6.491  16.801  1.0541  0.1044 -1.9849
17774TIP3   OH274736   4.777   2.598  13.556  0.0581 -0.2780  0.8625
17774TIP3    H174737   4.814   2.541  13.624 -0.8898 -1.0170  0.7680
17774TIP3    H274738   4.703   2.641  13.599 -0.8973 -1.1762  0.1483
17775TIP3   OH274739   4.028   1.525  11.874  1.0340  0.0201  0.3548
17775TIP3    H174740   4.048   1.499  11.964  1.7607 -0.2840  0.1063
17775TIP3    H274741   3.936   1.500  11.862  1.2129 -0.8252  0.6963
17776TIP3   OH274742   1.985   2.994  13.745 -0.5511 -0.6204  0.2840
17776TIP3    H174743   1.982   2.990  13.841 -0.1012 -0.8019  0.2913
17776TIP3    H274744   1.894   2.979  13.718 -0.3777 -2.3071  0.6218
17777TIP3   OH274745   5.199   2.731   1.823 -0.2521 -0.0536 -0.1598
17777TIP3    H174746   5.232   2.801   1.879  0.6876 -0.4683 -0.1880
17777TIP3    H274747   5.207   2.652   1.877 -1.3129 -0.1389 -0.1260
17778TIP3   OH274748   1.760   6.468  11.826 -0.2790 -0.0664  0.3176
17778TIP3    H174749   1.766   6.399  11.760 -1.8537 -1.9375  2.0520
17778TIP3    H274750   1.832   6.450  11.886 -1.6409 -1.2497  1.6636
17779TIP3   OH274751   0.995   1.970  11.880 -0.3920 -0.0771 -0.2917
17779TIP3    H174752   1.030   2.055  11.853  0.6945 -0.8442 -1.3672
17779TIP3    H274753   0.982   1.979  11.974  0.5236  1.0100 -0.2446
17780TIP3   OH274754   2.054   6.603  12.582  0.3731  0.8386 -0.5726
17780TIP3    H174755   2.092   6.519  12.608 -0.1876  0.0518 -2.2376
17780TIP3    H274756   1.988   6.620  12.649 -0.5077 -0.7628 -1.0052
17781TIP3   OH274757   5.859   4.027  11.519 -0.4453  0.3134 -0.1425
17781TIP3    H174758   5.935   4.020  11.576 -1.5274 -1.3030  1.1689
17781TIP3    H274759   5.864   4.115  11.482  2.1809  0.1504 -0.3016
17782TIP3   OH274760   1.521   4.106  16.118 -0.3893 -0.0754 -0.0595
17782TIP3    H174761   1.548   4.016  16.135 -1.9067 -0.2129  1.8523
17782TIP3    H274762   1.496   4.107  16.026 -0.9091 -1.7714  0.0562
17783TIP3   OH274763   1.209   4.881   2.859 -0.0135  0.2510  0.0136
17783TIP3    H174764   1.191   4.930   2.778 -2.1575 -1.7872 -0.8085
17783TIP3    H274765   1.134   4.822   2.868  2.4054 -2.7737  1.0633
17784TIP3   OH274766   5.880   2.148  10.841  0.0920  0.2218 -0.2244
17784TIP3    H174767   5.928   2.226  10.816 -0.5366  1.1207  1.3138
17784TIP3    H274768   5.924   2.077  10.795  0.0655  1.5767 -2.4269
17785TIP3   OH274769   5.491   6.707  13.282  0.6473  0.1322  0.1974
17785TIP3    H174770   5.465   6.761  13.356  1.5347 -0.9345  1.2935
17785TIP3    H274771   5.473   6.762  13.205  0.6207  1.6108  1.2398
17786TIP3   OH274772   0.630   0.986   2.852 -0.1721  0.0748 -0.1264
17786TIP3    H174773   0.616   0.904   2.805  0.1720 -0.3627  0.5334
17786TIP3    H274774   0.645   0.960   2.943 -0.9783  0.9283  0.2602
17787TIP3   OH274775   6.155   5.646   0.904 -0.5563  0.1600 -0.2097
17787TIP3    H174776   6.074   5.605   0.936  0.3628 -1.5694 -0.0812
17787TIP3    H274777   6.135   5.670   0.814 -2.0480  2.0429  0.5841
17788TIP3   OH274778   6.209   4.588   0.788 -0.4075  0.0445  0.1321
17788TIP3    H174779   6.287   4.569   0.737 -0.0710  1.5755  0.0551
17788TIP3    H274780   6.233   4.568   0.878 -0.1090 -0.0029  0.0424
17789TIP3   OH274781   4.486   6.334  16.149 -0.5100  0.0716  0.0019
17789TIP3    H174782   4.439   6.252  16.131  0.6890 -0.5844 -0.1884
17789TIP3    H274783   4.545   6.345  16.075 -0.5176  0.9986  0.1294
17790TIP3   OH274784   2.772   0.519   4.251 -0.0201  0.1737  1.1728
17790TIP3    H174785   2.785   0.586   4.184  0.6032 -0.3435  0.7739
17790TIP3    H274786   2.702   0.554   4.306  0.4284  1.2319  1.0764
17791TIP3   OH274787   6.249   4.186   2.539 -0.1202 -0.2568  0.2879
17791TIP3    H174788   6.236   4.092   2.536 -0.6186 -0.1491 -1.0864
17791TIP3    H274789   6.163   4.222   2.564  0.0749 -0.1595  0.8321
17792TIP3   OH274790   2.628   5.660   2.998 -0.1475 -0.0716 -0.1123
17792TIP3    H174791   2.563   5.684   3.064  1.0372  0.1427  1.0027
17792TIP3    H274792   2.677   5.741   2.982  0.2832 -0.3940 -0.4407
17793TIP3   OH274793   4.863   1.288  11.706  0.9542  0.3320  0.2027
17793TIP3    H174794   4.811   1.364  11.678  1.8199  0.5248 -0.9067
17793TIP3    H274795   4.885   1.307  11.797  1.4618  1.5867 -0.1687
17794TIP3   OH274796   4.382   4.262   3.161 -0.4657 -0.0478 -0.1663
17794TIP3    H174797   4.372   4.320   3.086  2.6601  0.1899 -0.4643
17794TIP3    H274798   4.407   4.321   3.233  2.2619 -0.8711 -0.3634
17795TIP3   OH274799   0.635   1.815   4.118 -0.5543 -0.6321  0.2408
17795TIP3    H174800   0.619   1.887   4.057 -2.5271 -1.6045 -0.4176
17795TIP3    H274801   0.653   1.739   4.063  0.0130 -0.9905  0.9079
17796TIP3   OH274802   4.281   1.689  11.962  0.2815 -0.6222 -0.6270
17796TIP3    H174803   4.302   1.753  12.030 -0.7961 -0.0519 -0.8273
17796TIP3    H274804   4.279   1.605  12.008  1.7720 -0.5306 -0.3766
17797TIP3   OH274805   0.701   0.479  12.421  0.1768 -0.0174  0.1585
17797TIP3    H174806   0.655   0.473  12.505 -0.2484  0.8901  0.0026
17797TIP3    H274807   0.723   0.572  12.413  0.2583 -0.1084 -0.7042
17798TIP3   OH274808   0.159   6.683  11.210 -0.0533 -0.6443 -0.1865
17798TIP3    H174809   0.232   6.634  11.248 -0.1538 -1.2191 -0.7195
17798TIP3    H274810   0.151   6.647  11.121 -1.1226 -0.7266 -0.0537
17799TIP3   OH274811   4.938   2.003  12.776  0.0319  0.5233  0.3552
17799TIP3    H174812   4.934   1.987  12.682  1.0580 -1.0550  0.5629
17799TIP3    H274813   4.998   2.078  12.784  1.8271 -0.8343 -0.1099
17800TIP3   OH274814   2.094   0.734  12.569 -0.6412 -0.4122  0.3746
17800TIP3    H174815   2.123   0.811  12.620  0.5037  0.3075 -1.3249
17800TIP3    H274816   2.169   0.675  12.571 -0.4898 -0.2629 -0.6925
17801TIP3   OH274817   5.303   6.768   1.300  0.0370 -0.2035  0.1901
17801TIP3    H174818   5.283   6.761   1.393 -0.9366  0.3977  0.0320
17801TIP3    H274819   5.230   6.724   1.256 -0.0354  0.4220 -0.3234
17802TIP3   OH274820   5.117   2.246  13.585 -0.1976 -0.0683  0.6526
17802TIP3    H174821   5.100   2.267  13.677 -0.6973 -1.4744  0.8921
17802TIP3    H274822   5.184   2.178  13.588 -0.5282 -0.4243 -0.0058
17803TIP3   OH274823   0.228   0.317  13.508 -0.3396  0.0912  0.5728
17803TIP3    H174824   0.164   0.276  13.449  1.3025 -1.3916 -0.2298
17803TIP3    H274825   0.219   0.269  13.590  0.2961 -0.6396  0.2143
17804TIP3   OH274826   4.726   0.767  16.284  0.1680  0.2892  0.4209
17804TIP3    H174827   4.654   0.764  16.348  0.1513  0.0162  0.3883
17804TIP3    H274828   4.716   0.687  16.232  1.5432 -0.6317  1.5474
17805TIP3   OH274829   1.443   3.765  16.846 -0.0923 -0.1972 -0.2693
17805TIP3    H174830   1.397   3.723  16.919 -0.6459  1.0381  0.1146
17805TIP3    H274831   1.469   3.692  16.789 -1.0687 -1.0540  0.3484
17806TIP3   OH274832   3.228   1.670   1.828  0.2180  0.1834 -0.3147
17806TIP3    H174833   3.312   1.677   1.873  0.2910 -0.2839 -0.3710
17806TIP3    H274834   3.206   1.760   1.804  1.0112  0.2428 -0.8511
17807TIP3   OH274835   4.737   2.052   3.743 -0.2981 -0.2189  0.0325
17807TIP3    H174836   4.795   1.998   3.690 -2.0243 -0.5441 -1.5758
17807TIP3    H274837   4.651   2.011   3.735 -1.2418  1.6246  0.3941
17808TIP3   OH274838   4.090   1.015  13.330  0.0438  0.1336  0.3598
17808TIP3    H174839   4.185   1.026  13.328 -0.0624  0.9879 -0.5172
17808TIP3    H274840   4.076   0.931  13.372  1.2761 -0.8370 -1.1286
17809TIP3   OH274841   2.990   0.940  15.202  0.2329  0.0445  0.2388
17809TIP3    H174842   2.984   1.035  15.199 -0.1402  0.0792  1.9561
17809TIP3    H274843   3.082   0.921  15.187  0.0229  0.5651 -1.9938
17810TIP3   OH274844   4.871   5.933  13.929 -0.0371  0.2369  0.2079
17810TIP3    H174845   4.929   6.009  13.922 -0.5431  0.6128 -0.0254
17810TIP3    H274846   4.814   5.939  13.852 -1.2051  0.5947  1.0791
17811TIP3   OH274847   1.324   4.299   2.881  0.4968  0.5139 -0.1273
17811TIP3    H174848   1.269   4.229   2.845  2.2248 -0.4232 -1.0408
17811TIP3    H274849   1.376   4.328   2.806  1.0268  1.5799  0.6499
17812TIP3   OH274850   5.403   1.257  14.557 -0.3138 -0.1601  0.5555
17812TIP3    H174851   5.407   1.172  14.601 -1.0804  0.0410  1.0186
17812TIP3    H274852   5.481   1.304  14.587  1.1911 -1.4288 -1.2363
17813TIP3   OH274853   6.167   6.364  10.494  0.0186 -0.1876  0.4254
17813TIP3    H174854   6.099   6.329  10.436  0.8359 -0.0011 -0.6398
17813TIP3    H274855   6.204   6.287  10.536  1.3194 -0.5850 -1.3818
17814TIP3   OH274856   5.059   3.432  12.810 -0.2882 -0.4389  0.7145
17814TIP3    H174857   4.965   3.431  12.787 -0.6225 -2.1202  2.0561
17814TIP3    H274858   5.076   3.344  12.844  1.6501  0.0551  1.0733
17815TIP3   OH274859   2.515   3.625   0.501  0.0595 -0.0688 -0.2892
17815TIP3    H174860   2.545   3.678   0.427 -0.8180 -1.0864 -1.3928
17815TIP3    H274861   2.493   3.540   0.462  0.2793 -0.8462  1.2627
17816TIP3   OH274862   5.484   3.985   3.978 -0.3684 -0.4043 -0.1017
17816TIP3    H174863   5.458   3.961   3.889  0.1525 -0.5697 -0.2101
17816TIP3    H274864   5.404   4.023   4.016  0.1966  2.5638 -1.6790
17817TIP3   OH274865   3.832   0.420  11.641 -0.4175 -0.1049 -0.3803
17817TIP3    H174866   3.896   0.367  11.593 -1.6595  0.5117 -2.7953
17817TIP3    H274867   3.764   0.358  11.667 -0.6911 -0.1274 -1.1279
17818TIP3   OH274868   1.278   1.857   2.023 -0.2177 -0.5750 -0.4793
17818TIP3    H174869   1.236   1.894   2.100 -0.1349  0.2853 -0.8458
17818TIP3    H274870   1.292   1.765   2.046 -1.5692 -0.6876 -0.0557
17819TIP3   OH274871   1.765   3.741  14.241  0.4454  0.4400  0.0941
17819TIP3    H174872   1.852   3.781  14.236  1.7231 -2.0662  1.1060
17819TIP3    H274873   1.729   3.752  14.154  2.2524  0.5221 -0.6769
17820TIP3   OH274874   5.751   4.330   0.676  0.4877 -0.6326 -0.1575
17820TIP3    H174875   5.722   4.417   0.706  2.4768 -0.1111  0.3838
17820TIP3    H274876   5.671   4.286   0.649 -0.5782  1.3585 -0.3858
17821TIP3   OH274877   2.398   6.274   2.043 -0.3306  0.1340  0.1809
17821TIP3    H174878   2.458   6.253   2.114  0.5133  1.8445 -0.0030
17821TIP3    H274879   2.399   6.197   1.986  1.9846  0.3061 -0.0337
17822TIP3   OH274880   1.385   1.948  14.991  0.0141 -0.3111  0.0034
17822TIP3    H174881   1.319   1.941  15.060  0.1159 -0.6136  0.0680
17822TIP3    H274882   1.467   1.965  15.037  0.3916 -2.2368  0.0729
17823TIP3   OH274883   4.701   5.256   3.270 -0.0499  0.1691  0.8076
17823TIP3    H174884   4.643   5.196   3.225  2.2710 -1.0103 -0.7182
17823TIP3    H274885   4.700   5.226   3.361 -1.8574  0.2357  0.8291
17824TIP3   OH274886   6.612   1.471  15.289 -0.0617 -0.6043  0.3788
17824TIP3    H174887   6.617   1.385  15.330 -1.2605 -0.3892  1.0018
17824TIP3    H274888   6.589   1.453  15.198  0.4360 -0.9687  0.3185
17825TIP3   OH274889   5.250   1.510  13.211 -0.3282 -0.1989 -0.0508
17825TIP3    H174890   5.345   1.510  13.223  0.1634  0.1804 -3.4990
17825TIP3    H274891   5.230   1.422  13.180 -1.2110 -0.4838  1.3119
17826TIP3   OH274892   6.378   1.727  15.980  0.0198  0.1683  0.1865
17826TIP3    H174893   6.457   1.762  15.940 -0.7042  0.6228 -0.8783
17826TIP3    H274894   6.347   1.660  15.919 -0.5516  0.1754  0.4622
17827TIP3   OH274895   1.125   2.206   3.913 -0.2307 -0.2212 -0.0781
17827TIP3    H174896   1.154   2.297   3.918 -0.7264 -0.0688 -0.0243
17827TIP3    H274897   1.062   2.204   3.841  0.9305 -0.8325 -1.1145
17828TIP3   OH274898   3.260   5.567   2.034 -0.0392 -0.0754  0.3907
17828TIP3    H174899   3.220   5.580   2.119  1.9184  0.3837  1.2585
17828TIP3    H274900   3.354   5.571   2.050  0.3932 -1.3340 -1.5626
17829TIP3   OH274901   0.257   5.526  11.340  0.1393 -0.7712  0.1620
17829TIP3    H174902   0.188   5.587  11.312  0.1340 -0.6142  0.5209
17829TIP3    H274903   0.258   5.459  11.272 -0.5437 -0.9141  0.2898
17830TIP3   OH274904   4.513   0.552  15.297  0.3369 -0.3922 -0.0753
17830TIP3    H174905   4.466   0.513  15.223  2.4679 -0.9891 -1.1436
17830TIP3    H274906   4.472   0.512  15.374 -0.5912 -1.2642 -0.9980
17831TIP3   OH274907   1.583   1.828   2.690 -0.4033 -0.3536  0.5475
17831TIP3    H174908   1.612   1.744   2.653 -0.8921  0.7205 -2.4246
17831TIP3    H274909   1.656   1.856   2.746  1.0801 -1.3146 -0.8438
17832TIP3   OH274910   4.010   4.763   1.653 -0.2050 -0.2049 -0.1106
17832TIP3    H174911   4.038   4.742   1.564 -0.5411  0.5404 -0.3991
17832TIP3    H274912   4.028   4.684   1.703  0.3849 -0.4843 -0.7527
17833TIP3   OH274913   2.929   6.290  14.070 -0.2889 -0.2528 -0.2947
17833TIP3    H174914   3.001   6.242  14.111 -0.5325  0.5506  1.1156
17833TIP3    H274915   2.926   6.257  13.981 -0.3107 -2.6830  0.5684
17834TIP3   OH274916   3.509   0.404   1.782 -0.6810  0.1499 -0.1109
17834TIP3    H174917   3.601   0.381   1.773 -0.2966  1.6648 -0.1690
17834TIP3    H274918   3.462   0.321   1.773  0.7617 -0.8480  1.3624
17835TIP3   OH274919   0.427   0.351   3.025  0.2343  0.3539 -0.4613
17835TIP3    H174920   0.439   0.298   3.104 -1.1938  0.1539 -0.3555
17835TIP3    H274921   0.412   0.286   2.956 -1.4658  0.5928 -0.3420
17836TIP3   OH274922   2.535   0.547   5.625  0.0096  0.2317  0.4103
17836TIP3    H174923   2.464   0.491   5.594  3.1670 -2.2957 -2.7562
17836TIP3    H274924   2.549   0.609   5.553  1.4494  0.2814  0.7284
17837TIP3   OH274925   2.932   5.962   0.998  0.0181 -0.5948 -0.5502
17837TIP3    H174926   2.953   5.898   1.066  0.2913  0.1511  0.0793
17837TIP3    H274927   2.853   5.929   0.957 -1.0000 -0.3048  1.1248
17838TIP3   OH274928   3.424   6.318   5.450 -0.0999  0.3246 -0.7030
17838TIP3    H174929   3.340   6.291   5.487 -0.5286  1.5062 -0.8023
17838TIP3    H274930   3.463   6.375   5.516  0.4369  0.1084 -0.8326
17839TIP3   OH274931   3.140   4.343  12.297  0.0539 -0.1225  0.0326
17839TIP3    H174932   3.133   4.248  12.287  1.3172 -0.2647  0.4779
17839TIP3    H274933   3.198   4.370  12.226  0.5359  0.1911  0.5453
17840TIP3   OH274934   0.023   4.711   1.798 -0.2360  0.2661 -0.5046
17840TIP3    H174935   0.031   4.799   1.836  0.9460 -0.7006  1.5947
17840TIP3    H274936   0.109   4.695   1.758 -0.5073  0.1227 -1.0336
17841TIP3   OH274937   0.281   1.170  11.595  0.3991 -0.0255 -0.3359
17841TIP3    H174938   0.292   1.186  11.501  0.3375  2.0879 -0.0039
17841TIP3    H274939   0.369   1.181  11.631  0.4969 -1.2310 -0.1812
17842TIP3   OH274940   5.662   6.101  14.547  0.0961 -0.2825  0.2834
17842TIP3    H174941   5.588   6.156  14.523  1.4708  1.5815  0.1706
17842TIP3    H274942   5.624   6.016  14.567 -1.9007  0.2265 -1.2141
17843TIP3   OH274943   5.160   1.994   4.783  0.1586  0.3970 -0.3612
17843TIP3    H174944   5.200   1.985   4.870  0.7466 -0.0769 -0.6808
17843TIP3    H274945   5.094   1.925   4.781 -1.6061  2.0167  0.6711
17844TIP3   OH274946   3.136   4.992  16.022 -0.1066 -0.0031  0.1752
17844TIP3    H174947   3.065   5.056  16.013  0.5945  0.7957  0.2225
17844TIP3    H274948   3.119   4.926  15.955  0.4765  1.4866 -1.4838
17845TIP3   OH274949   2.447   4.328  13.826 -0.1547  0.6270 -0.1070
17845TIP3    H174950   2.529   4.298  13.786  0.6953 -1.5272  3.1204
17845TIP3    H274951   2.470   4.413  13.864  0.2432  0.6273 -0.3372
17846TIP3   OH274952   2.879   6.323   2.351  0.1682 -0.1679 -0.8551
17846TIP3    H174953   2.838   6.244   2.316 -2.2772  0.9663 -0.6090
17846TIP3    H274954   2.838   6.395   2.304  0.1123  1.1427  1.1173
17847TIP3   OH274955   3.937   2.306  15.943 -0.6011  0.2889  0.4035
17847TIP3    H174956   3.975   2.393  15.957  0.4532 -0.3636  1.7100
17847TIP3    H274957   3.860   2.322  15.889  1.0431  1.7516 -1.5761
17848TIP3   OH274958   0.291   0.312   3.739  0.2661  0.4932 -0.2989
17848TIP3    H174959   0.387   0.306   3.740  0.2186 -0.6495 -1.0612
17848TIP3    H274960   0.263   0.247   3.804  0.0252  1.4728  0.5832
17849TIP3   OH274961   3.395   5.055   2.865 -0.1160  0.2363 -0.5530
17849TIP3    H174962   3.321   4.995   2.862 -1.2278  1.3148  2.6021
17849TIP3    H274963   3.394   5.099   2.780 -3.8899  1.0513 -0.1956
17850TIP3   OH274964   4.091   3.856   1.187  0.2277  0.0977 -0.0052
17850TIP3    H174965   4.138   3.928   1.144 -0.5468  0.5284 -0.1314
17850TIP3    H274966   4.071   3.890   1.274  2.1170 -0.9061  0.8507
17851TIP3   OH274967   0.849   0.371   0.454  0.0215 -0.7094 -0.1144
17851TIP3    H174968   0.869   0.282   0.485 -1.4321 -1.6473 -1.7664
17851TIP3    H274969   0.755   0.381   0.471 -0.0822  0.0333 -1.0914
17852TIP3   OH274970   5.628   2.760   6.170  0.8483 -0.0140  0.1623
17852TIP3    H174971   5.639   2.836   6.227 -0.6133 -0.1791  0.6891
17852TIP3    H274972   5.701   2.703   6.191  0.7002  0.2399  1.3879
17853TIP3   OH274973   3.552   2.422   0.091 -0.0829  0.0997  0.1569
17853TIP3    H174974   3.601   2.471   0.157 -0.3001  0.2351  0.2170
17853TIP3    H274975   3.619   2.386   0.033  0.1896 -1.0089  1.1277
17854TIP3   OH274976   3.753   6.347  11.883  0.2474  0.1610 -0.6430
17854TIP3    H174977   3.673   6.400  11.879 -0.9513 -1.5153  0.6383
17854TIP3    H274978   3.795   6.372  11.965 -0.0848 -0.5506 -0.2585
17855TIP3   OH274979   4.838   6.743   1.702  0.2901 -0.5234 -0.5665
17855TIP3    H174980   4.781   6.807   1.744  0.3912  0.4048 -1.8214
17855TIP3    H274981   4.885   6.793   1.634  1.1764 -1.6835 -0.8261
17856TIP3   OH274982   6.287   1.652  14.645 -0.4040  0.1086  0.1346
17856TIP3    H174983   6.200   1.650  14.684  0.4145  0.1884  2.0372
17856TIP3    H274984   6.315   1.743  14.655  0.3751 -0.1819  0.6895
17857TIP3   OH274985   2.035   2.675  12.865 -0.3745 -0.3354 -0.4343
17857TIP3    H174986   2.103   2.668  12.933  0.3148  0.1384 -1.0595
17857TIP3    H274987   2.045   2.596  12.813  1.0666  0.6713 -1.7469
17858TIP3   OH274988   3.918   2.503   6.345 -0.2979  0.2965 -0.1424
17858TIP3    H174989   3.843   2.454   6.379  1.9699 -2.5330  0.9059
17858TIP3    H274990   3.961   2.539   6.423 -0.9848  2.6497 -0.7905
17859TIP3   OH274991   5.566   3.267   0.706 -0.2716 -0.4405 -0.1585
17859TIP3    H174992   5.524   3.318   0.775  1.4129 -1.3231  1.5346
17859TIP3    H274993   5.561   3.176   0.736  1.3413 -0.7342 -0.7300
17860TIP3   OH274994   3.681   1.650  11.877  0.5083 -0.0971 -0.5203
17860TIP3    H174995   3.748   1.635  11.810  1.5214 -0.7637  0.6225
17860TIP3    H274996   3.610   1.694  11.830  1.6914  0.5106 -1.7743
17861TIP3   OH274997   5.918   4.293   4.578 -0.0808 -0.1871  0.4417
17861TIP3    H174998   5.980   4.354   4.617  0.6381 -0.1388 -0.7423
17861TIP3    H274999   5.835   4.341   4.574  0.1345  0.2122  0.8114
17862TIP3   OH275000   0.295   3.107  16.978  0.5051 -0.5813 -0.2911
17862TIP3    H175001   0.243   3.185  16.962  0.9869  0.0572  1.1866
17862TIP3    H275002   0.255   3.039  16.923 -2.5554 -0.3908  1.6395
17863TIP3   OH275003   0.627   1.236   2.771 -0.2247  0.7511 -0.1030
17863TIP3    H175004   0.617   1.142   2.782 -1.0443  0.9108  0.5658
17863TIP3    H275005   0.635   1.248   2.676  2.2163 -0.1935 -0.0468
17864TIP3   OH275006   3.996   4.636  11.495 -0.7667  0.5351  0.0015
17864TIP3    H175007   3.931   4.702  11.472 -1.2353 -0.4542 -1.5252
17864TIP3    H275008   3.957   4.553  11.470  1.7138  0.0573 -2.4651
17865TIP3   OH275009   6.784   1.043  12.266  0.4235 -0.8532 -0.6953
17865TIP3    H175010   6.782   0.958  12.223  1.8475 -2.0026  1.3904
17865TIP3    H275011   6.854   1.091  12.223 -0.2375 -0.8070 -1.7288
17866TIP3   OH275012   2.271   5.112  12.652 -0.3726 -0.1581  0.3979
17866TIP3    H175013   2.244   5.022  12.670 -2.2391  0.8301  2.7604
17866TIP3    H275014   2.222   5.136  12.573 -1.3719 -0.5521  0.8901
17867TIP3   OH275015   4.248   5.424  15.112 -0.5575  0.1221 -0.0065
17867TIP3    H175016   4.251   5.519  15.114 -0.6389  0.1223  0.1011
17867TIP3    H275017   4.183   5.400  15.178 -1.1348  0.0204 -0.6086
17868TIP3   OH275018   4.866   3.853  15.652 -0.2625  0.0710 -0.3380
17868TIP3    H175019   4.813   3.928  15.626  0.2280  0.9231  1.0924
17868TIP3    H275020   4.862   3.852  15.748  2.1809  0.0961 -0.1969
17869TIP3   OH275021   4.234   1.972  11.682 -0.0804  0.1779  0.2402
17869TIP3    H175022   4.215   1.902  11.745 -0.7932  1.3375  1.3543
17869TIP3    H275023   4.151   1.985  11.636 -0.0702  0.5445  0.3196
17870TIP3   OH275024   0.492   1.554   4.872 -0.3339 -0.5423 -0.3398
17870TIP3    H175025   0.572   1.529   4.918 -1.0212 -2.1033  0.0402
17870TIP3    H275026   0.512   1.541   4.779  0.6307  1.3776 -0.4191
17871TIP3   OH275027   3.625   5.340   1.616 -0.4058 -0.0801  0.3201
17871TIP3    H175028   3.544   5.302   1.651 -0.2873 -0.5523  0.0976
17871TIP3    H275029   3.609   5.346   1.521 -0.5965  0.8652  0.4124
17872TIP3   OH275030   2.949   2.584   2.428  0.0166  0.0900 -0.0608
17872TIP3    H175031   2.944   2.495   2.394 -1.2279  0.6630 -1.4223
17872TIP3    H275032   2.965   2.573   2.522  0.1250 -1.5547 -0.2610
17873TIP3   OH275033   2.504   2.866   2.832  0.0499 -0.3905 -0.2718
17873TIP3    H175034   2.416   2.900   2.820  0.8504  1.4872 -1.0014
17873TIP3    H275035   2.498   2.774   2.805 -1.7790 -0.4147  0.1666
17874TIP3   OH275036   4.713   2.289   2.232 -0.1734 -0.6128 -0.2538
17874TIP3    H175037   4.648   2.324   2.293 -0.3995 -1.8571  0.2294
17874TIP3    H275038   4.688   2.197   2.221  1.0382 -0.8926 -0.6963
17875TIP3   OH275039   2.174   4.574  16.468 -0.0102 -0.3298 -0.1626
17875TIP3    H175040   2.081   4.576  16.446 -0.3477  2.8387  1.2646
17875TIP3    H275041   2.176   4.592  16.562  2.0585  0.4951 -0.3398
17876TIP3   OH275042   1.730   4.963   1.109 -0.2271 -0.1401  0.2079
17876TIP3    H175043   1.644   4.972   1.069  0.3607  0.8719 -0.8865
17876TIP3    H275044   1.769   4.888   1.063 -0.0246  0.2441 -0.2558
17877TIP3   OH275045   3.960   3.433  11.745 -0.0824  0.3244  0.2362
17877TIP3    H175046   3.929   3.347  11.774 -1.4366  1.2388  1.5362
17877TIP3    H275047   4.003   3.416  11.661  1.1677 -1.8899  1.2906
17878TIP3   OH275048   6.265   1.125   5.195 -0.2319  0.3458 -0.6239
17878TIP3    H175049   6.331   1.195   5.201  0.1976 -0.2105  1.3556
17878TIP3    H275050   6.317   1.045   5.181 -0.3751 -0.2482  2.0005
17879TIP3   OH275051   1.885   0.114  16.835  0.4558  0.3285 -0.0827
17879TIP3    H175052   1.850   0.030  16.863 -1.0663  1.3449  1.1661
17879TIP3    H275053   1.973   0.094  16.803 -0.6066 -2.0240 -1.6762
17880TIP3   OH275054   5.025   6.012  12.373  0.6025  0.6310 -0.2822
17880TIP3    H175055   4.946   6.062  12.357 -0.4457 -0.7176  0.5442
17880TIP3    H275056   5.038   6.018  12.468  1.3612  0.6621 -0.3847
17881TIP3   OH275057   3.015   6.350  11.932  0.8924  0.3005  0.2553
17881TIP3    H175058   3.015   6.323  12.023  0.7261  4.0941  1.4611
17881TIP3    H275059   2.928   6.327  11.900 -0.1052  1.6139  1.9348
17882TIP3   OH275060   2.675   6.503  13.309  0.4735 -0.1620  0.2191
17882TIP3    H175061   2.738   6.549  13.365  1.2680 -0.0523 -0.7357
17882TIP3    H275062   2.659   6.420  13.354  0.1894  0.4148  1.1920
17883TIP3   OH275063   6.780   0.635   6.055  0.4218  0.0671  0.4860
17883TIP3    H175064   6.847   0.572   6.082 -1.3463 -3.0460 -2.0322
17883TIP3    H275065   6.712   0.628   6.122 -0.5353 -2.0449 -0.6566
17884TIP3   OH275066   6.307   4.527   3.901 -0.5134  0.0130 -0.0405
17884TIP3    H175067   6.315   4.470   3.824  1.9197  0.5470 -0.2124
17884TIP3    H275068   6.350   4.609   3.875  0.7265  0.0432  2.0237
17885TIP3   OH275069   6.149   4.470  15.516 -0.5831  0.1959  0.2402
17885TIP3    H175070   6.126   4.503  15.430 -0.7840  0.6629  0.4717
17885TIP3    H275071   6.066   4.444  15.556 -0.6499  1.2753  0.8230
17886TIP3   OH275072   5.559   5.648   1.454  0.3277  0.3062  0.5338
17886TIP3    H175073   5.594   5.608   1.533  0.9214 -1.8774 -0.7943
17886TIP3    H275074   5.633   5.649   1.393  0.4011  3.6318  0.5582
17887TIP3   OH275075   2.973   5.143   3.054  0.0936 -0.2238 -0.2599
17887TIP3    H175076   2.980   5.092   3.135  0.1407  1.0751  0.5690
17887TIP3    H275077   3.060   5.138   3.015  1.1178  2.1554  1.6296
17888TIP3   OH275078   1.875   5.978  13.283 -0.4106  0.1386 -0.2074
17888TIP3    H175079   1.895   5.994  13.375 -0.4497 -1.4802  0.1023
17888TIP3    H275080   1.792   5.929  13.285 -0.3409 -0.0272 -1.0867
17889TIP3   OH275081   0.133   3.505  13.147  0.0331  0.2714  0.4675
17889TIP3    H175082   0.127   3.600  13.137  1.8148  0.2593 -1.0330
17889TIP3    H275083   0.222   3.489  13.177 -0.9518 -0.8011  2.9562
17890TIP3   OH275084   2.315   0.589   1.380 -0.2298 -0.2420 -0.0639
17890TIP3    H175085   2.371   0.529   1.331 -0.1834  0.5070 -0.9381
17890TIP3    H275086   2.240   0.536   1.406  0.2907 -0.9366  0.0625
17891TIP3   OH275087   3.516   4.372  13.752 -0.0905  0.6470 -0.0038
17891TIP3    H175088   3.542   4.459  13.723  2.8271  0.2749  1.2325
17891TIP3    H275089   3.571   4.356  13.829 -0.5080 -2.3045 -0.2630
17892TIP3   OH275090   1.425   3.964  12.717 -0.4520  0.2047  0.4948
17892TIP3    H175091   1.334   3.982  12.741 -0.8607  0.5297 -1.2341
17892TIP3    H275092   1.431   3.990  12.625  0.6665 -2.4635 -0.2145
17893TIP3   OH275093   4.441   0.414  15.907  0.1628 -0.3633 -0.1913
17893TIP3    H175094   4.351   0.385  15.915 -0.8302  1.9582 -2.2636
17893TIP3    H275095   4.436   0.494  15.854  3.1999  1.0333  1.4885
17894TIP3   OH275096   4.054   0.352   2.501 -0.1873  0.1433 -0.0365
17894TIP3    H175097   4.134   0.323   2.458 -1.3700  0.1642 -2.3749
17894TIP3    H275098   4.005   0.271   2.517 -0.4134  0.2612 -0.1226
17895TIP3   OH275099   2.248   0.479   3.648 -0.8539  0.0139 -0.2081
17895TIP3    H175100   2.185   0.518   3.589 -0.5502  1.0512  0.1536
17895TIP3    H275101   2.266   0.546   3.714  0.8163 -0.1593 -0.4482
17896TIP3   OH275102   2.980   0.594  16.899 -0.1514 -0.6879  0.5524
17896TIP3    H175103   2.946   0.649  16.829 -0.2992 -1.1254  0.2811
17896TIP3    H275104   2.905   0.541  16.927  0.8747 -3.6187 -1.8963
17897TIP3   OH275105   3.313   5.113  14.934 -0.0635  0.0203 -0.1334
17897TIP3    H175106   3.386   5.052  14.923 -0.0589  0.0754 -0.4307
17897TIP3    H275107   3.237   5.065  14.900 -0.1062  0.0829 -0.1252
17898TIP3   OH275108   4.849   2.505  15.851  0.2800  0.0641 -0.6161
17898TIP3    H175109   4.933   2.500  15.806  0.8190  1.7567  0.1911
17898TIP3    H275110   4.788   2.538  15.784  0.2911 -0.9571 -1.1385
17899TIP3   OH275111   1.193   5.095   2.656 -1.0092  0.0343 -0.0565
17899TIP3    H175112   1.260   5.153   2.618  0.4173 -1.6104 -0.0798
17899TIP3    H275113   1.179   5.028   2.589 -1.3719 -0.6560  0.7175
17900TIP3   OH275114   0.955   4.571  11.953 -0.0064  0.0059 -0.4107
17900TIP3    H175115   0.962   4.601  11.863  3.5168  1.8383  0.3753
17900TIP3    H275116   0.929   4.648  12.003  2.5833  0.2157  0.7199
17901TIP3   OH275117   5.224   5.456   2.316  0.8129  0.2699  0.1876
17901TIP3    H175118   5.223   5.409   2.232  2.3249 -0.7972  0.7340
17901TIP3    H275119   5.132   5.459   2.343 -0.1181  3.3822 -2.9795
17902TIP3   OH275120   4.199   4.767   3.796  0.3564  0.1168 -0.1823
17902TIP3    H175121   4.291   4.748   3.814  0.5634 -0.3739 -1.6950
17902TIP3    H275122   4.165   4.686   3.760 -0.1715  0.8926 -1.4596
17903TIP3   OH275123   5.208   6.301   6.278  0.4594 -0.1237  0.1961
17903TIP3    H175124   5.156   6.358   6.334 -0.6505 -0.2016 -0.7419
17903TIP3    H275125   5.144   6.244   6.235  1.2795 -0.0116 -1.1939
17904TIP3   OH275126   5.235   5.144  11.522  0.1822  0.6272  0.1903
17904TIP3    H175127   5.227   5.112  11.432 -0.8125  0.6891  0.2437
17904TIP3    H275128   5.206   5.235  11.518 -1.7360  0.0874  0.8890
17905TIP3   OH275129   5.248   1.835  14.597  0.5017 -0.4314 -0.4291
17905TIP3    H175130   5.200   1.838  14.514  0.2107  0.0812 -0.2465
17905TIP3    H275131   5.198   1.776  14.653 -0.4169  0.7837  0.0640
17906TIP3   OH275132   2.960   2.700  14.058 -0.0275 -0.2118  0.1164
17906TIP3    H175133   2.872   2.665  14.067 -0.1427  0.6723  3.0509
17906TIP3    H275134   2.948   2.795  14.051  0.6962 -0.0508  0.9606
17907TIP3   OH275135   2.925   3.859  15.117  0.2259 -0.0493  0.2274
17907TIP3    H175136   2.862   3.788  15.133  2.0771 -2.0151 -0.8785
17907TIP3    H275137   3.008   3.825  15.152  1.3726  1.0958 -1.3017
17908TIP3   OH275138   3.737   4.174  14.196 -0.1216 -0.6479  0.5950
17908TIP3    H175139   3.782   4.188  14.279  0.6276  3.2817 -0.3671
17908TIP3    H275140   3.804   4.141  14.137  0.8102  2.0595  0.0585
17909TIP3   OH275141   3.980   3.020  11.199  0.3464 -0.1106 -0.0940
17909TIP3    H175142   3.988   3.030  11.294  2.0670 -3.1730  0.1410
17909TIP3    H275143   3.921   2.945  11.188  1.2135 -0.6130 -1.4319
17910TIP3   OH275144   4.777   2.795   1.346  0.3500  0.3486 -0.4304
17910TIP3    H175145   4.727   2.717   1.324  2.3288 -0.2961 -2.8626
17910TIP3    H275146   4.861   2.762   1.380  1.0153  1.3952 -1.0245
17911TIP3   OH275147   6.553   0.334  10.559 -0.6422 -0.3978  0.2928
17911TIP3    H175148   6.522   0.393  10.627  1.4798  1.8167 -0.5577
17911TIP3    H275149   6.505   0.361  10.481  0.8353  0.7279 -0.2525
17912TIP3   OH275150   2.759   3.309   3.877  0.1823  0.0211 -0.0059
17912TIP3    H175151   2.687   3.360   3.914 -0.3550 -1.1134  0.5401
17912TIP3    H275152   2.755   3.327   3.783 -1.6417 -1.0272 -0.1582
17913TIP3   OH275153   1.961   2.436  16.347 -0.0684  0.5902 -0.5795
17913TIP3    H175154   1.960   2.357  16.400  1.7242 -0.6119 -2.3027
17913TIP3    H275155   2.000   2.410  16.264  0.2910  3.2182 -1.2931
17914TIP3   OH275156   5.508   5.800  11.423 -0.2630  0.0019 -0.4468
17914TIP3    H175157   5.556   5.768  11.347  0.6996  0.3280  0.0203
17914TIP3    H275158   5.542   5.748  11.496 -0.5340  0.3174 -0.0977
17915TIP3   OH275159   1.960   4.736   2.342  0.1191  0.0287 -0.2951
17915TIP3    H175160   2.025   4.733   2.273  1.6086  0.4088  1.0583
17915TIP3    H275161   1.931   4.828   2.344 -1.0822 -0.3125 -1.4424
17916TIP3   OH275162   4.735   4.273  11.604 -0.3844  0.1095 -0.2545
17916TIP3    H175163   4.745   4.217  11.527 -0.7537  0.4352 -0.5395
17916TIP3    H275164   4.821   4.269  11.647 -1.1389 -2.6311  1.0722
17917TIP3   OH275165   2.104   5.921   2.421 -0.4969 -0.0568  0.3872
17917TIP3    H175166   2.192   5.960   2.420 -0.1570 -0.7476  1.9257
17917TIP3    H275167   2.088   5.895   2.330  0.5673  0.7907 -0.0504
17918TIP3   OH275168   4.002   0.828  13.709  0.3186 -0.2113 -0.0110
17918TIP3    H175169   3.966   0.743  13.686 -0.2239 -0.5482  1.9706
17918TIP3    H275170   4.097   0.815  13.712  0.1193 -1.3430  2.4620
17919TIP3   OH275171   6.604   0.236   4.559 -0.2547  0.4991 -0.1448
17919TIP3    H175172   6.645   0.172   4.501  1.8997  0.8757  0.8848
17919TIP3    H275173   6.586   0.312   4.503  0.3853  0.2864 -0.6456
17920TIP3   OH275174   1.056   0.849  11.155 -0.3301  0.1982  0.1031
17920TIP3    H175175   1.026   0.831  11.066 -2.0667  0.1790  0.6916
17920TIP3    H275176   1.008   0.788  11.210 -0.2762  1.1369  1.2167
17921TIP3   OH275177   4.594   1.336   3.285 -0.1666 -0.3281 -0.0518
17921TIP3    H175178   4.687   1.339   3.310 -0.7721  1.4329  2.2124
17921TIP3    H275179   4.584   1.410   3.225 -0.3080  0.1305  0.5294
17922TIP3   OH275180   3.958   5.685  15.053 -0.1664 -0.2363 -0.0010
17922TIP3    H175181   4.016   5.726  14.989 -1.0000  0.6973 -0.1566
17922TIP3    H275182   3.931   5.603  15.011 -0.6100  0.3082 -0.7982
17923TIP3   OH275183   5.783   5.072  16.177 -0.1142  0.5445 -0.0417
17923TIP3    H175184   5.694   5.085  16.208 -0.6961 -2.7202 -0.1610
17923TIP3    H275185   5.777   5.082  16.082 -0.4982 -0.2735 -0.1098
17924TIP3   OH275186   3.229   1.875  11.415 -0.2551 -0.0480  0.0445
17924TIP3    H175187   3.319   1.862  11.387 -0.2091 -0.8165  0.5331
17924TIP3    H275188   3.236   1.908  11.505 -0.4647 -0.4188  0.1980
17925TIP3   OH275189   3.598   5.326  13.009  0.1441  0.5722 -0.2024
17925TIP3    H175190   3.672   5.290  13.058  0.4516  0.0235 -1.0539
17925TIP3    H275191   3.597   5.276  12.927  0.6151  2.5448 -1.4453
17926TIP3   OH275192   6.313   4.949   4.537 -0.5630 -0.3379  0.2580
17926TIP3    H175193   6.288   5.003   4.462 -1.1180  0.8922  1.3124
17926TIP3    H275194   6.308   4.859   4.505 -0.4768  0.1950 -1.2707
17927TIP3   OH275195   4.677   3.898  10.841  0.0922  0.1630  0.4932
17927TIP3    H175196   4.616   3.878  10.911  0.5739 -3.0201  0.0424
17927TIP3    H275197   4.744   3.953  10.882  0.7700 -2.2623  2.7451
17928TIP3   OH275198   1.758   5.860   1.802  0.1909  0.4973  0.5672
17928TIP3    H175199   1.762   5.899   1.715 -0.3075  0.5895  0.5850
17928TIP3    H275200   1.687   5.906   1.846 -2.3675 -2.3306 -0.3576
17929TIP3   OH275201   5.051   2.282  10.911  0.7694  0.1521 -0.1186
17929TIP3    H175202   4.957   2.299  10.912  0.5825 -0.7740 -0.6279
17929TIP3    H275203   5.060   2.194  10.949  1.2815 -0.3694 -1.4214
17930TIP3   OH275204   1.267   3.333  16.911  0.0194 -0.2435  0.2357
17930TIP3    H175205   1.324   3.273  16.958  1.3338  2.2084  1.8790
17930TIP3    H275206   1.311   3.349  16.828 -0.6660 -2.0117 -0.4912
17931TIP3   OH275207   2.528   1.474   6.421  0.2219  0.0094 -0.0266
17931TIP3    H175208   2.611   1.445   6.382  0.4326  1.3420 -0.5931
17931TIP3    H275209   2.460   1.437   6.365  0.4196 -1.3660  0.6305
17932TIP3   OH275210   5.304   4.040  16.483  0.5500  0.0612  0.7231
17932TIP3    H175211   5.305   4.072  16.392  0.2513 -1.1692  0.2841
17932TIP3    H275212   5.232   3.977  16.485  0.1589  0.5462  1.9781
17933TIP3   OH275213   2.429   6.225   5.853  0.0635  0.2389  0.3612
17933TIP3    H175214   2.457   6.306   5.896 -0.2942  0.3780  0.3302
17933TIP3    H275215   2.508   6.170   5.854 -0.2206 -0.1880  2.1912
17934TIP3   OH275216   1.757   2.634  17.017 -0.1062  0.2128  0.0291
17934TIP3    H175217   1.841   2.610  16.978  0.5542  1.5855  0.5707
17934TIP3    H275218   1.722   2.701  16.958 -1.4071 -1.2149 -0.8639
17935TIP3   OH275219   0.127   4.514   3.907  0.1926 -0.0407 -0.2738
17935TIP3    H175220   0.165   4.490   3.991 -0.4813  1.2127  0.4021
17935TIP3    H275221   0.199   4.553   3.858  0.5620 -0.6836 -0.2415
17936TIP3   OH275222   2.676   1.619   5.983  0.3271 -0.0548  0.5861
17936TIP3    H175223   2.747   1.556   5.997  1.8064  1.4437  0.0745
17936TIP3    H275224   2.619   1.609   6.059  3.0963  1.3276  2.9123
17937TIP3   OH275225   4.114   0.574  14.596 -0.7082 -0.0719 -0.0711
17937TIP3    H175226   4.123   0.574  14.501  2.9517 -0.2523  0.1865
17937TIP3    H275227   4.144   0.486  14.622  0.0770  0.5947  1.3324
17938TIP3   OH275228   5.467   2.587  16.315 -0.3862 -0.3211 -0.0179
17938TIP3    H175229   5.412   2.649  16.362  0.1643 -0.2287  0.5091
17938TIP3    H275230   5.466   2.618  16.225  0.0584  0.5757  0.2820
17939TIP3   OH275231   2.332   0.805   2.328 -0.5056  0.1494 -0.1129
17939TIP3    H175232   2.289   0.805   2.243 -1.6077  0.1754  0.4311
17939TIP3    H275233   2.260   0.815   2.391  0.4584  2.3081  0.7114
17940TIP3   OH275234   3.530   3.622   6.599  0.3777  0.4051 -0.4871
17940TIP3    H175235   3.596   3.557   6.578  1.4330  1.5577 -0.7853
17940TIP3    H275236   3.551   3.652   6.687  0.3596  0.8986 -0.6458
17941TIP3   OH275237   3.172   6.230   5.587 -0.9115 -0.3340 -0.0963
17941TIP3    H175238   3.087   6.268   5.567 -0.7639  0.3500  0.5759
17941TIP3    H275239   3.157   6.176   5.665 -0.1205  2.0993  1.7814
17942TIP3   OH275240   4.014   4.523  16.736 -0.7172 -0.0185  0.2406
17942TIP3    H175241   4.009   4.552  16.644  0.3481 -1.2651 -0.2296
17942TIP3    H275242   3.934   4.472  16.749 -1.1571  0.6472  0.1915
17943TIP3   OH275243   1.429   6.784  10.980  0.0353 -0.4060 -0.1937
17943TIP3    H175244   1.494   6.792  11.050 -0.1407 -1.7723  0.1497
17943TIP3    H275245   1.441   6.695  10.946  0.0155  0.1889 -1.8073
17944TIP3   OH275246   1.402   6.522  10.874  0.0496 -0.3215 -0.2425
17944TIP3    H175247   1.366   6.489  10.791 -0.9639 -0.4356  0.2449
17944TIP3    H275248   1.381   6.454  10.938 -0.4061  0.4230  0.3977
17945TIP3   OH275249   3.518   1.414  16.264  0.3398  0.0720 -0.9630
17945TIP3    H175250   3.467   1.422  16.184 -0.6719 -1.0804 -0.4366
17945TIP3    H275251   3.570   1.335  16.251  1.3154  0.7223 -1.0986
17946TIP3   OH275252   6.579   3.814   1.841 -0.1104 -0.6491 -0.1947
17946TIP3    H175253   6.584   3.875   1.767 -0.8953  0.5114  0.6890
17946TIP3    H275254   6.495   3.770   1.830 -1.0806  0.8579  1.0056
17947TIP3   OH275255   6.623   5.080  11.775  0.0576  0.6140  0.0448
17947TIP3    H175256   6.575   4.997  11.780  0.2648  0.4052 -1.1946
17947TIP3    H275257   6.653   5.095  11.864  0.0475 -0.6728  0.2821
17948TIP3   OH275258   4.911   5.832   5.924  0.3709 -0.1894  0.8657
17948TIP3    H175259   4.878   5.903   5.870  2.2269  1.3927  1.7132
17948TIP3    H275260   4.871   5.846   6.010  0.4424 -0.3966  0.9337
17949TIP3   OH275261   6.503   3.588  12.403 -0.5991 -0.7792 -0.2132
17949TIP3    H175262   6.584   3.639  12.414 -0.9040 -0.2908 -0.2500
17949TIP3    H275263   6.484   3.554  12.490 -0.4482 -0.7593 -0.1719
17950TIP3   OH275264   1.097   5.984   4.339  0.0153 -0.6564  0.0706
17950TIP3    H175265   1.041   5.961   4.265 -0.5921  0.5509  0.1500
17950TIP3    H275266   1.036   5.998   4.411  0.3624  1.4156 -0.0326
17951TIP3   OH275267   0.729   2.500   6.396 -0.0133  0.3121 -0.3274
17951TIP3    H175268   0.783   2.484   6.473  1.2960  0.8877 -1.1142
17951TIP3    H275269   0.686   2.416   6.379  0.2647 -0.0199  0.5792
17952TIP3   OH275270   5.027   2.121   1.246 -0.3059  0.0855  0.3481
17952TIP3    H175271   5.094   2.077   1.196 -2.0696 -0.1311 -1.9048
17952TIP3    H275272   5.054   2.213   1.247  0.6456 -0.1874  0.5713
17953TIP3   OH275273   5.556   6.542  13.486 -0.0243  0.3971  0.6636
17953TIP3    H175274   5.532   6.592  13.407 -1.8470  1.3599  1.8028
17953TIP3    H275275   5.543   6.604  13.558 -1.5578 -1.4735  2.0373
17954TIP3   OH275276   1.938   5.290  14.598 -0.2898 -0.2632 -0.0179
17954TIP3    H175277   1.856   5.340  14.598  0.2834  0.6945  0.9081
17954TIP3    H275278   1.994   5.337  14.536  0.6056  0.8706  1.6069
17955TIP3   OH275279   4.551   3.119  15.817  0.3621  0.2399  0.0667
17955TIP3    H175280   4.541   3.101  15.724  0.4172  1.0863 -0.1057
17955TIP3    H275281   4.571   3.213  15.822  0.3953  0.1947  0.9244
17956TIP3   OH275282   1.352   6.024   5.191 -1.0383  0.1657 -0.1420
17956TIP3    H175283   1.319   6.087   5.255 -0.6874  0.3637 -0.1564
17956TIP3    H275284   1.436   5.995   5.228  0.0885  1.6968 -1.4471
17957TIP3   OH275285   1.990   4.376  13.694 -0.3758 -0.1396  0.4965
17957TIP3    H175286   1.968   4.324  13.617  0.8633  0.5033 -0.3087
17957TIP3    H275287   2.003   4.312  13.764 -0.1655 -0.8199 -0.1652
17958TIP3   OH275288   5.709   5.367  16.429 -0.4813  0.3646  0.3890
17958TIP3    H175289   5.768   5.431  16.389 -1.9708  0.6867 -1.4025
17958TIP3    H275290   5.647   5.420  16.479 -0.1990  0.1425  0.9708
17959TIP3   OH275291   2.486   2.228   2.949 -0.2237  0.3121  0.1181
17959TIP3    H175292   2.436   2.260   3.023  0.8532 -0.5413  1.2245
17959TIP3    H275293   2.577   2.233   2.977  0.2771  0.9323 -1.5167
17960TIP3   OH275294   1.219   1.078   1.447 -0.0215  0.2729  0.5031
17960TIP3    H175295   1.197   1.132   1.370 -1.0637 -1.1093 -0.2044
17960TIP3    H275296   1.138   1.031   1.466  1.0921 -1.6316  0.6121
17961TIP3   OH275297   5.073   5.319  16.151  0.0254  0.0285 -0.2175
17961TIP3    H175298   5.061   5.414  16.157 -0.0381 -0.1180  2.6022
17961TIP3    H275299   5.011   5.291  16.083 -1.7828  1.7058  0.6816
17962TIP3   OH275300   2.620   3.126   4.130  0.1254 -0.4602 -0.5656
17962TIP3    H175301   2.689   3.171   4.178 -0.2960 -0.5854  0.1659
17962TIP3    H275302   2.665   3.059   4.079  0.5304 -0.6084 -0.0097
17963TIP3   OH275303   3.852   5.528   3.642  1.1320  0.6299  0.4462
17963TIP3    H175304   3.784   5.488   3.696  0.1678  2.3583  0.5214
17963TIP3    H275305   3.874   5.460   3.577 -0.5972  0.0345  0.4633
17964TIP3   OH275306   1.877   2.146  12.117 -0.1297  0.0953  0.1869
17964TIP3    H175307   1.935   2.221  12.124 -0.5181  0.4608 -0.4441
17964TIP3    H275308   1.791   2.183  12.097 -0.6006 -0.4323  1.2071
17965TIP3   OH275309   5.873   0.353   4.641  0.7877 -0.2618 -0.1417
17965TIP3    H175310   5.932   0.314   4.576  1.0238 -0.9224  0.4602
17965TIP3    H275311   5.788   0.315   4.621  0.8355 -0.3664 -0.1483
17966TIP3   OH275312   5.950   0.274   2.394  0.3720  0.2166  0.5532
17966TIP3    H175313   6.007   0.329   2.339 -1.0187 -0.9057 -2.0972
17966TIP3    H275314   5.876   0.330   2.415  0.1335  0.1407 -0.0786
17967TIP3   OH275315   3.205   4.768  15.588  0.2302 -0.5216  0.7661
17967TIP3    H175316   3.196   4.731  15.500 -0.3705  0.6865  0.3051
17967TIP3    H275317   3.296   4.753  15.611  0.7687  0.4715 -0.6624
17968TIP3   OH275318   1.377   4.428  13.900 -0.4751 -0.0851 -0.1075
17968TIP3    H175319   1.324   4.385  13.967 -0.4415  0.6412  0.3870
17968TIP3    H275320   1.389   4.361  13.833  0.7707 -1.3080  1.2946
17969TIP3   OH275321   6.774   4.796  17.093  0.3863 -0.0826  0.0132
17969TIP3    H175322   6.853   4.742  17.081 -0.1585 -0.8010 -0.3835
17969TIP3    H275323   6.741   4.810  17.005 -0.7208 -0.9785  0.2757
17970TIP3   OH275324   5.354   5.733  11.866  0.0175 -0.4747 -0.1507
17970TIP3    H175325   5.294   5.659  11.877 -0.1937 -0.0566  1.6612
17970TIP3    H275326   5.440   5.693  11.857 -0.2425 -0.9919 -0.3422
17971TIP3   OH275327   1.346   2.679  14.200 -0.0776  0.5903  0.7489
17971TIP3    H175328   1.395   2.599  14.214 -0.6627  0.1148  0.1249
17971TIP3    H275329   1.393   2.746  14.250  0.8575  0.0226  0.6341
17972TIP3   OH275330   4.994   4.705   5.287  0.4781  0.1410 -0.8333
17972TIP3    H175331   4.906   4.672   5.307  1.5309 -2.1425  0.1615
17972TIP3    H275332   5.011   4.678   5.197  1.3036 -2.0327 -0.0502
17973TIP3   OH275333   0.391   5.328   1.105 -0.6955  0.4011 -0.0847
17973TIP3    H175334   0.436   5.305   1.023 -2.6481 -1.1495 -0.7534
17973TIP3    H275335   0.417   5.418   1.122  0.7050  0.3461 -1.7708
17974TIP3   OH275336   5.286   0.068   1.877 -0.3627  0.4450  0.0184
17974TIP3    H175337   5.329   0.002   1.823 -0.7334  1.3461 -1.4421
17974TIP3    H275338   5.321   0.055   1.965  1.4678 -0.0447 -0.7652
17975TIP3   OH275339   2.562   1.246   5.316 -0.1442  0.7242  0.2863
17975TIP3    H175340   2.580   1.305   5.389  3.2337  1.1144 -0.7800
17975TIP3    H275341   2.553   1.303   5.240  1.0900  0.0492 -0.3911
17976TIP3   OH275342   5.406   1.611  15.485  0.3509 -0.2495 -0.1331
17976TIP3    H175343   5.313   1.607  15.465  0.5491 -0.5830 -1.0359
17976TIP3    H275344   5.447   1.552  15.421  1.3777  1.3662 -0.9816
17977TIP3   OH275345   1.752   2.009   1.235 -0.0149 -0.3856 -0.1344
17977TIP3    H175346   1.800   1.974   1.160 -0.5317 -1.2243 -0.0743
17977TIP3    H275347   1.815   2.005   1.307  0.9464  1.7186 -0.8118
17978TIP3   OH275348   1.615   5.550  11.556  0.7110  0.4801 -0.0331
17978TIP3    H175349   1.581   5.585  11.639  0.0375 -0.2763  0.0165
17978TIP3    H275350   1.548   5.573  11.491  0.9064  0.4628 -0.2402
17979TIP3   OH275351   2.111   5.799  16.364 -0.3592  0.3096  0.5128
17979TIP3    H175352   2.161   5.818  16.285 -1.4584 -0.8681 -0.4813
17979TIP3    H275353   2.043   5.738  16.336  0.2198 -1.4130  2.6459
17980TIP3   OH275354   4.228   3.654  11.786 -0.1230 -0.0102  0.5081
17980TIP3    H175355   4.215   3.695  11.872  2.0177 -0.6005  1.1512
17980TIP3    H275356   4.204   3.722  11.723  1.2073  1.4869  1.5770
17981TIP3   OH275357   6.467   0.498   0.934 -0.9948  0.4183  0.0587
17981TIP3    H175358   6.489   0.406   0.951 -1.9266  0.3413  0.9532
17981TIP3    H275359   6.526   0.547   0.991 -1.2274  0.3186  0.3934
17982TIP3   OH275360   3.039   0.703   0.874  0.2341 -0.5915  0.0192
17982TIP3    H175361   3.121   0.672   0.837  0.5269  0.1723  0.0179
17982TIP3    H275362   3.042   0.675   0.965  0.8068  0.0275  0.1945
17983TIP3   OH275363   2.672   1.532  11.554  0.1058  0.3690 -0.3298
17983TIP3    H175364   2.672   1.606  11.614 -2.0484 -1.5324  2.1284
17983TIP3    H275365   2.627   1.564  11.476  0.4482  2.0317  0.1275
17984TIP3   OH275366   3.344   5.671   4.010 -0.1451 -0.0448  0.5870
17984TIP3    H175367   3.299   5.597   3.969 -2.3434  1.1111  0.8308
17984TIP3    H275368   3.337   5.742   3.947 -0.2001  0.6510  1.3724
17985TIP3   OH275369   4.097   2.490  17.075 -0.2841 -0.5281  0.3465
17985TIP3    H175370   4.083   2.554  17.144 -0.5345 -0.8408  0.5820
17985TIP3    H275371   4.096   2.406  17.119 -0.2632 -0.7181 -0.0127
17986TIP3   OH275372   0.589   5.657   6.103  0.0805 -0.9709  0.6012
17986TIP3    H175373   0.681   5.640   6.082  0.3002  0.4840  0.3130
17986TIP3    H275374   0.552   5.691   6.021 -1.0499 -2.8026  0.3438
17987TIP3   OH275375   3.147   4.188   5.348 -0.1657  0.1469  0.2406
17987TIP3    H175376   3.207   4.230   5.287  2.6295 -2.3484  1.1460
17987TIP3    H275377   3.069   4.168   5.296  0.3392  2.1204 -1.3296
17988TIP3   OH275378   2.107   5.788  16.896 -0.4748 -0.3342 -0.0462
17988TIP3    H175379   2.054   5.743  16.962  0.3581  0.5360  1.2285
17988TIP3    H275380   2.185   5.734  16.888 -0.5751 -0.4386 -0.3265
17989TIP3   OH275381   0.894   2.417   0.790 -0.2198  0.0962 -0.0270
17989TIP3    H175382   0.837   2.454   0.858 -2.2902 -2.6593 -0.1509
17989TIP3    H275383   0.911   2.328   0.820 -0.8421 -1.0344 -2.8909
17990TIP3   OH275384   1.787   6.104  13.640 -0.1206  0.1262  0.6603
17990TIP3    H175385   1.819   6.135  13.725  0.4951  0.4417  0.3165
17990TIP3    H275386   1.708   6.054  13.661  1.1702 -1.5622  1.6154
17991TIP3   OH275387   2.793   5.729  13.865 -0.3498 -0.0644  0.3528
17991TIP3    H175388   2.855   5.707  13.935 -1.5573 -0.3784  1.3301
17991TIP3    H275389   2.747   5.647  13.848 -0.8861  0.3088  0.0181
17992TIP3   OH275390   1.908   6.531   5.922 -0.0392  0.0574  0.2472
17992TIP3    H175391   1.825   6.529   5.969  0.0486  2.0931  0.5067
17992TIP3    H275392   1.887   6.567   5.836  0.7178  1.3692  0.6102
17993TIP3   OH275393   6.552   5.577   3.242 -0.4288 -0.5042 -0.1492
17993TIP3    H175394   6.591   5.492   3.220 -0.0113 -0.7192  1.3943
17993TIP3    H275395   6.613   5.615   3.306 -2.2495 -0.4338  1.5801
17994TIP3   OH275396   2.329   5.911  11.761  0.7654  0.2322 -0.3110
17994TIP3    H175397   2.310   5.979  11.825  0.0511 -0.6682  0.4548
17994TIP3    H275398   2.355   5.835  11.814  1.9615  0.0355 -1.1678
17995TIP3   OH275399   2.856   1.488  12.430  0.2908  0.8545  0.1456
17995TIP3    H175400   2.946   1.499  12.399  0.0356  1.5135 -0.3646
17995TIP3    H275401   2.821   1.577  12.434 -0.9676  0.4568 -1.5494
17996TIP3   OH275402   1.304   3.015   1.754 -0.0134  0.1457  0.0473
17996TIP3    H175403   1.314   3.110   1.745 -0.5169  0.2670  0.7254
17996TIP3    H275404   1.362   2.991   1.827 -0.4934  0.0519  0.4001
17997TIP3   OH275405   1.085   1.591  12.206 -0.3106 -0.0549  0.0538
17997TIP3    H175406   1.063   1.545  12.124 -1.6012  0.1645  0.2692
17997TIP3    H275407   1.007   1.582  12.260  0.5764 -0.2719  1.3114
17998TIP3   OH275408   4.122   1.613   1.416 -0.1590 -0.9390 -0.3625
17998TIP3    H175409   4.126   1.579   1.505 -4.1391 -1.6120 -0.3155
17998TIP3    H275410   4.121   1.535   1.361  0.5196 -0.5778 -0.8875
17999TIP3   OH275411   5.517   1.004  13.114  0.5041  1.1233  0.4339
17999TIP3    H175412   5.560   0.962  13.189  1.1228  1.2552  0.1525
17999TIP3    H275413   5.434   1.036  13.149 -0.1820 -0.7581  0.5327
18000TIP3   OH275414   6.275   5.519  11.919  0.5043  0.7062 -0.6839
18000TIP3    H175415   6.364   5.552  11.929  1.1635 -0.6722 -1.9005
18000TIP3    H275416   6.276   5.433  11.961 -0.1832  0.5744 -0.9223
18001TIP3   OH275417   6.471   6.064  16.876  0.0251 -0.6209  0.4094
18001TIP3    H175418   6.536   6.109  16.929 -0.2461  1.5405 -1.0045
18001TIP3    H275419   6.406   6.033  16.939  0.4144  0.6726  1.4867
18002TIP3   OH275420   5.962   2.231  14.337  0.9342 -0.4146 -0.1450
18002TIP3    H175421   5.966   2.212  14.243  0.9799 -0.6552 -0.0966
18002TIP3    H275422   6.007   2.315  14.347  1.3313 -0.6089 -0.2788
18003TIP3   OH275423   2.247   4.592   2.388  0.2688  0.3686  0.1557
18003TIP3    H175424   2.153   4.570   2.387  0.6449 -1.3156 -1.6587
18003TIP3    H275425   2.251   4.680   2.352 -0.5739  0.2801 -0.1728
18004TIP3   OH275426   5.532   6.451  13.759 -0.0611 -0.1551 -0.7156
18004TIP3    H175427   5.538   6.428  13.667 -0.6930  1.1040 -1.0791
18004TIP3    H275428   5.623   6.455  13.789  0.1905  0.7200 -1.5993
18005TIP3   OH275429   0.897   0.145  16.147  0.3055 -0.1415 -0.4995
18005TIP3    H175430   0.989   0.125  16.130  1.2925  0.6807  3.2669
18005TIP3    H275431   0.853   0.060  16.148  1.7217 -0.8900  1.0451
18006TIP3   OH275432   2.840   1.955   0.683  0.3392 -0.0248 -0.0448
18006TIP3    H175433   2.886   1.883   0.639 -0.2746  0.6112 -1.7494
18006TIP3    H275434   2.757   1.916   0.712  0.8761 -0.5256  0.8348
18007TIP3   OH275435   2.039   5.087   2.630  0.4411  0.5090 -0.4504
18007TIP3    H175436   2.110   5.151   2.635  0.3848  0.7559 -2.5198
18007TIP3    H275437   1.972   5.121   2.690  2.1299  0.1616  1.6767
18008TIP3   OH275438   2.936   5.548   3.009  0.3591  0.4046 -0.0849
18008TIP3    H175439   2.846   5.516   3.014  0.3965  0.4968  1.5503
18008TIP3    H275440   2.983   5.481   2.960 -0.2520 -0.4541  0.4979
18009TIP3   OH275441   3.070   6.189  11.524  0.3252 -0.3655  0.5000
18009TIP3    H175442   3.100   6.143  11.445  2.7041 -2.0504  2.2943
18009TIP3    H275443   3.022   6.123  11.573  0.6322  0.0653  1.4010
18010TIP3   OH275444   0.573   4.896  11.990  0.4187 -0.4674 -0.4852
18010TIP3    H175445   0.598   4.804  12.000  1.0458 -0.3047 -0.5315
18010TIP3    H275446   0.542   4.903  11.900  2.7805 -0.0880 -1.3183
18011TIP3   OH275447   3.878   2.126  16.671  0.0194 -0.2554  0.3147
18011TIP3    H175448   3.962   2.171  16.681  0.4980 -1.0470 -0.0488
18011TIP3    H275449   3.812   2.192  16.690  0.7583  0.0519  1.8443
18012TIP3   OH275450   3.363   3.999   2.607 -0.3184  0.0405 -0.4177
18012TIP3    H175451   3.292   3.963   2.553 -0.0513 -1.8449  0.4494
18012TIP3    H275452   3.390   3.926   2.663  1.6679  1.0110 -0.0674
18013TIP3   OH275453   6.704   1.091   6.111  0.1413 -0.3710 -0.0487
18013TIP3    H175454   6.788   1.044   6.112 -0.2679 -1.1057  0.9074
18013TIP3    H275455   6.692   1.121   6.201 -0.6177 -0.2798 -0.1757
18014TIP3   OH275456   6.408   5.621   0.687  0.0270  0.1110 -0.2692
18014TIP3    H175457   6.412   5.670   0.605 -0.4132  0.1548 -0.2665
18014TIP3    H275458   6.319   5.635   0.719 -0.0288 -0.5037 -0.1522
18015TIP3   OH275459   1.878   2.924   3.362 -0.0448  0.4191 -0.5992
18015TIP3    H175460   1.940   2.994   3.383 -0.0855  0.1842  0.2917
18015TIP3    H275461   1.807   2.934   3.425  0.6445 -1.3355  0.4959
18016TIP3   OH275462   2.378   0.183   2.855  0.2138 -0.6737 -0.1053
18016TIP3    H175463   2.412   0.098   2.828 -1.8412 -1.0655 -1.5644
18016TIP3    H275464   2.320   0.164   2.929 -1.8982 -0.8233 -1.7753
18017TIP3   OH275465   2.805   1.613   1.464  0.5482  0.6382 -0.4943
18017TIP3    H175466   2.899   1.598   1.479  0.5431  2.5950  1.9032
18017TIP3    H275467   2.762   1.558   1.529  0.0891  0.8118 -0.6536
18018TIP3   OH275468   0.250   0.423   2.221 -0.0086  0.2782  0.3576
18018TIP3    H175469   0.300   0.347   2.250  0.6662  0.1414 -1.1048
18018TIP3    H275470   0.175   0.386   2.174  0.4117  0.4903 -0.5065
18019TIP3   OH275471   2.545   5.341  15.660 -0.5474  0.1222  0.2467
18019TIP3    H175472   2.454   5.317  15.677 -1.1643  0.1197 -2.7901
18019TIP3    H275473   2.540   5.414  15.599  1.5016  0.4166  0.3989
18020TIP3   OH275474   2.159   6.381  12.722  0.3252  0.1204  0.0278
18020TIP3    H175475   2.178   6.297  12.681 -0.3960 -0.1319  0.1897
18020TIP3    H275476   2.240   6.405  12.767  0.5524 -0.4661 -0.0644
18021TIP3   OH275477   3.820   6.138  11.564  0.0002  0.2836  0.3154
18021TIP3    H175478   3.891   6.202  11.561 -0.8910  1.2239 -1.1221
18021TIP3    H275479   3.800   6.119  11.473 -1.2858 -0.3328  0.7149
18022TIP3   OH275480   1.854   5.288  13.241  0.2548  0.0610  0.1801
18022TIP3    H175481   1.831   5.262  13.152  0.6750  0.0277  0.0789
18022TIP3    H275482   1.897   5.211  13.278  0.1332  0.0952  0.3947
18023TIP3   OH275483   2.781   6.693  11.353  0.4932 -0.0340  0.6622
18023TIP3    H175484   2.797   6.598  11.353  2.2200  0.2377 -0.0695
18023TIP3    H275485   2.846   6.728  11.292 -3.1777  1.1435 -2.7446
18024TIP3   OH275486   4.628   3.133  14.373 -0.0624  0.2082 -0.1591
18024TIP3    H175487   4.645   3.039  14.381  1.3833  0.6895  3.1855
18024TIP3    H275488   4.714   3.173  14.372 -0.7039  1.6354  0.6252
18025TIP3   OH275489   1.341   3.896   3.434  0.8825  0.0893 -0.3180
18025TIP3    H175490   1.249   3.918   3.415  1.1945  0.4895 -1.4037
18025TIP3    H275491   1.355   3.930   3.522 -0.5567 -1.6593  0.6267
18026TIP3   OH275492   0.211   1.449   4.402  0.1674 -0.7394  0.2724
18026TIP3    H175493   0.234   1.398   4.480  1.1676  2.1231  1.9197
18026TIP3    H275494   0.123   1.483   4.421  1.4875  2.2156  1.4494
18027TIP3   OH275495   3.729   3.029   5.578 -0.4607  0.2239 -0.6468
18027TIP3    H175496   3.727   2.998   5.487 -1.9310 -0.9852 -0.2183
18027TIP3    H275497   3.790   2.970   5.622 -1.2924 -0.4711 -0.4094
18028TIP3   OH275498   4.191   4.564  12.353  0.1900  0.5602 -0.5475
18028TIP3    H175499   4.239   4.483  12.338 -0.8067 -0.3850  1.1857
18028TIP3    H275500   4.100   4.542  12.331  0.2238  1.8012 -2.0262
18029TIP3   OH275501   5.725   0.630   5.959 -0.7118  0.0723  0.2323
18029TIP3    H175502   5.789   0.680   6.010 -0.9116 -0.0522  0.6071
18029TIP3    H275503   5.739   0.539   5.986  1.4893 -0.4264 -2.4183
18030TIP3   OH275504   2.560   3.117  14.482 -0.0661 -0.6120 -0.6658
18030TIP3    H175505   2.481   3.164  14.453 -0.9050 -0.9247  1.0741
18030TIP3    H275506   2.594   3.169  14.555 -0.2896 -2.0034  0.4509
18031TIP3   OH275507   3.844   5.451  14.912 -0.1255 -0.4941 -0.4040
18031TIP3    H175508   3.930   5.483  14.885 -0.5646 -0.1493 -1.3928
18031TIP3    H275509   3.790   5.458  14.834 -1.0184 -0.8445  0.1784
18032TIP3   OH275510   5.271   1.030   4.420  0.2627  0.5435  0.3421
18032TIP3    H175511   5.336   1.050   4.353  0.1412  1.3344  0.4561
18032TIP3    H275512   5.187   1.041   4.377  0.1793  1.3098  0.6887
18033TIP3   OH275513   5.384   1.570  11.417 -0.0656  0.4961  0.5953
18033TIP3    H175514   5.354   1.515  11.345 -1.6125  0.7794  1.0063
18033TIP3    H275515   5.341   1.533  11.495  0.3165  1.1732  1.1316
18034TIP3   OH275516   0.121   4.121  16.079  0.0156  0.0335 -0.1755
18034TIP3    H175517   0.056   4.157  16.140 -0.2474 -0.1029 -0.3802
18034TIP3    H275518   0.194   4.183  16.084 -0.5388  0.7472 -0.7192
18035TIP3   OH275519   2.601   1.430  11.281  0.3833  0.4356  0.4279
18035TIP3    H175520   2.578   1.498  11.218  1.4314  0.0927 -0.3532
18035TIP3    H275521   2.602   1.349  11.229  0.3879  0.0141  1.0746
18036TIP3   OH275522   3.890   2.450  12.865  0.1560 -0.0258 -0.2210
18036TIP3    H175523   3.970   2.399  12.850  1.0693  1.5616 -0.8555
18036TIP3    H275524   3.820   2.385  12.863  1.3565 -1.3609 -0.2757
18037TIP3   OH275525   3.247   6.005  14.139  0.5088 -0.3920 -0.0869
18037TIP3    H175526   3.173   6.051  14.179  0.4464  1.7771 -2.5162
18037TIP3    H275527   3.210   5.922  14.109 -0.6729  0.1790 -0.2584
18038TIP3   OH275528   3.993   4.283  14.690 -0.3327 -0.2152 -1.0731
18038TIP3    H175529   3.933   4.301  14.763 -0.6880 -1.9345 -0.9213
18038TIP3    H275530   3.980   4.356  14.630 -1.4560  0.2208 -0.3213
18039TIP3   OH275531   2.754   6.644  15.292 -0.6429  0.0549  0.2188
18039TIP3    H175532   2.678   6.617  15.240 -0.1085 -0.2668 -0.4087
18039TIP3    H275533   2.780   6.565  15.339 -0.4002  0.0392  0.0582
18040TIP3   OH275534   4.919   1.511   5.471  0.2548 -0.2233 -0.1845
18040TIP3    H175535   4.948   1.457   5.545 -1.1339 -1.5329 -0.5802
18040TIP3    H275536   4.976   1.485   5.399  0.3090 -0.3690 -0.0905
18041TIP3   OH275537   6.168   5.979  16.005  0.2448 -0.4249  0.1532
18041TIP3    H175538   6.172   6.009  15.914 -1.8835 -1.1322 -0.1871
18041TIP3    H275539   6.113   6.043  16.049 -1.5915 -1.9625  0.1525
18042TIP3   OH275540   0.110   4.090  15.285  0.2988  0.2379  0.3690
18042TIP3    H175541   0.039   4.153  15.283 -0.4260 -0.5896 -1.2129
18042TIP3    H275542   0.173   4.123  15.221  0.4898  0.0318  0.4503
18043TIP3   OH275543   0.552   1.904  13.903 -0.0359  0.4099 -0.2434
18043TIP3    H175544   0.608   1.976  13.876 -0.5832  0.9630  0.0850
18043TIP3    H275545   0.584   1.829  13.853 -0.0556  1.0741 -1.2683
18044TIP3   OH275546   1.416   6.192   2.094 -0.0525 -0.2397 -0.1863
18044TIP3    H175547   1.434   6.272   2.143 -0.8979 -0.1155 -0.0731
18044TIP3    H275548   1.372   6.135   2.156 -0.1683 -0.4905 -0.4972
18045TIP3   OH275549   4.062   1.598   4.819  0.0303 -0.0058 -0.7007
18045TIP3    H175550   4.076   1.667   4.754  1.6312 -0.6888 -1.0887
18045TIP3    H275551   4.032   1.522   4.768 -1.1690  0.2106 -0.3395
18046TIP3   OH275552   2.884   5.563  14.059  0.2827  0.0187 -0.1979
18046TIP3    H175553   2.901   5.538  14.150  0.5629  1.0614  0.0430
18046TIP3    H275554   2.912   5.487  14.007 -0.2739 -0.7441  0.6124
18047TIP3   OH275555   1.184   0.546  14.851  0.0669 -0.4150  1.0040
18047TIP3    H175556   1.111   0.534  14.790  1.7518 -1.6463 -0.8080
18047TIP3    H275557   1.191   0.641  14.862 -0.2998 -0.1863 -0.6661
18048TIP3   OH275558   0.298   3.747  12.349  0.4201  0.5040  0.3334
18048TIP3    H175559   0.264   3.811  12.286  2.2365 -1.5024 -2.7735
18048TIP3    H275560   0.219   3.709  12.388 -0.7397  2.0321 -0.4406
18049TIP3   OH275561   3.899   1.530  13.155  0.1660 -1.0301 -0.2710
18049TIP3    H175562   3.951   1.543  13.235 -0.8695 -0.7902  0.3755
18049TIP3    H275563   3.853   1.613  13.143  0.5203 -0.9783 -1.2724
18050TIP3   OH275564   2.334   0.865   2.023  0.1291  0.3902  0.2167
18050TIP3    H175565   2.265   0.927   1.999 -0.3071 -0.4504 -0.7427
18050TIP3    H275566   2.361   0.825   1.940 -0.4043 -1.5369  0.9339
18051TIP3   OH275567   0.788   2.947  14.552 -0.0970 -0.4376 -0.5310
18051TIP3    H175568   0.848   3.019  14.534 -0.4438 -0.0853 -0.2748
18051TIP3    H275569   0.840   2.868  14.534  0.3598 -0.1325 -0.5635
18052TIP3   OH275570   5.195   5.797   5.420  0.0613 -0.2463  0.2139
18052TIP3    H175571   5.259   5.775   5.487  1.8561  0.6503 -1.1422
18052TIP3    H275572   5.167   5.886   5.441 -0.4360 -0.4869  0.5737
18053TIP3   OH275573   1.644   3.657  13.037  0.0202 -0.3215 -0.1526
18053TIP3    H175574   1.711   3.592  13.018  0.2154 -0.1026 -0.2147
18053TIP3    H275575   1.685   3.741  13.019 -0.4294 -0.2074 -0.6683
18054TIP3   OH275576   4.035   4.944  11.209 -0.5690 -0.2094  0.2113
18054TIP3    H175577   4.071   4.985  11.131 -0.0258 -0.4917  0.3100
18054TIP3    H275578   4.077   4.858  11.213 -3.0873 -1.5891 -1.0615
18055TIP3   OH275579   0.573   1.688  16.372 -0.0810 -0.1592 -0.2256
18055TIP3    H175580   0.515   1.695  16.296 -0.2217 -0.9541 -0.1949
18055TIP3    H275581   0.615   1.603  16.361  0.8311  0.2716 -0.0713
18056TIP3   OH275582   2.836   5.937   0.480  0.0161  0.0896  0.3362
18056TIP3    H175583   2.845   5.863   0.420 -0.6810 -0.9216  1.4539
18056TIP3    H275584   2.778   5.998   0.434  0.2426 -0.2509 -0.4101
18057TIP3   OH275585   4.177   5.386   4.878  0.3822 -0.2625  0.1360
18057TIP3    H175586   4.251   5.365   4.935  0.3754 -1.9196 -0.4317
18057TIP3    H275587   4.111   5.320   4.900  0.4086 -0.9787 -1.8497
18058TIP3   OH275588   1.927   1.468  13.286 -0.0175 -0.0876 -0.1367
18058TIP3    H175589   1.907   1.398  13.347 -0.4145  0.2526  0.1276
18058TIP3    H275590   1.988   1.525  13.333 -1.4399  0.9500  0.4859
18059TIP3   OH275591   1.809   5.786   5.002  0.4785 -0.2185 -0.5968
18059TIP3    H175592   1.872   5.720   5.028  1.5884  0.7070 -0.8992
18059TIP3    H275593   1.723   5.745   5.017  1.0404 -0.0681  3.6714
18060TIP3   OH275594   3.297   3.933   2.134  0.8983 -0.0019 -0.5319
18060TIP3    H175595   3.299   4.024   2.104 -0.0978  0.1900 -0.0225
18060TIP3    H275596   3.226   3.893   2.085 -1.2173  0.4908  2.0210
18061TIP3   OH275597   2.609   6.031  16.659 -0.5274  0.3496 -0.0685
18061TIP3    H175598   2.553   6.102  16.626 -0.3101  0.1569 -0.8734
18061TIP3    H275599   2.673   6.017  16.589 -1.2543 -1.4021 -0.4214
18062TIP3   OH275600   6.096   4.897  11.867 -0.2995 -0.6202 -0.0424
18062TIP3    H175601   6.137   4.865  11.786 -1.2238 -1.1000 -0.3223
18062TIP3    H275602   6.092   4.821  11.924  0.0687 -0.3510  0.3407
18063TIP3   OH275603   4.015   0.193   4.608  0.0026  0.3819 -0.0641
18063TIP3    H175604   4.033   0.204   4.515  0.0817 -1.9848 -0.3621
18063TIP3    H275605   3.923   0.168   4.612  0.2171 -0.3378  0.4280
18064TIP3   OH275606   2.059   0.992   3.957 -0.3790  0.3374  0.2909
18064TIP3    H175607   2.148   0.959   3.950 -0.0322  1.2670  0.2796
18064TIP3    H275608   2.010   0.945   3.890  0.0137 -0.4651  0.5666
18065TIP3   OH275609   2.702   1.329   6.659 -0.1611 -0.0801 -0.3061
18065TIP3    H175610   2.662   1.259   6.607 -0.3614 -0.6673  0.6191
18065TIP3    H275611   2.685   1.409   6.610  0.2570 -0.7100 -1.4898
18066TIP3   OH275612   5.118   5.882  11.867 -0.5719  0.0508  0.1714
18066TIP3    H175613   5.091   5.895  11.957 -1.5385 -0.9731  0.0394
18066TIP3    H275614   5.193   5.823  11.872  0.4110  1.3073  0.4059
18067TIP3   OH275615   1.378   2.069   2.940 -0.4770 -0.2756  0.5654
18067TIP3    H175616   1.411   2.033   2.857 -0.9780 -0.0173  0.2530
18067TIP3    H275617   1.455   2.108   2.981 -0.3388  0.1005 -0.0450
18068TIP3   OH275618   4.786   3.897  11.358  0.2265  0.6835  1.0344
18068TIP3    H175619   4.744   3.982  11.348 -0.7104  0.1212  0.1158
18068TIP3    H275620   4.787   3.859  11.270 -0.3675 -0.7098  1.6058
18069TIP3   OH275621   6.302   4.712   6.096  0.5696  0.5067 -0.4096
18069TIP3    H175622   6.332   4.798   6.125 -0.2407 -0.0553  2.2093
18069TIP3    H275623   6.366   4.651   6.134 -1.1457 -0.3262  1.2181
18070TIP3   OH275624   3.824   4.030  15.301 -0.4835 -0.0106 -0.2756
18070TIP3    H175625   3.758   3.962  15.293  0.4559 -1.0368  0.5507
18070TIP3    H275626   3.819   4.057  15.393  1.3948 -1.2791  0.2071
18071TIP3   OH275627   3.532   3.340   0.048  0.1233 -0.5972 -0.4854
18071TIP3    H175628   3.572   3.426   0.062 -1.6729  0.0642  0.7889
18071TIP3    H275629   3.591   3.296  -0.013  2.3482  0.6217  0.7095
18072TIP3   OH275630   4.801   1.848   2.583  0.4390 -0.3709  0.7679
18072TIP3    H175631   4.813   1.900   2.662 -2.1114 -0.1341  1.0515
18072TIP3    H275632   4.821   1.907   2.511  1.9055 -0.3300  1.1961
18073TIP3   OH275633   2.089   6.769  12.863 -0.0164  0.4839 -0.3507
18073TIP3    H175634   2.105   6.793  12.772 -1.4625  1.9852 -0.2179
18073TIP3    H275635   2.002   6.729  12.863  0.4055 -0.4663  0.2194
18074TIP3   OH275636   2.669   2.915  15.216  0.1310  0.4723 -0.0103
18074TIP3    H175637   2.699   2.824  15.216 -0.7374  0.1657  1.3807
18074TIP3    H275638   2.608   2.920  15.290 -1.2988  1.6963 -1.2415
18075TIP3   OH275639   5.874   5.707   2.431  0.2231 -0.6095 -0.1999
18075TIP3    H175640   5.840   5.626   2.392  0.3106 -1.7318  1.9497
18075TIP3    H275641   5.947   5.732   2.374 -0.0415 -1.8448 -1.1070
18076TIP3   OH275642   0.284   0.614  14.539  0.3879  0.6589  0.3963
18076TIP3    H175643   0.295   0.709  14.541  0.8178  0.5961  1.5142
18076TIP3    H275644   0.278   0.589  14.632 -0.4318 -0.3208  0.0826
18077TIP3   OH275645   0.999   3.427  14.570 -0.7609  0.6947  0.3240
18077TIP3    H175646   1.011   3.443  14.477 -1.1467  0.7579  0.2834
18077TIP3    H275647   1.087   3.433  14.607 -0.3414 -1.3091 -0.3184
18078TIP3   OH275648   5.640   2.830   2.368 -0.7530  0.8039  0.2482
18078TIP3    H175649   5.705   2.788   2.312  0.1736  1.4792  0.8033
18078TIP3    H275650   5.684   2.907   2.403 -1.2332  0.2578  2.1131
18079TIP3   OH275651   4.551   1.306   2.175 -0.2653 -0.4571  0.6289
18079TIP3    H175652   4.496   1.345   2.107  0.3115 -0.3586  0.2114
18079TIP3    H275653   4.599   1.380   2.212  0.0821 -0.6344  0.5324
18080TIP3   OH275654   5.427   5.823  16.526  0.3458 -0.0701 -0.0361
18080TIP3    H175655   5.462   5.756  16.467  1.7669 -0.8798  1.6779
18080TIP3    H275656   5.498   5.887  16.534 -0.5161  0.9845 -0.6034
18081TIP3   OH275657   4.551   6.000   1.053 -0.1774 -0.1591  0.1173
18081TIP3    H175658   4.576   6.088   1.080  1.2930 -0.1047 -1.3555
18081TIP3    H275659   4.458   6.007   1.030  0.3275  1.3744 -1.5071
18082TIP3   OH275660   5.603   3.309  14.961 -0.5617 -0.1481 -0.1232
18082TIP3    H175661   5.615   3.229  15.013  2.5075 -1.7704 -3.1343
18082TIP3    H275662   5.689   3.351  14.961 -1.6645  2.1864 -0.1826
18083TIP3   OH275663   3.311   3.041  14.542 -0.0412  0.1089 -0.7005
18083TIP3    H175664   3.386   3.100  14.555  1.0255 -1.2966 -0.4254
18083TIP3    H275665   3.245   3.074  14.603  1.6479 -0.8083  1.6852
18084TIP3   OH275666   4.398   5.217   3.721  0.1467  0.4643  0.0276
18084TIP3    H175667   4.382   5.245   3.811 -0.0758  2.2879 -0.5714
18084TIP3    H275668   4.310   5.202   3.685  0.2816 -2.7475  0.8414
18085TIP3   OH275669   0.557   4.606   2.765  0.1660  0.1600 -0.0103
18085TIP3    H175670   0.462   4.599   2.754  0.5929 -0.3585 -4.1201
18085TIP3    H275671   0.568   4.645   2.852 -3.7455 -0.9004  1.0868
18086TIP3   OH275672   3.728   5.268  12.180 -0.6664  0.3003  1.1460
18086TIP3    H175673   3.773   5.187  12.156  0.7400  0.8131  1.9778
18086TIP3    H275674   3.636   5.243  12.189 -0.2200 -1.2302  1.5438
18087TIP3   OH275675   4.324   4.276  16.644  0.1603 -0.2833  0.1416
18087TIP3    H175676   4.326   4.199  16.701 -0.3844 -0.4993 -0.1184
18087TIP3    H275677   4.274   4.247  16.567 -2.1897  1.0607  1.1061
18088TIP3   OH275678   0.276   3.748   2.902  0.3544  0.0699 -0.0343
18088TIP3    H175679   0.300   3.661   2.936  0.6808  0.6802  1.3146
18088TIP3    H275680   0.185   3.759   2.929  0.2123  0.0045 -0.4946
18089TIP3   OH275681   4.512   3.596  14.808  0.3270  0.3505 -0.5230
18089TIP3    H175682   4.479   3.641  14.730 -2.0295  0.8458  0.7071
18089TIP3    H275683   4.434   3.578  14.860  1.7032 -1.4030  0.9862
18090TIP3   OH275684   0.934   5.787  14.470  0.6902 -0.0690  0.6206
18090TIP3    H175685   0.938   5.790  14.375 -0.8441 -0.2310  0.5306
18090TIP3    H275686   0.869   5.719  14.489 -0.9713  1.7636  1.7246
18091TIP3   OH275687   5.186   0.345   5.375  0.2272  0.5523 -0.0640
18091TIP3    H175688   5.277   0.351   5.407  0.2463 -2.0586  0.4287
18091TIP3    H275689   5.194   0.311   5.286 -0.3231 -0.4230  0.2641
18092TIP3   OH275690   4.107   2.854   3.338 -0.1096  0.4880 -0.1341
18092TIP3    H175691   4.184   2.822   3.290 -0.9882 -2.4977  0.3940
18092TIP3    H275692   4.036   2.853   3.274 -0.1377  1.5596 -0.1394
18093TIP3   OH275693   1.254   5.781  14.332  0.1950  0.1985 -0.4797
18093TIP3    H175694   1.174   5.782  14.280  0.1637 -0.9366 -0.4829
18093TIP3    H275695   1.279   5.873  14.341 -0.9102  0.5347 -0.7787
18094TIP3   OH275696   0.093   5.793  12.838 -0.3875  0.0036  0.0860
18094TIP3    H175697   0.011   5.746  12.819  0.9785 -1.5816 -2.0618
18094TIP3    H275698   0.136   5.801  12.754  1.4150  1.3613  1.1152
18095TIP3   OH275699   5.903   3.434   3.855 -0.2416 -0.1513  0.4423
18095TIP3    H175700   5.859   3.410   3.774 -0.8696  2.2583  0.0374
18095TIP3    H275701   5.884   3.361   3.915 -0.6619 -1.4382 -1.2308
18096TIP3   OH275702   1.770   4.196  10.971 -0.0402  0.2663  0.0938
18096TIP3    H175703   1.805   4.155  11.050  1.8181  0.2280 -0.7281
18096TIP3    H275704   1.794   4.137  10.900 -1.7851  0.2502 -0.5043
18097TIP3   OH275705   1.714   6.541  12.170 -0.3191  0.1432  0.0715
18097TIP3    H175706   1.758   6.626  12.159  0.4182 -0.4648 -1.8347
18097TIP3    H275707   1.767   6.496  12.236 -0.2202  0.8359  0.4732
18098TIP3   OH275708   3.731   5.191   3.026 -0.0795 -0.1992  0.0019
18098TIP3    H175709   3.708   5.243   2.949 -0.3818  1.8299  1.4166
18098TIP3    H275710   3.811   5.231   3.060 -0.5492 -0.3722  1.3601
18099TIP3   OH275711   4.165   1.433  15.565  0.5955 -0.4007  0.2916
18099TIP3    H175712   4.180   1.460  15.656  1.2482 -0.8707  0.3201
18099TIP3    H275713   4.071   1.450  15.551  0.3585 -0.8630  1.2379
18100TIP3   OH275714   2.065   2.379  12.130 -0.7437 -0.1936  0.6448
18100TIP3    H175715   2.024   2.404  12.047 -0.5925 -0.1692  0.5781
18100TIP3    H275716   2.121   2.453  12.153 -1.7680  0.3524  1.4264
18101TIP3   OH275717   0.755   5.903   1.264 -0.4776  0.3115  0.1667
18101TIP3    H175718   0.749   5.995   1.289 -1.6914  0.2163  0.2864
18101TIP3    H275719   0.835   5.897   1.212 -1.4143  1.8281 -1.4920
18102TIP3   OH275720   1.778   4.244  15.769  0.0695  0.4433  0.5234
18102TIP3    H175721   1.734   4.326  15.747 -0.7499 -0.0475  0.3076
18102TIP3    H275722   1.707   4.182  15.784  0.6968 -0.4265 -0.0798
18103TIP3   OH275723   5.151   1.916   4.301  0.5957 -0.0058 -0.5666
18103TIP3    H175724   5.214   1.958   4.360 -0.6833 -0.0497  0.8613
18103TIP3    H275725   5.130   1.984   4.236  0.0185  0.9580  0.5913
18104TIP3   OH275726   2.340   0.454   2.909  0.2692  0.8913  0.9727
18104TIP3    H175727   2.398   0.471   2.834 -0.1461 -0.6060  0.2849
18104TIP3    H275728   2.337   0.358   2.915 -0.8554  0.9864  2.0182
18105TIP3   OH275729   5.920   1.523  14.586  0.0016 -0.1416 -0.2587
18105TIP3    H175730   5.847   1.581  14.563 -0.6772 -1.2878 -1.0429
18105TIP3    H275731   5.907   1.505  14.679  0.5373  1.3824  0.1402
18106TIP3   OH275732   2.604   1.409   4.542 -0.1775 -0.1279  0.1025
18106TIP3    H175733   2.699   1.424   4.540 -0.1739 -0.2770 -1.2442
18106TIP3    H275734   2.579   1.429   4.632  0.7853  2.1336 -0.0901
18107TIP3   OH275735   0.865   6.474  14.421 -0.2944 -0.3019  0.3745
18107TIP3    H175736   0.809   6.540  14.463 -0.1890  0.5023 -0.7211
18107TIP3    H275737   0.944   6.523  14.396 -1.2224 -0.2644 -2.6470
18108TIP3   OH275738   5.114   0.334   2.883 -0.1566 -0.6242 -0.9012
18108TIP3    H175739   5.036   0.302   2.928  1.0767 -1.8910  0.3940
18108TIP3    H275740   5.104   0.430   2.882 -1.1470 -0.7083  0.3062
18109TIP3   OH275741   5.079   4.074   3.509 -0.0767  0.3669 -0.4882
18109TIP3    H175742   5.100   4.134   3.438 -1.2193  0.8653 -0.4162
18109TIP3    H275743   4.983   4.077   3.516  0.1352  2.1058  2.6049
18110TIP3   OH275744   6.763   1.393   0.841  0.3506  0.4870  0.2310
18110TIP3    H175745   6.839   1.446   0.866  0.1969  0.0708  1.6001
18110TIP3    H275746   6.712   1.450   0.784  0.6754  1.4756  0.9156
18111TIP3   OH275747   5.395   2.351  16.643  0.3970  0.3031 -0.4652
18111TIP3    H175748   5.424   2.439  16.667  2.5227 -0.6446  0.5400
18111TIP3    H275749   5.328   2.330  16.708 -1.5814  1.9010 -1.8846
18112TIP3   OH275750   0.297   3.368   0.658 -0.1612  0.7061  0.8190
18112TIP3    H175751   0.208   3.383   0.691  0.5346  1.0090  2.6138
18112TIP3    H275752   0.332   3.298   0.714 -0.0349 -1.0169 -1.3293
18113TIP3   OH275753   4.473   4.390  13.879  0.1586  0.3870  0.3824
18113TIP3    H175754   4.419   4.391  13.800 -0.5229 -2.0508  0.7727
18113TIP3    H275755   4.435   4.322  13.933  1.3797  1.1902  2.3039
18114TIP3   OH275756   1.192   0.926   0.222  0.4528 -0.0801 -0.1808
18114TIP3    H175757   1.133   0.976   0.278 -0.7064 -1.1322 -0.4397
18114TIP3    H275758   1.274   0.921   0.271  0.6175  2.1404 -0.2015
18115TIP3   OH275759   5.401   5.791  12.494 -0.4636 -0.6635 -0.1608
18115TIP3    H175760   5.481   5.747  12.525 -0.6011 -1.6451 -1.1708
18115TIP3    H275761   5.330   5.735  12.526 -0.7434  0.1407  0.6259
18116TIP3   OH275762   5.840   0.916  11.913  0.0513 -0.2354  0.3325
18116TIP3    H175763   5.889   0.839  11.942  1.9426  0.8703  0.1495
18116TIP3    H275764   5.834   0.905  11.818  1.8323  0.6673  0.0897
18117TIP3   OH275765   2.293   2.956   0.088  0.1655  0.4543  0.1168
18117TIP3    H175766   2.244   2.943   0.169  0.7467 -0.0921  0.3898
18117TIP3    H275767   2.285   2.873   0.042  2.2443 -0.2577  0.9529
18118TIP3   OH275768   4.103   3.814  16.314 -0.4696  0.1928 -0.3392
18118TIP3    H175769   4.147   3.772  16.388 -1.3654  1.0552  0.7118
18118TIP3    H275770   4.037   3.751  16.286  0.9090 -0.7866 -1.4278
18119TIP3   OH275771   4.939   0.940   0.496  0.1032 -0.9347  0.1005
18119TIP3    H175772   4.903   1.011   0.549 -0.0296 -0.8155 -0.1501
18119TIP3    H275773   4.883   0.865   0.514  1.4333 -1.5270  1.9149
18120TIP3   OH275774   0.174   3.215   6.682  0.4583 -0.4932  0.2741
18120TIP3    H175775   0.245   3.255   6.733 -0.4380  0.9789  0.4010
18120TIP3    H275776   0.100   3.211   6.742 -0.3049  0.3089 -0.5925
18121TIP3   OH275777   2.855   0.752   1.715 -0.1836 -0.0433 -0.6106
18121TIP3    H175778   2.855   0.825   1.776 -0.6187 -1.3535  1.0154
18121TIP3    H275779   2.855   0.792   1.629 -4.2934  1.9590  0.1946
18122TIP3   OH275780   6.570   1.048   4.088 -0.4852 -0.3376  0.4720
18122TIP3    H175781   6.663   1.068   4.076 -0.8155  0.4529 -0.8669
18122TIP3    H275782   6.566   0.953   4.089  0.4520 -0.3735  1.4735
18123TIP3   OH275783   6.624   6.767  14.707 -0.1799  0.3420 -0.0072
18123TIP3    H175784   6.557   6.833  14.720 -0.6997 -0.3756  1.0703
18123TIP3    H275785   6.578   6.693  14.667  0.2049  0.2930 -0.3604
18124TIP3   OH275786   0.534   2.061   0.973  0.3256 -0.2085 -0.0307
18124TIP3    H175787   0.477   1.984   0.979 -0.9134  0.8725  2.7183
18124TIP3    H275788   0.592   2.042   0.899 -0.8922 -3.1446 -0.2965
18125TIP3   OH275789   2.058   2.882  10.760 -0.2577  0.6327  0.3064
18125TIP3    H175790   2.084   2.847  10.846 -0.8552  1.3320  0.7792
18125TIP3    H275791   2.130   2.858  10.702 -0.0064 -0.1555  0.9287
18126TIP3   OH275792   5.695   6.030  14.255  0.2637  0.3131 -0.1222
18126TIP3    H175793   5.642   6.087  14.311  0.3037 -0.8122  1.0897
18126TIP3    H275794   5.705   6.079  14.174 -1.5523  1.0938  0.0953
18127TIP3   OH275795   3.120   0.618   2.252 -0.4849  0.9761 -0.0516
18127TIP3    H175796   3.026   0.605   2.248 -0.2258 -0.8002 -0.9785
18127TIP3    H275797   3.131   0.707   2.285 -2.4503  0.6298  1.6029
18128TIP3   OH275798   3.511   1.371   0.562 -0.3644  0.3874  0.1646
18128TIP3    H175799   3.447   1.413   0.506 -1.8512 -0.1207  1.4580
18128TIP3    H275800   3.494   1.277   0.553  0.1153  0.2529  0.6200
18129TIP3   OH275801   0.674   6.485  12.483  0.1540  0.1575  0.6574
18129TIP3    H175802   0.754   6.447  12.520  0.0581  0.8784  1.6190
18129TIP3    H275803   0.630   6.411  12.441  1.5405 -0.1547 -0.2705
18130TIP3   OH275804   0.640   4.389   3.476  0.0640 -0.1418  0.1987
18130TIP3    H175805   0.723   4.436   3.472  0.1551 -0.1872  1.2709
18130TIP3    H275806   0.584   4.433   3.413  1.2848 -0.8995 -1.4517
18131TIP3   OH275807   1.818   4.344   5.260 -0.3959 -0.6494 -0.0662
18131TIP3    H175808   1.912   4.326   5.249 -0.2048  0.4788 -0.3505
18131TIP3    H275809   1.776   4.259   5.251  0.8556 -1.7124  3.2263
18132TIP3   OH275810   6.118   2.628  15.696  0.1168 -0.2193 -0.2003
18132TIP3    H175811   6.088   2.579  15.772  1.3347 -1.4098 -0.4660
18132TIP3    H275812   6.185   2.572  15.656  1.2585  1.4761 -0.7316
18133TIP3   OH275813   3.447   5.861   4.688  0.0204  0.3116 -0.3755
18133TIP3    H175814   3.510   5.929   4.714  0.4744  0.0319 -0.7202
18133TIP3    H275815   3.500   5.781   4.685 -0.5055 -0.0469  0.0021
18134TIP3   OH275816   6.375   2.188   0.915 -0.8219 -0.2706  0.7437
18134TIP3    H175817   6.285   2.171   0.890 -0.6524  0.2705 -0.2536
18134TIP3    H275818   6.392   2.278   0.886  0.0887 -0.4333  0.7463
18135TIP3   OH275819   3.177   4.808   2.142  0.0889 -0.3539 -0.5375
18135TIP3    H175820   3.248   4.863   2.174 -0.9288 -0.3025  1.7272
18135TIP3    H275821   3.097   4.855   2.165 -0.7356 -0.9883 -1.9732
18136TIP3   OH275822   4.307   2.928  12.757  0.1155 -0.1353  0.7791
18136TIP3    H175823   4.391   2.886  12.771  0.3885 -0.4568 -1.6878
18136TIP3    H275824   4.294   2.926  12.662 -1.0023  3.0959  0.7838
18137TIP3   OH275825   1.576   3.506   4.636  0.0946  0.2579  0.5904
18137TIP3    H175826   1.536   3.518   4.550  0.3220 -0.1696  0.4207
18137TIP3    H275827   1.586   3.411   4.645 -2.0278  0.1369  2.0636
18138TIP3   OH275828   0.848   0.645   2.992 -0.3518  0.4079  0.2067
18138TIP3    H175829   0.870   0.640   3.085  2.9466 -0.9996 -0.5739
18138TIP3    H275830   0.818   0.557   2.969 -1.2629  0.7782 -0.0460
18139TIP3   OH275831   0.779   6.570   3.272  0.5586  0.1745  0.5416
18139TIP3    H175832   0.732   6.551   3.353 -1.9943  0.3064 -0.8602
18139TIP3    H275833   0.758   6.662   3.254  3.5455  1.0607  1.2542
18140TIP3   OH275834   5.872   2.109  15.019  0.0573 -0.0416  0.4151
18140TIP3    H175835   5.919   2.034  15.055  1.8098  1.3497  1.1003
18140TIP3    H275836   5.823   2.144  15.094 -0.3346 -0.1779  0.2240
18141TIP3   OH275837   0.768   5.748   5.439 -0.7308 -0.2564  0.1150
18141TIP3    H175838   0.822   5.825   5.457  0.8713 -0.9934 -1.3197
18141TIP3    H275839   0.763   5.744   5.343 -1.4103 -1.5031  0.1913
18142TIP3   OH275840   1.427   3.528  16.679  0.4299  0.2898  0.1106
18142TIP3    H175841   1.469   3.522  16.593  0.4238 -1.6310  0.2319
18142TIP3    H275842   1.335   3.505  16.662  0.3375  0.3189  0.5753
18143TIP3   OH275843   3.458   6.624  15.893 -0.2083 -0.1876 -0.1804
18143TIP3    H175844   3.383   6.679  15.916 -1.3337 -2.2127  1.1315
18143TIP3    H275845   3.529   6.656  15.949  0.0483  1.8973 -1.5990
18144TIP3   OH275846   3.914   5.140   6.623  0.1257  0.5370  0.2560
18144TIP3    H175847   3.841   5.148   6.562  1.2364 -0.3652 -1.2192
18144TIP3    H275848   3.966   5.219   6.608 -0.2649  0.9383  0.9597
18145TIP3   OH275849   3.849   2.067  12.691  0.7697  0.4601 -0.0586
18145TIP3    H175850   3.867   1.998  12.755 -2.0810  1.0267  1.4250
18145TIP3    H275851   3.884   2.033  12.609  2.6488 -1.1641  1.3695
18146TIP3   OH275852   2.945   3.808  16.799  0.4745  0.1279 -0.2617
18146TIP3    H175853   2.869   3.860  16.772  0.3284  0.1291  0.1458
18146TIP3    H275854   2.912   3.718  16.801  0.5344  0.1061 -0.2665
18147TIP3   OH275855   1.661   3.242  12.710 -0.3166  0.4243  0.5891
18147TIP3    H175856   1.681   3.148  12.713 -1.2688  0.2014  0.4033
18147TIP3    H275857   1.726   3.282  12.766  1.2305 -0.1372 -0.7756
18148TIP3   OH275858   2.163   4.171   0.013 -0.2382  0.3977 -0.1780
18148TIP3    H175859   2.144   4.150   0.105  1.4181 -2.4096 -0.4174
18148TIP3    H275860   2.090   4.225  -0.015 -2.5574 -1.5957  1.8190
18149TIP3   OH275861   4.027   2.682   3.901 -0.1184  0.1288  0.5544
18149TIP3    H175862   3.976   2.618   3.950 -1.0013  0.5274  0.1725
18149TIP3    H275863   4.065   2.739   3.968 -1.6349  0.9056  0.7853
18150TIP3   OH275864   4.556   4.574  15.093 -0.2396  0.0842  0.1525
18150TIP3    H175865   4.625   4.639  15.080  1.2084 -1.4195  0.1774
18150TIP3    H275866   4.599   4.504  15.142 -1.6001 -1.1982 -0.4925
18151TIP3   OH275867   4.308   2.924  15.398  0.1243 -0.2382 -0.2608
18151TIP3    H175868   4.341   2.834  15.398 -0.5197 -0.4888 -0.9197
18151TIP3    H275869   4.238   2.923  15.332 -0.6691  0.4601  0.5586
18152TIP3   OH275870   5.937   4.069   2.364  0.1208  0.0932  0.4248
18152TIP3    H175871   5.893   4.068   2.279  1.7030  1.7198 -0.4491
18152TIP3    H275872   6.018   4.021   2.350 -0.7571 -1.8630  1.7230
18153TIP3   OH275873   2.540   5.501   3.358  0.4052  0.3520  0.2226
18153TIP3    H175874   2.630   5.471   3.348  1.1334  1.5945  2.6160
18153TIP3    H275875   2.546   5.597   3.361 -1.0987  0.4837 -0.4898
18154TIP3   OH275876   6.742   2.686  10.955  0.0911  0.0988  0.4949
18154TIP3    H175877   6.820   2.725  10.917  0.6008 -0.4272  0.9951
18154TIP3    H275878   6.674   2.698  10.888  1.2943 -2.0342 -1.1689
18155TIP3   OH275879   4.987   5.538  16.737  0.1782  0.2566  0.1008
18155TIP3    H175880   5.047   5.478  16.781 -0.1481  0.8056  1.3022
18155TIP3    H275881   4.921   5.559  16.803 -1.1197 -0.0227 -1.0851
18156TIP3   OH275882   0.069   0.574   4.799 -0.4314  0.4631  0.1424
18156TIP3    H175883   0.107   0.565   4.886 -0.9261  1.0256  0.4206
18156TIP3    H275884   0.007   0.502   4.792  0.6082 -0.4094 -0.2816
18157TIP3   OH275885   1.267   4.730   4.186  0.2173  0.0902  0.2145
18157TIP3    H175886   1.326   4.795   4.149  0.0861 -1.3392 -2.6835
18157TIP3    H275887   1.310   4.646   4.168 -0.9013 -0.7689  1.4619
18158TIP3   OH275888   2.946   0.384   0.488  0.5988 -0.0851 -0.1097
18158TIP3    H175889   2.998   0.343   0.557  0.2530 -0.8282 -0.2885
18158TIP3    H275890   2.905   0.459   0.530 -0.1673 -0.9406  0.6815
18159TIP3   OH275891   4.603   5.027  15.832  0.0081 -0.1333  0.1476
18159TIP3    H175892   4.606   5.122  15.820  1.4788 -0.1350  0.3687
18159TIP3    H275893   4.607   5.015  15.927  1.1494 -0.4495  0.0589
18160TIP3   OH275894   2.702   2.357  11.254 -0.0829  0.0099 -0.6048
18160TIP3    H175895   2.739   2.344  11.341  1.3189  0.0618 -1.1825
18160TIP3    H275896   2.607   2.360  11.268  0.0769 -1.1898  0.7491
18161TIP3   OH275897   4.089   0.369   0.953 -0.0431  0.1032 -0.0630
18161TIP3    H175898   4.022   0.304   0.976  2.9596 -2.7561  1.0709
18161TIP3    H275899   4.119   0.343   0.866  2.0322 -0.8291  0.8998
18162TIP3   OH275900   2.633   5.665  14.177 -0.3245 -0.0519 -0.5905
18162TIP3    H175901   2.619   5.595  14.241 -1.0727  1.4932  0.9736
18162TIP3    H275902   2.718   5.645  14.138  0.5061 -0.6067  1.4415
18163TIP3   OH275903   2.468   2.405  16.833 -0.0151  0.3716  0.3882
18163TIP3    H175904   2.523   2.342  16.787 -0.2348 -0.4628  1.2525
18163TIP3    H275905   2.520   2.485  16.835  0.1872  0.2785 -0.8916
18164TIP3   OH275906   6.643   1.488  12.918 -0.1086  0.5386  0.6773
18164TIP3    H175907   6.706   1.555  12.890  0.9822 -1.1166 -0.9649
18164TIP3    H275908   6.581   1.482  12.845 -1.1741  0.9510  1.5473
18165TIP3   OH275909   2.245   5.958   5.371  0.0043 -0.1559 -0.0147
18165TIP3    H175910   2.164   6.008   5.363  1.0254  1.5363 -0.2075
18165TIP3    H275911   2.314   6.022   5.351  1.5712 -0.7978  2.9785
18166TIP3   OH275912   2.296   2.284   4.565 -0.1685 -0.1823  0.0515
18166TIP3    H175913   2.285   2.207   4.510  0.9233  0.1685 -0.6729
18166TIP3    H275914   2.215   2.289   4.616 -0.2175 -1.8363  0.1502
18167TIP3   OH275915   1.516   6.213   0.661 -0.4825 -0.1644  0.5918
18167TIP3    H175916   1.541   6.141   0.604 -1.7748  0.2894 -0.5538
18167TIP3    H275917   1.586   6.278   0.650  0.1078 -0.7628  0.7893
18168TIP3   OH275918   0.169   3.748  12.714 -0.1561  0.5053  0.1511
18168TIP3    H175919   0.250   3.799  12.703 -0.3296  0.9500  0.9151
18168TIP3    H275920   0.124   3.790  12.787 -1.4429  0.7336 -0.7553
18169TIP3   OH275921   6.646   6.323   3.710  0.1986 -0.3808 -0.0078
18169TIP3    H175922   6.731   6.284   3.691 -0.3243 -1.8540  0.6104
18169TIP3    H275923   6.641   6.326   3.805 -0.0524  0.5804 -0.0475
18170TIP3   OH275924   2.676   4.447   2.727  0.0348  0.5016  0.0464
18170TIP3    H175925   2.759   4.422   2.768 -0.3618 -0.2127  0.4199
18170TIP3    H275926   2.646   4.367   2.684 -0.3914  0.8007 -0.2139
18171TIP3   OH275927   5.244   1.313   3.251  0.2365  0.1203 -0.2273
18171TIP3    H175928   5.258   1.400   3.211  2.4423 -1.6023 -3.4320
18171TIP3    H275929   5.196   1.264   3.185  0.1700 -1.5401  1.0235
18172TIP3   OH275930   4.181   1.283   2.949  0.7099  0.2512  0.0255
18172TIP3    H175931   4.217   1.372   2.957  0.4744  0.4349 -0.8792
18172TIP3    H275932   4.257   1.227   2.936  0.7955  0.4477 -0.3384
18173TIP3   OH275933   5.052   0.642   1.056 -0.4411  0.3703  0.1825
18173TIP3    H175934   5.050   0.729   1.096  0.6609  0.0020  1.0920
18173TIP3    H275935   4.967   0.604   1.076 -0.6392  0.9497  0.4588
18174TIP3   OH275936   3.791   1.450   0.550  0.1837  0.1813 -0.2053
18174TIP3    H175937   3.702   1.417   0.546  0.3903 -0.4291  0.2552
18174TIP3    H275938   3.789   1.532   0.499 -0.4789 -0.1707 -0.7458
18175TIP3   OH275939   2.484   4.324  11.414  0.1972  0.6477 -0.0462
18175TIP3    H175940   2.452   4.252  11.468  0.9113  0.2212 -0.1817
18175TIP3    H275941   2.445   4.308  11.328  0.6758  0.1878 -0.1824
18176TIP3   OH275942   3.396   5.781  13.639 -0.3623 -1.0071  0.2916
18176TIP3    H175943   3.343   5.731  13.576  0.2585  0.3127 -1.2987
18176TIP3    H275944   3.365   5.871  13.631  1.2683 -0.4384  0.2511
18177TIP3   OH275945   2.458   4.815   1.915  0.3331  0.2693 -0.1216
18177TIP3    H175946   2.544   4.793   1.877  0.4696  2.1255 -0.9228
18177TIP3    H275947   2.479   4.868   1.992 -0.1127  1.5765 -0.8912
18178TIP3   OH275948   2.486   0.279  14.769  0.3392  0.3910  0.0334
18178TIP3    H175949   2.538   0.253  14.693 -1.0526  1.7662 -1.4226
18178TIP3    H275950   2.545   0.335  14.819  1.1408 -0.2086 -0.2117
18179TIP3   OH275951   3.704   0.770   1.611 -0.2957 -0.1636 -0.3838
18179TIP3    H175952   3.663   0.691   1.576 -1.6515  0.7742 -0.9560
18179TIP3    H275953   3.658   0.842   1.568  0.6543  0.9475  0.4243
18180TIP3   OH275954   4.014   3.775  11.396 -0.1422 -0.0827  0.1175
18180TIP3    H175955   4.058   3.721  11.331  0.8736  0.6527  0.1728
18180TIP3    H275956   3.978   3.848  11.347  0.3257  0.2928  0.3327
18181TIP3   OH275957   4.682   6.716  15.444 -0.8717  0.3363 -0.3944
18181TIP3    H175958   4.668   6.670  15.361  3.2890  0.6628 -1.3924
18181TIP3    H275959   4.647   6.803  15.428  0.6771  0.6777 -2.1882
18182TIP3   OH275960   5.430   1.815  14.937  0.1039 -0.3400 -0.1069
18182TIP3    H175961   5.380   1.801  15.017 -1.2364 -0.5064 -0.9437
18182TIP3    H275962   5.450   1.908  14.937 -0.4336 -0.2235  0.1109
18183TIP3   OH275963   5.734   6.441  14.437  0.3377 -0.1149 -0.0246
18183TIP3    H175964   5.681   6.365  14.410 -0.0998  0.2442 -0.1851
18183TIP3    H275965   5.669   6.508  14.460  0.7237  0.1393  0.3205
18184TIP3   OH275966   2.425   5.208   4.897 -0.0922 -0.2029  0.3285
18184TIP3    H175967   2.359   5.227   4.831 -0.8003  2.1332  1.6407
18184TIP3    H275968   2.375   5.192   4.977  0.9005  2.8421  1.6308
18185TIP3   OH275969   6.278   2.318   2.208  0.7264 -0.0545 -0.3437
18185TIP3    H175970   6.306   2.385   2.146  1.6486 -0.5521 -0.4750
18185TIP3    H275971   6.219   2.262   2.159 -1.0693  1.3861  0.1121
18186TIP3   OH275972   3.985   4.225  16.756  0.2501 -0.1205 -0.2724
18186TIP3    H175973   4.009   4.294  16.693 -1.9301  2.3121  1.4179
18186TIP3    H275974   3.913   4.179  16.714  0.7635 -0.4349 -0.8092
18187TIP3   OH275975   1.429   2.750   1.629 -0.1609 -0.4116 -0.2177
18187TIP3    H175976   1.413   2.843   1.614 -1.1872 -0.1809  2.1040
18187TIP3    H275977   1.508   2.748   1.683 -0.6113 -0.8257  0.4352
18188TIP3   OH275978   4.334   0.285   0.196 -0.5861  0.3433 -0.5587
18188TIP3    H175979   4.413   0.237   0.222 -0.0982 -0.1703 -2.8641
18188TIP3    H275980   4.274   0.275   0.270  0.3352 -1.9544 -0.0833
18189TIP3   OH275981   4.006   3.349   5.823  0.1847  0.0614  0.8106
18189TIP3    H175982   4.026   3.277   5.763 -1.5039  0.7165 -0.5547
18189TIP3    H275983   4.017   3.311   5.910  1.4894 -1.2232  0.1037
18190TIP3   OH275984   5.950   0.836  13.649  0.0344 -0.0949 -0.1884
18190TIP3    H175985   5.938   0.753  13.604  0.2268  0.1937 -0.7663
18190TIP3    H275986   5.888   0.896  13.608  0.4430  0.2560 -0.3002
18191TIP3   OH275987   2.981   4.198  15.898 -0.1630 -0.2014  0.7843
18191TIP3    H175988   2.941   4.214  15.812  1.7496  0.3608 -0.0288
18191TIP3    H275989   2.948   4.270  15.953 -1.6376 -0.7377  0.6287
18192TIP3   OH275990   6.188   6.369   0.470  0.1737  0.2442 -0.3710
18192TIP3    H175991   6.148   6.402   0.389  1.6733  0.0940 -1.2110
18192TIP3    H275992   6.277   6.406   0.468  0.5068 -0.4973  0.7606
18193TIP3   OH275993   4.218   3.888  16.698 -0.1200 -0.0923 -0.3433
18193TIP3    H175994   4.183   3.801  16.715  1.9388 -0.6692  1.1550
18193TIP3    H275995   4.190   3.940  16.774 -0.2570  0.2217 -0.6048
18194TIP3   OH275996   6.474   0.437   1.696 -0.3704 -0.2930 -0.6083
18194TIP3    H175997   6.567   0.414   1.704 -0.3722 -0.5183 -1.1693
18194TIP3    H275998   6.460   0.444   1.601 -1.0366 -0.7124 -0.5376
18195TIP3   OH275999   4.026   5.061   0.393 -0.2660  0.1319 -0.1070
18195TIP3    H176000   3.933   5.070   0.416 -1.0337 -1.2363 -2.4251
18195TIP3    H276001   4.036   4.968   0.372  1.1556  0.6344 -1.7529
18196TIP3   OH276002   5.499   4.814  13.456  0.0396 -0.2114 -0.2281
18196TIP3    H176003   5.535   4.899  13.481  2.9498 -2.0480  2.1433
18196TIP3    H276004   5.517   4.806  13.363  1.9051  0.8008  0.0354
18197TIP3   OH276005   3.508   1.008  10.427 -0.3527  0.6651 -0.2527
18197TIP3    H176006   3.491   0.915  10.417 -0.4525  0.6382  0.1875
18197TIP3    H276007   3.486   1.045  10.341  0.0022  0.2417 -0.5296
18198TIP3   OH276008   6.335   3.769  13.697  0.2295  0.0716 -0.5673
18198TIP3    H176009   6.300   3.855  13.675 -0.0943 -0.7083 -3.3477
18198TIP3    H276010   6.258   3.719  13.727  0.7283  1.2371  2.8983
18199TIP3   OH276011   0.069   4.351   0.687 -0.4121 -0.3638  0.1039
18199TIP3    H176012  -0.022   4.325   0.676 -0.5620 -0.3894  1.4347
18199TIP3    H276013   0.102   4.296   0.758  0.0889  1.0597  0.9853
18200TIP3   OH276014   0.520   3.122   6.396 -0.8595  0.2955  0.1436
18200TIP3    H176015   0.534   3.195   6.336 -0.6352 -0.2894 -0.5278
18200TIP3    H276016   0.604   3.111   6.441  0.6043 -2.4332 -3.0137
18201TIP3   OH276017   3.607   4.207   5.832  0.1053  0.2819  0.4115
18201TIP3    H176018   3.687   4.159   5.853 -0.2529 -1.2653 -1.6566
18201TIP3    H276019   3.543   4.176   5.896  0.5111 -0.2045  0.5804
18202TIP3   OH276020   4.891   6.527  15.770  0.3010  0.0894 -0.4771
18202TIP3    H176021   4.848   6.501  15.851 -0.8900  1.2351 -0.7165
18202TIP3    H276022   4.884   6.623  15.768  2.0903  0.2431 -0.9640
18203TIP3   OH276023   4.658   5.030  15.467 -0.1773 -0.0144 -0.0348
18203TIP3    H176024   4.628   5.013  15.378 -0.2548  0.9155 -0.1908
18203TIP3    H276025   4.578   5.042  15.518 -0.1193  0.5578 -0.0704
18204TIP3   OH276026   1.722   3.087  11.876  0.1640 -0.1593  0.1134
18204TIP3    H176027   1.693   2.996  11.887 -1.7460  0.3460 -0.4631
18204TIP3    H276028   1.762   3.089  11.789 -0.1750 -0.3663 -0.0505
18205TIP3   OH276029   4.003   4.267   5.148  0.4621  0.2301 -0.0120
18205TIP3    H176030   3.947   4.190   5.158  1.4898 -0.5647 -0.2035
18205TIP3    H276031   4.031   4.264   5.056  0.7390  0.6657  0.0570
18206TIP3   OH276032   4.961   1.502   0.882 -0.4085 -0.4277 -0.1139
18206TIP3    H176033   4.989   1.554   0.957 -1.5013  1.4881 -0.9880
18206TIP3    H276034   4.865   1.499   0.889 -0.5555  0.1051 -1.6243
18207TIP3   OH276035   2.407   4.630   5.738  0.0593 -0.5817 -0.2742
18207TIP3    H176036   2.492   4.672   5.752  0.1313 -1.0127  0.5797
18207TIP3    H276037   2.419   4.540   5.769 -0.0501 -1.3047 -2.2174
18208TIP3   OH276038   3.018   2.727  17.138 -0.2053  0.7990 -0.3404
18208TIP3    H176039   3.030   2.785  17.212 -1.9114 -2.8098  2.9548
18208TIP3    H276040   3.085   2.659  17.150 -1.3865 -0.5598 -1.3151
18209TIP3   OH276041   5.683   3.083  12.871  0.3392 -0.1783 -0.1642
18209TIP3    H176042   5.619   3.024  12.912  0.5496  2.0857  3.5690
18209TIP3    H276043   5.765   3.033  12.872 -0.6622 -1.9515 -2.2570
18210TIP3   OH276044   1.358   1.659   1.355 -0.2974  0.0374  0.8982
18210TIP3    H176045   1.409   1.710   1.418  0.7061  0.0643  0.0766
18210TIP3    H276046   1.344   1.575   1.398 -0.2691  0.3164  1.4632
18211TIP3   OH276047   2.459   3.604   5.192  0.2278  0.1609  0.2499
18211TIP3    H176048   2.504   3.689   5.195 -1.5738  1.2312 -1.7920
18211TIP3    H276049   2.369   3.624   5.216 -0.0620 -1.2957  0.3943
18212TIP3   OH276050   0.265   0.496   0.007 -0.0664  0.0718  0.0541
18212TIP3    H176051   0.212   0.541  -0.058 -1.4410  2.6628  2.8516
18212TIP3    H276052   0.211   0.422   0.036 -0.3994  0.2467 -0.1282
18213TIP3   OH276053   0.648   4.494  11.569 -0.1533  0.2373  0.3532
18213TIP3    H176054   0.691   4.411  11.589  0.1629  0.1258 -0.7652
18213TIP3    H276055   0.614   4.524  11.653  1.4783 -0.0346  1.1178
18214TIP3   OH276056   5.197   3.191   1.895  0.1237  0.3747 -0.2776
18214TIP3    H176057   5.112   3.234   1.907 -1.2583 -1.7828 -1.7145
18214TIP3    H276058   5.248   3.214   1.972 -2.3639  0.4560  1.3842
18215TIP3   OH276059   1.333   1.144   3.425  0.0984  0.3834  0.5670
18215TIP3    H176060   1.285   1.156   3.343  0.9190 -3.5532 -0.5665
18215TIP3    H276061   1.277   1.087   3.477  1.6120 -0.7776  0.9444
18216TIP3   OH276062   5.668   0.534  16.555  0.6188 -0.0565  0.6545
18216TIP3    H176063   5.759   0.518  16.579 -0.4247 -1.0430  4.1068
18216TIP3    H276064   5.657   0.628  16.567  1.3831  0.2328 -0.6923
18217TIP3   OH276065   2.970   4.485  14.952 -0.3542 -0.1073 -0.0181
18217TIP3    H176066   2.976   4.417  15.019 -0.8683 -0.4083 -0.2671
18217TIP3    H276067   3.024   4.452  14.880 -0.2003 -0.0202  0.0589
18218TIP3   OH276068   1.269   0.516  11.252  0.1831 -0.5657  0.4097
18218TIP3    H176069   1.363   0.520  11.269  0.7598 -1.2999 -2.3321
18218TIP3    H276070   1.252   0.424  11.232 -0.6792 -0.0606 -1.3029
18219TIP3   OH276071   3.063   4.957  16.284 -0.4512 -0.1580 -0.0333
18219TIP3    H176072   3.076   4.961  16.190  2.0828 -0.9756  0.2539
18219TIP3    H276073   3.149   4.936  16.320 -1.7905 -1.9486  2.3034
18220TIP3   OH276074   1.679   0.096   5.443  0.4485 -0.0282  0.5151
18220TIP3    H176075   1.673   0.137   5.356  0.0860 -3.4789 -1.1765
18220TIP3    H276076   1.598   0.122   5.488 -1.6544 -2.0029 -1.9709
18221TIP3   OH276077   2.436   3.722  15.298 -0.4426 -0.6810  0.1441
18221TIP3    H176078   2.384   3.779  15.353 -0.3570 -0.5124  0.0485
18221TIP3    H276079   2.473   3.779  15.231 -0.0725 -0.7856  0.2556
18222TIP3   OH276080   3.310   4.222   0.206 -0.0120  0.3993 -0.3769
18222TIP3    H176081   3.232   4.195   0.158 -0.6220  1.8375 -0.1897
18222TIP3    H276082   3.370   4.254   0.138  0.0702  0.1443 -0.4257
18223TIP3   OH276083   5.273   4.033   4.264  0.8394  0.4317 -0.7390
18223TIP3    H176084   5.278   4.064   4.355 -1.9934 -2.5017  0.5160
18223TIP3    H276085   5.348   3.975   4.254  0.2507 -0.5143  0.2691
18224TIP3   OH276086   3.845   5.458   6.096 -0.7060  0.3397 -1.4729
18224TIP3    H176087   3.765   5.412   6.121  0.1209 -0.4033 -0.1658
18224TIP3    H276088   3.861   5.518   6.168  2.1261 -2.3523  0.2484
18225TIP3   OH276089   1.218   5.018   5.545 -0.3437  0.6500  0.4093
18225TIP3    H176090   1.227   4.972   5.629 -0.2311  0.1296  0.1116
18225TIP3    H276091   1.304   5.058   5.531 -0.3825  0.7921  0.5742
18226TIP3   OH276092   0.819   2.885  15.374 -0.1435 -0.1389  0.5036
18226TIP3    H176093   0.779   2.820  15.317  0.8055 -1.0861  0.9020
18226TIP3    H276094   0.745   2.928  15.417 -1.0060  2.0359 -2.9466
18227TIP3   OH276095   3.849   0.278   4.075  0.1956 -0.6557 -0.4436
18227TIP3    H176096   3.762   0.273   4.037 -0.3540  0.1648  0.6866
18227TIP3    H276097   3.891   0.196   4.051 -0.3139 -0.3747 -2.3650
18228TIP3   OH276098   2.502   4.779  11.530 -0.2315  0.0685 -0.2422
18228TIP3    H176099   2.560   4.816  11.463 -0.7591 -0.7013 -1.1385
18228TIP3    H276100   2.550   4.790  11.612  0.6049  0.6519 -0.8027
18229TIP3   OH276101   0.178   1.300   3.756 -0.1130 -0.2976 -0.0071
18229TIP3    H176102   0.132   1.337   3.681 -0.6452  0.8307  0.8624
18229TIP3    H276103   0.261   1.269   3.720 -0.0613  0.8772 -0.9302
18230TIP3   OH276104   4.386   4.579  11.325 -0.5551  0.6643  0.2105
18230TIP3    H176105   4.461   4.523  11.346 -0.2127  0.6903 -0.9590
18230TIP3    H276106   4.424   4.664  11.304 -0.9101  0.6363 -0.5369
18231TIP3   OH276107   4.717   0.159   1.490 -0.5387 -0.5635 -0.4270
18231TIP3    H176108   4.633   0.113   1.481 -0.9886  0.1148  0.2386
18231TIP3    H276109   4.699   0.230   1.551  0.2642  0.2172 -1.0787
18232TIP3   OH276110   1.724   4.005  13.912 -0.0202  0.1850  0.3297
18232TIP3    H176111   1.685   4.036  13.993 -2.6144 -2.1833  0.0320
18232TIP3    H276112   1.734   3.911  13.923  1.7133  0.1348 -1.2585
18233TIP3   OH276113   1.782   5.121  12.997  0.3388  0.1456  0.5134
18233TIP3    H176114   1.706   5.118  12.939  0.1955  0.0143  0.7047
18233TIP3    H276115   1.823   5.035  12.988  1.6670  0.9077 -1.1608
18234TIP3   OH276116   5.416   5.162  16.954 -0.5137 -0.3525  0.4588
18234TIP3    H176117   5.360   5.193  16.883 -1.4487 -0.4403  1.1451
18234TIP3    H276118   5.484   5.229  16.962 -0.9715  0.1525  0.1388
18235TIP3   OH276119   6.022   1.275   0.223  0.1683  0.3161  0.3983
18235TIP3    H176120   5.992   1.269   0.314  1.7411  1.0898  0.9809
18235TIP3    H276121   6.000   1.365   0.196  1.2808  0.6565  0.5971
18236TIP3   OH276122   1.507   4.276   0.722  0.1649  0.2012  0.3331
18236TIP3    H176123   1.469   4.305   0.805 -0.4655 -0.2288  0.1935
18236TIP3    H276124   1.602   4.284   0.736  0.0191  1.8838  0.4477
18237TIP3   OH276125   3.569   2.427   4.164 -0.6782  0.6663  0.1815
18237TIP3    H176126   3.520   2.370   4.223 -0.1111  0.8546  0.8467
18237TIP3    H276127   3.582   2.508   4.214 -1.8468  1.5483 -0.9039
18238TIP3   OH276128   1.051   2.492   6.363  0.2977 -0.4508 -0.0799
18238TIP3    H176129   1.121   2.428   6.379  0.8405  0.8002  2.9057
18238TIP3    H276130   1.097   2.572   6.337 -0.0470  0.1024  0.9724
18239TIP3   OH276131   2.744   3.892   8.606  1.1591 -0.1073  0.6008
18239TIP3    H176132   2.675   3.941   8.562  1.2338 -0.9009 -0.4205
18239TIP3    H276133   2.733   3.913   8.699  1.8944  2.7297  0.1060
18240TIP3   OH276134   4.507   2.694   3.446  0.1766 -0.2888 -0.1998
18240TIP3    H176135   4.540   2.609   3.476  1.4707  0.1913 -0.2580
18240TIP3    H276136   4.571   2.757   3.477  0.4350  0.4338 -2.1477
18241TIP3   OH276137   5.265   0.481   0.712 -0.1534 -0.3012 -0.3088
18241TIP3    H176138   5.180   0.526   0.709 -0.6005 -1.1401 -0.5682
18241TIP3    H276139   5.297   0.496   0.801  0.8643  2.6058 -1.1297
18242TIP3   OH276140   3.062   3.077  10.270 -0.0412  0.6367  0.0715
18242TIP3    H176141   2.977   3.035  10.257 -0.1084  1.0850 -0.9837
18242TIP3    H276142   3.125   3.014  10.236 -0.0373  0.7881 -0.2019
18243TIP3   OH276143   3.418   1.597  11.198  0.2422  0.3224  0.1930
18243TIP3    H176144   3.462   1.551  11.270 -0.1834 -0.5581 -0.0966
18243TIP3    H276145   3.353   1.534  11.167 -1.8020  1.9256  1.1687
18244TIP3   OH276146   5.609   1.276   5.696  0.8510  0.1914 -0.0972
18244TIP3    H176147   5.660   1.216   5.641  3.0697 -0.4834  2.5834
18244TIP3    H276148   5.638   1.363   5.668  1.4559 -0.1218 -0.4663
18245TIP3   OH276149   5.554   0.340  15.853 -0.1357  0.0574 -0.4233
18245TIP3    H176150   5.516   0.346  15.765  0.1503  0.7158 -0.5125
18245TIP3    H276151   5.508   0.407  15.904  0.0308  0.0051 -0.2036
18246TIP3   OH276152   6.079   3.163   2.184  0.1548  0.2030 -0.1259
18246TIP3    H176153   6.131   3.140   2.106  1.6817  0.2720  0.8546
18246TIP3    H276154   6.044   3.250   2.165  0.5812  0.2493 -0.7126
18247TIP3   OH276155   4.276   0.723  12.132  0.0565 -0.3293 -0.0518
18247TIP3    H176156   4.353   0.763  12.173 -0.4968  1.0053 -0.2726
18247TIP3    H276157   4.309   0.683  12.052  1.1568 -3.0074  1.6924
18248TIP3   OH276158   5.112   2.462  15.776  0.2910 -0.1306 -0.5597
18248TIP3    H176159   5.125   2.390  15.838  0.2754 -0.0970 -0.5177
18248TIP3    H276160   5.179   2.527  15.800 -0.1475  0.1710 -0.1564
18249TIP3   OH276161   0.051   4.636   6.631  0.2101  0.1533 -0.3425
18249TIP3    H176162   0.066   4.698   6.559 -0.3979 -0.0428 -0.6350
18249TIP3    H276163   0.111   4.564   6.613 -1.1546 -0.6962 -1.5962
18250TIP3   OH276164   5.281   2.848   3.740 -0.1908 -0.0800 -0.1849
18250TIP3    H176165   5.297   2.766   3.787  0.2915 -0.1917 -0.5370
18250TIP3    H276166   5.310   2.916   3.802 -0.9659 -0.1554  0.2605
18251TIP3   OH276167   3.401   2.073   3.329 -0.1741  0.3532  0.4734
18251TIP3    H176168   3.480   2.044   3.282 -0.7238 -0.3944 -0.0076
18251TIP3    H276169   3.366   2.144   3.275  0.5759  1.1968  1.0815
18252TIP3   OH276170   0.419   3.944   5.416  0.1490 -0.1807  0.4868
18252TIP3    H176171   0.476   4.000   5.362  0.2257 -1.3211 -0.6407
18252TIP3    H276172   0.334   3.988   5.414  0.0743 -0.3658 -0.8221
18253TIP3   OH276173   2.061   3.401   5.562 -0.5391 -0.2913 -0.3400
18253TIP3    H176174   2.128   3.395   5.494 -0.7327 -0.5369 -0.5107
18253TIP3    H276175   1.999   3.331   5.541  0.5145 -1.7600  1.3275
18254TIP3   OH276176   3.258   4.071   3.338 -0.3449  0.7792  0.0988
18254TIP3    H176177   3.267   4.045   3.430 -0.2695  0.0213 -0.1162
18254TIP3    H276178   3.275   3.990   3.289 -1.0210  1.0383 -0.5582
18255TIP3   OH276179   4.901   1.900   4.653 -0.0699  0.1133 -0.8972
18255TIP3    H176180   4.886   1.897   4.558 -0.7162 -0.0778 -0.7897
18255TIP3    H276181   4.956   1.824   4.671 -2.6719 -1.7250 -0.6341
18256TIP3   OH276182   3.066   4.341  15.177 -0.2529 -0.0544 -0.3247
18256TIP3    H176183   3.039   4.257  15.139  1.1559 -0.8839  0.4987
18256TIP3    H276184   3.003   4.357  15.247  0.3133 -1.1236  0.4377
18257TIP3   OH276185   3.787   1.498   2.737  0.5400  0.1642 -0.1230
18257TIP3    H176186   3.706   1.458   2.769  1.5552 -1.7876  0.1021
18257TIP3    H276187   3.811   1.563   2.803 -0.7702  0.6747 -0.1421
18258TIP3   OH276188   3.628   3.188  11.874  0.4482  0.3965 -0.3084
18258TIP3    H176189   3.536   3.201  11.849  0.2410  1.8012  1.1219
18258TIP3    H276190   3.657   3.274  11.904  1.8334 -0.3507  0.5392
18259TIP3   OH276191   5.085   5.842  13.273 -0.3774 -0.0076 -1.3079
18259TIP3    H176192   5.149   5.913  13.264 -1.4802  1.0663 -0.8319
18259TIP3    H276193   5.129   5.765  13.238  1.5850  0.4735  0.0080
18260TIP3   OH276194   4.267   5.751   5.714 -0.5682 -0.4246 -0.3509
18260TIP3    H176195   4.182   5.718   5.684 -0.4071 -2.0288  0.8500
18260TIP3    H276196   4.313   5.673   5.744  1.1890  0.4877 -0.6096
18261TIP3   OH276197   0.391   6.394  13.327  0.3853  0.4579 -0.7060
18261TIP3    H176198   0.406   6.485  13.355  1.8512 -0.4430  1.6859
18261TIP3    H276199   0.341   6.401  13.246  0.2924  3.3954 -0.4518
18262TIP3   OH276200   5.369   2.568   4.960 -0.1833  0.5141  0.0004
18262TIP3    H176201   5.461   2.561   4.985 -0.0722  0.7725 -0.3303
18262TIP3    H276202   5.352   2.490   4.907 -0.6991 -0.5800  1.7363
18263TIP3   OH276203   6.614   4.353  16.179 -0.0385 -0.3211  0.4038
18263TIP3    H176204   6.565   4.322  16.103 -0.2763 -0.6651  0.6973
18263TIP3    H276205   6.591   4.292  16.250  2.5061 -1.8660 -0.0099
18264TIP3   OH276206   5.100   1.877  14.386  0.0977  0.5304 -0.0961
18264TIP3    H176207   5.055   1.961  14.372 -1.5764 -0.2295  0.5727
18264TIP3    H276208   5.031   1.819  14.418  1.4165 -0.8939  0.1702
18265TIP3   OH276209   4.646   6.493  10.904 -0.3252 -0.1139  0.0142
18265TIP3    H176210   4.661   6.493  10.999 -0.8234  1.1829  0.1058
18265TIP3    H276211   4.664   6.583  10.877  0.0624 -0.5386 -1.1674
18266TIP3   OH276212   6.351   5.886   0.112  0.1437 -0.2296 -0.6716
18266TIP3    H176213   6.348   5.792   0.133  1.4021 -0.1181  0.0388
18266TIP3    H276214   6.444   5.905   0.102 -0.0843  1.0535 -0.3526
18267TIP3   OH276215   3.299   1.257  16.658 -0.2893 -0.1052  0.3267
18267TIP3    H176216   3.355   1.310  16.601  0.9496 -0.0862  1.5362
18267TIP3    H276217   3.223   1.314  16.676  0.9932  1.2626  1.5558
18268TIP3   OH276218   2.338   0.261  12.934  0.1451  0.3374  0.6944
18268TIP3    H176219   2.252   0.256  12.976  0.6630 -1.0310  1.6266
18268TIP3    H276220   2.356   0.172  12.905  0.9293  0.7602 -0.1392
18269TIP3   OH276221   4.594   0.880   5.903  0.0134 -0.4309 -0.4148
18269TIP3    H176222   4.631   0.913   5.985  1.3482 -3.4771  0.2874
18269TIP3    H276223   4.649   0.918   5.834 -0.1610  0.9156  0.1724
18270TIP3   OH276224   6.640   1.851   4.456 -0.3303  0.7984 -0.0855
18270TIP3    H176225   6.706   1.916   4.432 -0.8570  2.1489  1.9700
18270TIP3    H276226   6.690   1.774   4.482  0.2861  0.0942 -3.1515
18271TIP3   OH276227   5.715   0.480  13.224  0.1046 -0.3342 -0.4319
18271TIP3    H176228   5.758   0.428  13.156 -2.4665 -1.4430 -1.2667
18271TIP3    H276229   5.694   0.563  13.182  0.3675 -0.2419 -0.3809
18272TIP3   OH276230   4.934   2.335  11.626  0.6923 -0.6358  0.2488
18272TIP3    H176231   4.894   2.416  11.658 -2.7498 -1.3356 -1.9430
18272TIP3    H276232   4.948   2.282  11.704  1.4880  1.4442  1.5335
18273TIP3   OH276233   0.622   3.925   4.969  0.3297 -0.0929 -0.2507
18273TIP3    H176234   0.685   3.866   5.010  2.3904  0.7889 -2.0289
18273TIP3    H276235   0.572   3.869   4.909  0.5120 -0.4856 -0.0331
18274TIP3   OH276236   1.361   4.060   2.409 -0.0962  0.0191  0.0980
18274TIP3    H176237   1.301   4.131   2.431  0.4062  0.7273 -0.7968
18274TIP3    H276238   1.383   4.020   2.493 -2.6367 -0.9395  0.3817
18275TIP3   OH276239   1.191   6.048  16.314 -0.9943 -0.0136 -0.3292
18275TIP3    H176240   1.228   6.044  16.402 -3.7144  1.4748  0.9312
18275TIP3    H276241   1.267   6.064  16.257  0.5889  0.7604  1.9295
18276TIP3   OH276242   5.291   5.473  15.573 -0.8433 -0.2503 -0.3819
18276TIP3    H176243   5.198   5.451  15.568 -0.7660 -0.6318 -0.1847
18276TIP3    H276244   5.330   5.429  15.497 -0.5239 -1.6677  0.5837
18277TIP3   OH276245   6.239   0.682  12.892 -0.7601  0.9716  0.2410
18277TIP3    H176246   6.273   0.765  12.859 -0.6706  0.6144 -0.5602
18277TIP3    H276247   6.316   0.626  12.898 -0.7845  1.0030  0.9909
18278TIP3   OH276248   5.045   2.575  13.457 -0.3460  0.0335 -0.3103
18278TIP3    H176249   4.951   2.560  13.472 -0.1694 -0.6453  0.1452
18278TIP3    H276250   5.052   2.586  13.362 -1.0701  1.4492 -0.2099
18279TIP3   OH276251   3.000   2.195   3.395  0.4446 -0.0323  0.4351
18279TIP3    H176252   3.070   2.148   3.349 -0.6551  0.1801 -1.4873
18279TIP3    H276253   3.013   2.287   3.371  0.6157  0.2499  1.5735
18280TIP3   OH276254   6.613   2.600   4.556 -0.2349  0.6455 -0.2236
18280TIP3    H176255   6.700   2.625   4.523  0.4798 -1.9391 -0.4025
18280TIP3    H276256   6.572   2.554   4.483 -1.2572  0.6883  0.3145
18281TIP3   OH276257   0.694   0.182  12.066  0.4041  0.1746 -0.5957
18281TIP3    H176258   0.692   0.091  12.098 -0.4453  0.1609 -0.6735
18281TIP3    H276259   0.709   0.174  11.972  2.5422  0.2013 -0.2893
18282TIP3   OH276260   2.732   3.051  11.353  0.4086  0.2088 -0.3941
18282TIP3    H176261   2.699   3.139  11.337 -1.6450 -0.7225 -1.4578
18282TIP3    H276262   2.752   3.016  11.266 -2.9605 -1.9151 -0.4009
18283TIP3   OH276263   3.479   2.142  12.011  0.2325 -0.4556  0.2453
18283TIP3    H176264   3.419   2.069  12.023  1.5156 -1.2842  1.6259
18283TIP3    H276265   3.454   2.206  12.078  0.5413 -0.5739  0.4747
18284TIP3   OH276266   3.528   4.931   0.651 -0.0716 -0.0257 -0.9174
18284TIP3    H176267   3.478   5.013   0.647  0.7941  0.4419 -2.7469
18284TIP3    H276268   3.487   4.875   0.586 -0.2548 -0.8238 -0.1162
18285TIP3   OH276269   0.700   3.654  12.111  0.2544  0.0285 -0.0393
18285TIP3    H176270   0.641   3.578  12.112  0.5641 -0.2576 -1.3954
18285TIP3    H276271   0.768   3.633  12.174  0.6992 -1.1385 -0.8898
18286TIP3   OH276272   6.163   5.382   0.546 -0.1797 -0.1208 -0.5272
18286TIP3    H176273   6.146   5.386   0.452  0.6357  0.0773 -0.6638
18286TIP3    H276274   6.255   5.357   0.553 -0.4573 -0.9536  0.2244
18287TIP3   OH276275   2.136   3.541  11.823 -0.4921  0.4471 -0.3769
18287TIP3    H176276   2.225   3.549  11.789 -0.4377  3.5404  0.3802
18287TIP3    H276277   2.144   3.480  11.896  1.6103  2.9954  1.5972
18288TIP3   OH276278   1.197   3.816   3.013 -0.2511  0.0413  0.4288
18288TIP3    H176279   1.185   3.733   3.060 -0.9072 -0.6760 -0.9850
18288TIP3    H276280   1.291   3.822   2.999  0.0443  0.6140  2.4302
18289TIP3   OH276281   3.550   2.347   2.193  0.1609 -0.9426  0.0612
18289TIP3    H176282   3.571   2.323   2.283 -0.0712  1.9347  0.9491
18289TIP3    H276283   3.456   2.361   2.193  0.5494  2.0130  0.1805
18290TIP3   OH276284   3.960   1.704   0.946 -0.0151 -0.2610  0.1118
18290TIP3    H176285   3.956   1.788   0.899 -0.6261 -0.2110  0.2588
18290TIP3    H276286   3.951   1.728   1.038  3.4890 -0.1136  0.5010
18291TIP3   OH276287   0.334   5.381   0.402 -0.1583 -0.4716 -0.2210
18291TIP3    H176288   0.386   5.425   0.469  1.3232 -1.0418 -0.9800
18291TIP3    H276289   0.358   5.425   0.320 -0.2826 -1.2621 -0.6901
18292TIP3   OH276290   6.344   5.519   1.512 -0.1812  0.3357  0.1498
18292TIP3    H176291   6.344   5.447   1.448 -0.5125  0.0415  0.4711
18292TIP3    H276292   6.309   5.594   1.464 -1.2556 -0.1059  0.2112
18293TIP3   OH276293   0.506   0.560  16.299 -0.9138  0.0371  0.2830
18293TIP3    H176294   0.498   0.488  16.361  0.1090  0.1496  0.5525
18293TIP3    H276295   0.533   0.519  16.217 -0.8323  0.0579  0.2987
18294TIP3   OH276296   6.029   6.552  13.610 -0.1223  0.1296 -0.3802
18294TIP3    H176297   6.045   6.638  13.647 -0.5451  0.1864 -0.3312
18294TIP3    H276298   6.094   6.544  13.539 -1.3324  1.2633 -1.6408
18295TIP3   OH276299   1.666   6.567  15.651 -0.5353  0.0659 -0.7554
18295TIP3    H176300   1.627   6.631  15.711 -0.5102  1.1942 -1.9216
18295TIP3    H276301   1.595   6.544  15.591 -0.4817 -0.8449 -0.4728
18296TIP3   OH276302   1.449   0.345  15.145  0.3169 -0.3272  0.4256
18296TIP3    H176303   1.480   0.407  15.210 -0.3003 -0.2427  0.6492
18296TIP3    H276304   1.445   0.395  15.063  1.3001 -0.4924  0.2703
18297TIP3   OH276305   2.213   4.410   1.030  0.0158 -0.3514 -0.0419
18297TIP3    H176306   2.260   4.328   1.016  0.5129 -0.2111  0.7718
18297TIP3    H276307   2.278   4.468   1.069  0.1045  0.9352 -2.0120
18298TIP3   OH276308   4.254   0.279   0.457  0.0163  0.0078  0.9489
18298TIP3    H176309   4.338   0.295   0.501  0.3009 -2.8624  1.5570
18298TIP3    H276310   4.206   0.222   0.517 -0.9348 -1.2409 -0.9427
18299TIP3   OH276311   6.091   4.819  15.000 -0.0522 -0.8509  0.2010
18299TIP3    H176312   6.068   4.867  14.920 -0.4783  1.1523  1.4876
18299TIP3    H276313   6.184   4.836  15.012 -0.0430 -0.9494  0.2734
18300TIP3   OH276314   1.646   4.008  17.108 -0.2009  0.5089  0.2936
18300TIP3    H176315   1.630   3.923  17.149 -2.1870  0.4908 -0.4814
18300TIP3    H276316   1.669   4.065  17.181 -0.3480 -0.3244  1.0043
18301TIP3   OH276317   6.638   2.958   3.881  0.2386  0.4826  0.1410
18301TIP3    H176318   6.572   2.980   3.815  1.7319  3.5371 -0.4154
18301TIP3    H276319   6.717   2.938   3.831  0.1964 -1.7013  0.8704
18302TIP3   OH276320   6.436   5.333  10.982  0.6491 -0.4185  0.1241
18302TIP3    H176321   6.410   5.248  11.018 -0.5790 -0.8681 -1.7425
18302TIP3    H276322   6.529   5.324  10.962  0.5452 -1.2971  0.0390
18303TIP3   OH276323   1.017   5.450  12.385 -0.9047  0.1526  0.0661
18303TIP3    H176324   1.108   5.445  12.414 -1.1791  1.9846  1.3293
18303TIP3    H276325   0.995   5.360  12.360  1.3119 -0.2756 -0.4769
18304TIP3   OH276326   0.745   1.828   5.260  0.5708  0.1222  0.1745
18304TIP3    H176327   0.778   1.760   5.318  0.7887  0.8748  0.9465
18304TIP3    H276328   0.650   1.824   5.270  0.4441 -1.5393 -1.4737
18305TIP3   OH276329   4.287   1.571   6.113 -0.3382 -0.5657  0.2479
18305TIP3    H176330   4.365   1.562   6.168  0.0240  1.6185  0.1347
18305TIP3    H276331   4.321   1.574   6.023 -0.3964  1.7934  0.2756
18306TIP3   OH276332   1.924   0.475   4.324 -0.2345  0.1658 -0.2094
18306TIP3    H176333   1.945   0.451   4.234  1.7438 -0.8137  0.5007
18306TIP3    H276334   1.841   0.430   4.342 -0.8450  0.6812 -1.6434
18307TIP3   OH276335   6.411   4.279  14.234  0.5319  0.0885  0.0330
18307TIP3    H176336   6.426   4.185  14.242  0.5763  0.1311  0.5219
18307TIP3    H276337   6.445   4.315  14.317  0.0107  0.4683  0.0821
18308TIP3   OH276338   0.174   1.845   0.993  0.0106  0.2686 -0.4747
18308TIP3    H176339   0.266   1.844   0.968  0.9359 -0.7929  2.8721
18308TIP3    H276340   0.143   1.756   0.976  0.5399 -0.3472  1.6848
18309TIP3   OH276341   3.937   2.142  15.694 -0.1174  0.2719 -0.0384
18309TIP3    H176342   3.951   2.207  15.762 -0.1115  0.2010  0.0291
18309TIP3    H276343   3.858   2.094  15.722 -0.7105  0.9075 -0.5935
18310TIP3   OH276344   1.251   4.922   1.724 -0.1074 -0.0323 -0.0563
18310TIP3    H176345   1.178   4.975   1.692 -1.0584 -0.5586  1.2180
18310TIP3    H276346   1.279   4.872   1.648 -3.0146 -2.0264  0.1133
18311TIP3   OH276347   6.354   4.351  16.670 -0.3253 -0.3629 -0.2521
18311TIP3    H176348   6.293   4.346  16.596  2.9652 -1.6926 -3.0130
18311TIP3    H276349   6.363   4.445  16.687  0.7704  0.1639 -3.2954
18312TIP3   OH276350   1.307   1.891  13.505  0.5792  0.0308 -0.4680
18312TIP3    H176351   1.271   1.970  13.544  1.6404 -0.2329  1.0951
18312TIP3    H276352   1.398   1.913  13.486  1.1418 -1.0957  0.8358
18313TIP3   OH276353   5.652   4.152   6.761  0.6826 -0.1143 -0.5665
18313TIP3    H176354   5.657   4.148   6.857  0.7128 -0.3064 -0.5763
18313TIP3    H276355   5.740   4.127   6.732  0.6864 -0.0088 -0.6433
18314TIP3   OH276356   0.785   4.010  11.844 -0.4118  0.1770 -0.4973
18314TIP3    H176357   0.814   4.044  11.928  0.1243 -0.7419 -0.3008
18314TIP3    H276358   0.848   3.941  11.823 -1.7070 -0.9834 -0.6739
18315TIP3   OH276359   3.111   5.745   5.304  0.1008 -0.3727  0.0942
18315TIP3    H176360   3.063   5.664   5.288 -0.4676 -0.5832  2.6945
18315TIP3    H276361   3.051   5.799   5.354  1.9411  0.0372  1.9246
18316TIP3   OH276362   6.519   0.753   5.699  0.5458 -0.0273  0.4086
18316TIP3    H176363   6.509   0.704   5.617  2.3824 -0.9665  0.7279
18316TIP3    H276364   6.443   0.812   5.701 -0.7827 -1.6373 -0.8280
18317TIP3   OH276365   2.681   3.127  12.466 -0.2469 -0.0149  0.1963
18317TIP3    H176366   2.642   3.188  12.405  2.3529  0.1783 -1.3249
18317TIP3    H276367   2.691   3.046  12.416  2.0849  0.2064  0.2322
18318TIP3   OH276368   3.451   4.654  12.713  0.5111  0.0597  0.7189
18318TIP3    H176369   3.535   4.675  12.673  1.5351  0.3984  2.9478
18318TIP3    H276370   3.473   4.591  12.782 -1.1369 -0.2328  0.9847
18319TIP3   OH276371   6.478   0.034   3.862  0.0193  0.2960 -0.2170
18319TIP3    H176372   6.398  -0.016   3.842  0.2582  0.5446 -1.9020
18319TIP3    H276373   6.448   0.109   3.912 -0.5548 -0.6493  0.8864
18320TIP3   OH276374   1.033   6.714  15.279 -0.3110  0.4928  0.8542
18320TIP3    H176375   1.033   6.716  15.184 -0.7288  1.3751  0.8714
18320TIP3    H276376   0.965   6.777  15.305  1.9970  2.6739  1.7993
18321TIP3   OH276377   4.692   1.019  11.619  0.4745 -0.1612 -0.0764
18321TIP3    H176378   4.783   0.997  11.601 -0.1079 -0.7832 -2.4690
18321TIP3    H276379   4.642   0.965  11.558 -1.5906 -1.0376  2.3069
18322TIP3   OH276380   3.983   2.585   3.250 -0.1864  0.0898 -0.7153
18322TIP3    H176381   4.029   2.549   3.174  1.6517 -1.1940  0.9337
18322TIP3    H276382   3.912   2.522   3.266 -0.3884  0.1965 -1.1850
18323TIP3   OH276383   1.217   1.102   4.467 -0.0869 -0.2304 -0.1547
18323TIP3    H176384   1.283   1.168   4.489  0.2757 -0.6427 -0.0206
18323TIP3    H276385   1.134   1.149   4.475  0.2383  0.5202 -1.1842
18324TIP3   OH276386   0.463   4.899   3.420 -0.7072  0.5847 -0.3778
18324TIP3    H176387   0.430   4.984   3.449 -1.9018 -0.3689  1.1562
18324TIP3    H276388   0.558   4.906   3.430 -0.8963  1.2815  1.0902
18325TIP3   OH276389   3.551   1.376  10.191 -0.0654 -0.3183 -0.2453
18325TIP3    H176390   3.597   1.410  10.114 -1.9071 -1.3996 -1.8515
18325TIP3    H276391   3.564   1.443  10.258  0.6331  1.1524 -1.8098
18326TIP3   OH276392   1.355   2.705   0.016 -0.9369 -0.2239 -0.3891
18326TIP3    H176393   1.407   2.708   0.097 -0.1593  0.1766 -0.8888
18326TIP3    H276394   1.265   2.692   0.045 -0.4771 -1.5289  0.4755
18327TIP3   OH276395   0.942   1.754   1.157  0.7526  0.6685  0.3048
18327TIP3    H176396   0.924   1.845   1.133  1.6897  0.4690 -1.2193
18327TIP3    H276397   1.037   1.750   1.164  0.8633 -0.6153 -1.4941
18328TIP3   OH276398   6.024   5.876   1.969 -0.5947  0.2045  0.0445
18328TIP3    H176399   6.046   5.814   1.900 -2.4597  0.0588 -0.4476
18328TIP3    H276400   6.072   5.845   2.046 -0.3817 -1.0132 -0.5712
18329TIP3   OH276401   0.426   4.090  10.912 -0.0589 -0.5089 -0.5631
18329TIP3    H176402   0.423   4.020  10.978 -2.4715 -0.9394 -1.0884
18329TIP3    H276403   0.431   4.171  10.963  1.2470 -0.9749  0.0734
18330TIP3   OH276404   1.132   2.891  13.209  0.1779  0.4628 -0.5785
18330TIP3    H176405   1.135   2.866  13.117  2.1227  2.5397 -1.1375
18330TIP3    H276406   1.222   2.914  13.230 -0.7222  2.6337  1.0749
18331TIP3   OH276407   3.745   0.403  11.049  0.1536  0.0659  0.4717
18331TIP3    H176408   3.686   0.446  10.987 -0.1015  0.0262  0.6873
18331TIP3    H276409   3.714   0.312  11.053  1.1568 -0.3343 -0.5576
18332TIP3   OH276410   3.226   4.524  13.690 -0.6985  0.0309 -0.0598
18332TIP3    H176411   3.156   4.481  13.639 -0.8563  0.2945 -0.0655
18332TIP3    H276412   3.240   4.608  13.646 -1.4851  0.6702  0.8742
18333TIP3   OH276413   2.091   1.736   1.768  0.4936  0.0439 -0.3109
18333TIP3    H176414   2.139   1.806   1.813  3.1880 -1.0549 -1.3493
18333TIP3    H276415   2.065   1.675   1.837  1.0621  0.3847  0.2068
18334TIP3   OH276416   5.761   0.674   4.150 -0.6689 -0.4099 -0.3147
18334TIP3    H176417   5.688   0.731   4.175  0.5975  2.6281 -3.1888
18334TIP3    H276418   5.839   0.722   4.178  0.3657 -1.6989 -0.9742
18335TIP3   OH276419   3.625   4.821   2.117  0.4470  0.6173 -0.7837
18335TIP3    H176420   3.578   4.877   2.179  0.7967  1.1838 -1.0299
18335TIP3    H276421   3.630   4.736   2.161 -0.4389  0.6682 -0.5749
18336TIP3   OH276422   6.285   4.201  11.988  0.0080  0.2454 -0.0716
18336TIP3    H176423   6.300   4.175  11.898  1.8864  0.4716  0.1611
18336TIP3    H276424   6.330   4.134  12.040 -1.2664 -0.0200  0.7088
18337TIP3   OH276425   0.231   5.262  13.759  0.5993  0.3707 -0.4479
18337TIP3    H176426   0.278   5.274  13.842  3.3802 -0.6034 -1.8079
18337TIP3    H276427   0.200   5.349  13.736 -2.8690  0.1868  3.0903
18338TIP3   OH276428   2.979   5.414   0.347 -0.1730  0.3994 -0.0028
18338TIP3    H176429   3.008   5.485   0.404  1.6434  0.7131 -1.2636
18338TIP3    H276430   2.996   5.446   0.259  0.1346 -1.3709 -0.6090
18339TIP3   OH276431   5.623   3.320   1.516 -0.0068 -0.2046  0.1891
18339TIP3    H176432   5.708   3.312   1.472 -0.5163 -0.0078 -0.8475
18339TIP3    H276433   5.583   3.233   1.508  0.0063 -0.2389  0.4908
18340TIP3   OH276434   1.117   4.917   1.356 -0.1776  0.2635  0.3499
18340TIP3    H176435   1.142   4.846   1.297 -0.6545  0.4197 -0.0454
18340TIP3    H276436   1.038   4.885   1.400  1.3287 -0.7052  2.4446
18341TIP3   OH276437   1.199   1.989  12.711  1.1237  0.0758  0.6920
18341TIP3    H176438   1.193   2.081  12.686  0.3448  0.0946  0.9279
18341TIP3    H276439   1.119   1.972  12.762  0.5019 -1.1221 -0.6396
18342TIP3   OH276440   3.760   2.408   5.362  0.0912  0.1112  0.9006
18342TIP3    H176441   3.729   2.481   5.416 -2.9267  0.9976 -1.8716
18342TIP3    H276442   3.721   2.330   5.402 -2.0715  0.7544  0.0961
18343TIP3   OH276443   0.196   4.220  15.637  0.5905 -0.1115  0.6840
18343TIP3    H176444   0.250   4.163  15.582 -1.4711 -2.0108  0.5060
18343TIP3    H276445   0.137   4.264  15.575 -0.6521 -1.0389  1.1710
18344TIP3   OH276446   3.435   4.788   0.414  0.7482 -0.4541 -0.0931
18344TIP3    H176447   3.360   4.843   0.394 -0.5217 -2.2812 -0.5106
18344TIP3    H276448   3.446   4.732   0.337  2.3471 -0.4197  0.0864
18345TIP3   OH276449   3.568   2.137  13.281  0.5232  0.5966 -0.1488
18345TIP3    H176450   3.508   2.170  13.348  0.3596 -1.1651  0.5925
18345TIP3    H276451   3.525   2.059  13.247  2.0440 -0.2763 -0.1100
18346TIP3   OH276452   1.628   2.914  17.205 -0.3246  0.0745 -0.0003
18346TIP3    H176453   1.700   2.968  17.172 -0.6454  0.3356 -0.2823
18346TIP3    H276454   1.586   2.879  17.126 -0.2286 -0.4402  0.1734
18347TIP3   OH276455   0.330   4.077   3.679  0.1291  0.0351 -0.2640
18347TIP3    H176456   0.330   3.995   3.629  0.3099 -0.0770 -0.0792
18347TIP3    H276457   0.378   4.056   3.759 -0.7125  0.0365  0.2513
18348TIP3   OH276458   4.746   5.986  15.040  0.2441  0.1570  0.2742
18348TIP3    H176459   4.743   5.912  15.100 -1.1828  0.4950  0.6277
18348TIP3    H276460   4.754   6.063  15.096 -0.0146  0.3990 -0.0198
18349TIP3   OH276461   4.901   4.710  11.337  0.1745  0.0689 -0.2274
18349TIP3    H176462   4.897   4.650  11.411 -2.0238  1.2382  0.6387
18349TIP3    H276463   4.927   4.794  11.376  0.0469  0.4414 -0.9354
18350TIP3   OH276464   0.764   3.180  13.362  0.1699  0.2129  0.3378
18350TIP3    H176465   0.801   3.254  13.314  0.6786 -0.8023 -0.8482
18350TIP3    H276466   0.692   3.219  13.413  0.0827  1.4305 -0.6800
18351TIP3   OH276467   5.536   5.834   0.606  0.6794  0.5073  0.3588
18351TIP3    H176468   5.619   5.808   0.647 -0.5807 -0.0935  2.6275
18351TIP3    H276469   5.500   5.752   0.571 -0.4405  0.1579  2.2237
18352TIP3   OH276470   1.330   6.053  16.544  0.2469  0.0569 -0.7181
18352TIP3    H176471   1.425   6.064  16.554  0.2391  0.8368 -1.4607
18352TIP3    H276472   1.296   6.055  16.634  0.9571 -0.5289 -0.4298
18353TIP3   OH276473   5.478   3.000   0.808 -0.2706 -0.2195  0.4180
18353TIP3    H176474   5.419   2.928   0.788  1.0506 -0.9489 -0.8677
18353TIP3    H276475   5.480   3.003   0.904  2.3506 -4.1417  0.5673
18354TIP3   OH276476   6.361   6.553   4.609 -0.0920 -0.2857  0.6296
18354TIP3    H176477   6.266   6.559   4.607 -0.0393  0.1636 -1.7184
18354TIP3    H276478   6.391   6.637   4.574  1.1226 -1.2357 -0.6464
18355TIP3   OH276479   5.217   1.389   6.512  0.4713 -0.3802  0.8467
18355TIP3    H176480   5.256   1.424   6.432  2.1374  0.1113  1.8490
18355TIP3    H276481   5.173   1.463   6.552  0.3474 -0.4346  0.8135
18356TIP3   OH276482   5.243   2.988   3.384 -0.3579 -0.6462  0.4574
18356TIP3    H176483   5.227   2.896   3.361 -0.7631 -0.1782 -1.2168
18356TIP3    H276484   5.336   3.001   3.364  0.0533 -1.0651  2.0515
18357TIP3   OH276485   3.105   5.470  16.200 -0.1309 -0.4918 -0.0308
18357TIP3    H176486   3.135   5.388  16.238  1.2000  0.0388  0.0956
18357TIP3    H276487   3.034   5.499  16.257 -0.2236 -1.2630  0.2535
18358TIP3   OH276488   6.564   0.558   6.200  0.3800  0.6937 -0.2233
18358TIP3    H176489   6.492   0.573   6.260  2.0941  1.1058  1.7996
18358TIP3    H276490   6.523   0.551   6.114 -2.3221 -1.7007  1.1751
18359TIP3   OH276491   1.427   0.461   1.540  0.3642 -0.8590  0.2327
18359TIP3    H176492   1.446   0.423   1.626  0.0136 -1.1920  0.1619
18359TIP3    H276493   1.384   0.391   1.491  0.0099 -0.4782 -0.0054
18360TIP3   OH276494   6.187   5.012   0.497  0.2036 -0.4294 -0.0344
18360TIP3    H176495   6.218   5.050   0.415  0.9221 -1.3135 -0.1789
18360TIP3    H276496   6.165   4.921   0.475  2.3963 -1.2818  1.2051
18361TIP3   OH276497   5.541   0.183   2.923  0.5025  0.4862  0.6018
18361TIP3    H176498   5.525   0.260   2.868  2.1471 -0.7685 -1.7261
18361TIP3    H276499   5.456   0.140   2.930  0.2985  0.5706 -1.1576
18362TIP3   OH276500   3.209   0.137  13.125  0.0484 -0.2326  0.2145
18362TIP3    H176501   3.225   0.074  13.194  0.0104 -0.5935 -0.1051
18362TIP3    H276502   3.256   0.216  13.152  1.8847 -1.0842 -0.4308
18363TIP3   OH276503   0.924   4.941  15.319 -0.0610  0.1161  0.0211
18363TIP3    H176504   1.019   4.932  15.332 -0.3372 -0.3337  1.8607
18363TIP3    H276505   0.911   4.924  15.226  1.7469  0.8645 -0.4030
18364TIP3   OH276506   0.449   2.138   2.409  0.3962 -0.0031 -0.3148
18364TIP3    H176507   0.375   2.101   2.456  0.0877  0.5731 -0.3366
18364TIP3    H276508   0.417   2.222   2.375  0.9766  0.1357 -0.5424
18365TIP3   OH276509   3.456   3.251  12.642 -0.2933  0.3313  0.1384
18365TIP3    H176510   3.415   3.327  12.602 -1.6499 -0.6726 -0.4411
18365TIP3    H276511   3.501   3.207  12.570  0.4645  0.5512  0.4647
18366TIP3   OH276512   2.115   1.282  15.320 -0.5725  0.6998 -0.6072
18366TIP3    H176513   2.109   1.305  15.227 -0.6870 -1.9519 -1.2848
18366TIP3    H276514   2.209   1.266  15.334 -0.9189 -1.9052 -1.0507
18367TIP3   OH276515   2.358   2.785  15.472  0.3650  0.2363 -0.1460
18367TIP3    H176516   2.382   2.693  15.460 -1.8276 -0.2561 -1.1464
18367TIP3    H276517   2.335   2.815  15.384 -1.2471  1.0250  0.5056
18368TIP3   OH276518   2.400   3.497   2.984 -0.0396  0.3999 -0.6850
18368TIP3    H176519   2.395   3.421   2.926 -0.7039 -0.2381  0.2073
18368TIP3    H276520   2.448   3.466   3.061 -2.4635  0.1891  0.7635
18369TIP3   OH276521   4.988   2.538   3.787  0.0885  0.0466  0.1945
18369TIP3    H176522   4.911   2.497   3.827 -2.5505  1.9852 -2.6373
18369TIP3    H276523   4.976   2.524   3.693  1.4867  3.2320 -0.5117
18370TIP3   OH276524   6.125   6.706   5.875  0.4680 -0.3781 -0.4366
18370TIP3    H176525   6.051   6.759   5.847  0.5208 -0.4291 -0.6738
18370TIP3    H276526   6.148   6.741   5.962  0.8137  0.3092 -0.7998
18371TIP3   OH276527   5.601   5.721  11.189  0.0434 -0.2538  0.0747
18371TIP3    H176528   5.695   5.737  11.199  0.0811 -0.4013 -0.0417
18371TIP3    H276529   5.594   5.673  11.106  0.0463 -1.8374  0.9637
18372TIP3   OH276530   4.380   0.199  13.284 -0.1836 -0.3213 -0.1421
18372TIP3    H176531   4.388   0.171  13.375 -0.0065  1.9188  0.5804
18372TIP3    H276532   4.438   0.276  13.278 -1.2484  0.3807 -1.7598
18373TIP3   OH276533   1.509   1.432   4.716  0.1072 -0.2840 -0.2106
18373TIP3    H176534   1.592   1.393   4.740  0.5878  0.0350 -1.3144
18373TIP3    H276535   1.519   1.525   4.738 -0.4638 -0.4892  0.9478
18374TIP3   OH276536   3.186   3.763  15.213  0.2586  0.1628 -0.0562
18374TIP3    H176537   3.220   3.731  15.130 -2.4333  0.9082 -1.5301
18374TIP3    H276538   3.240   3.721  15.280  0.8469 -2.4442 -2.0961
18375TIP3   OH276539   3.009   1.323   3.596 -0.2970  0.1635 -0.4942
18375TIP3    H176540   3.014   1.237   3.555  0.0076  0.6042 -1.3804
18375TIP3    H276541   3.018   1.385   3.524  1.6400  0.9492  0.4018
18376TIP3   OH276542   2.962   2.328  14.888 -0.2459  0.7093  0.0734
18376TIP3    H176543   2.912   2.253  14.921  0.2675  0.6449  0.7118
18376TIP3    H276544   3.052   2.298  14.887  0.4844  2.4632  3.8219
18377TIP3   OH276545   0.099   3.080  13.548 -0.2101 -0.0470 -0.2316
18377TIP3    H176546   0.095   3.120  13.462  0.6654  2.0388  0.6682
18377TIP3    H276547   0.160   3.007  13.537  0.3923  0.5982 -1.2327
18378TIP3   OH276548   4.243   1.052  15.018 -0.2935 -0.1441  0.1682
18378TIP3    H176549   4.311   1.088  14.961  0.3593  2.1677  2.2955
18378TIP3    H276550   4.277   0.967  15.045  0.3357 -0.3442 -1.2200
18379TIP3   OH276551   5.994   6.031  15.739  0.1309  0.1644 -1.1203
18379TIP3    H176552   5.950   6.108  15.703  1.6838  1.8431  0.5022
18379TIP3    H276553   6.087   6.049  15.727  0.6206 -0.1277  1.8815
18380TIP3   OH276554   5.356   2.054  16.165  0.1850 -0.3443 -0.4619
18380TIP3    H176555   5.362   2.140  16.205  0.3506  0.2456 -1.7456
18380TIP3    H276556   5.365   2.070  16.071  2.1747 -1.9403 -0.5772
18381TIP3   OH276557   5.078   6.736   3.000  0.4553  0.1606  0.4710
18381TIP3    H176558   4.992   6.741   2.958  0.2473  1.2298  1.0187
18381TIP3    H276559   5.117   6.656   2.964 -1.4096 -1.2400  1.3977
18382TIP3   OH276560   1.204   0.671   4.773  0.1160 -0.1490  0.3625
18382TIP3    H176561   1.271   0.709   4.830 -0.4572 -0.3840  1.1972
18382TIP3    H276562   1.208   0.723   4.693  0.0344  1.0054  1.1068
18383TIP3   OH276563   1.378   1.589   4.947  0.0621 -0.2906 -0.2108
18383TIP3    H176564   1.462   1.625   4.975 -0.1659  0.7382 -0.8079
18383TIP3    H276565   1.353   1.643   4.871 -1.2906 -0.3681  0.1636
18384TIP3   OH276566   4.842   3.041  17.041 -0.2080  0.5132 -0.8514
18384TIP3    H176567   4.866   3.059  16.950 -1.0280  0.0687 -1.1611
18384TIP3    H276568   4.881   2.956  17.060 -1.4554 -0.2002 -1.3494
18385TIP3   OH276569   2.959   2.236   4.054 -0.1953  0.4906  0.3393
18385TIP3    H176570   2.987   2.324   4.031 -0.0825 -0.0120 -1.6124
18385TIP3    H276571   2.890   2.248   4.119 -0.3392  2.0141 -0.0752
18386TIP3   OH276572   3.836   4.668   3.596  0.2728  0.3419 -0.7872
18386TIP3    H176573   3.913   4.685   3.541  0.4989  1.4112 -0.1501
18386TIP3    H276574   3.772   4.629   3.537  1.4063 -0.8316 -1.2680
18387TIP3   OH276575   1.632   0.755   6.018  0.3378  0.0296  0.3028
18387TIP3    H176576   1.557   0.803   5.981  1.4573  1.1511 -0.5390
18387TIP3    H276577   1.671   0.711   5.943  1.0882  0.2305  0.5726
18388TIP3   OH276578   4.203   4.371  11.575  0.4799 -0.1333  0.5646
18388TIP3    H176579   4.206   4.304  11.507  1.2119  0.7844 -0.3199
18388TIP3    H276580   4.120   4.416  11.561  0.4074 -0.2576  0.5904
18389TIP3   OH276581   0.531   6.204   0.587 -0.1041  0.0870  0.1776
18389TIP3    H176582   0.443   6.226   0.558 -0.3967 -2.3598 -0.9182
18389TIP3    H276583   0.529   6.217   0.682 -0.9627  2.1878 -0.1033
18390TIP3   OH276584   4.079   2.427   2.687 -0.7531 -0.3520 -0.3911
18390TIP3    H176585   4.074   2.522   2.680 -2.5985 -0.4147 -0.2657
18390TIP3    H276586   4.151   2.411   2.749 -0.5062  0.9548 -0.3275
18391TIP3   OH276587   3.276   4.067  14.794 -0.1064  0.3606 -0.2562
18391TIP3    H176588   3.196   4.110  14.761  0.1075 -0.0857 -1.3735
18391TIP3    H276589   3.318   4.032  14.715 -0.7870 -2.8095  0.7215
18392TIP3   OH276590   1.876   4.109   0.410 -0.2431  0.0147  0.7931
18392TIP3    H176591   1.857   4.101   0.504  0.0297 -0.2908  0.8243
18392TIP3    H276592   1.790   4.109   0.368 -0.4857  2.9144  1.2419
18393TIP3   OH276593   3.372   3.483  13.735 -0.1067 -0.1310  0.4496
18393TIP3    H176594   3.367   3.547  13.664  0.6964 -0.0870  0.4374
18393TIP3    H276595   3.315   3.520  13.803 -1.0179 -0.2629 -0.2289
18394TIP3   OH276596   2.964   2.415   2.095  0.6762 -0.3578 -0.6593
18394TIP3    H176597   2.926   2.427   2.008 -2.3374 -0.7516  0.5497
18394TIP3    H276598   2.986   2.322   2.098  1.3097 -0.2324 -1.1820
18395TIP3   OH276599   3.677   3.832   1.210 -0.3908  0.6516 -0.1492
18395TIP3    H176600   3.590   3.792   1.222 -0.1429  0.1120 -0.1695
18395TIP3    H276601   3.663   3.924   1.232 -0.7183  0.3463  0.9830
18396TIP3   OH276602   5.198   1.232  11.383 -0.0255 -0.1996 -0.2208
18396TIP3    H176603   5.186   1.306  11.441  1.3024  0.7913 -1.1683
18396TIP3    H276604   5.109   1.201  11.363 -0.5883  1.2369  0.0548
18397TIP3   OH276605   6.754   6.586  14.206 -0.9457  0.1371  0.3391
18397TIP3    H176606   6.724   6.537  14.130 -0.2387  0.8953 -0.4457
18397TIP3    H276607   6.791   6.520  14.265  3.3858  0.0060 -2.2834
18398TIP3   OH276608   1.039   3.197   3.274 -0.1461  0.0887 -0.0842
18398TIP3    H176609   0.974   3.242   3.329  0.6909  0.5221  0.5554
18398TIP3    H276610   1.090   3.267   3.234 -0.9134 -0.2125 -1.6467
18399TIP3   OH276611   5.557   0.820  14.872 -0.6447  0.4159  0.1437
18399TIP3    H176612   5.618   0.891  14.892 -0.1108 -0.2653  0.9743
18399TIP3    H276613   5.584   0.749  14.930  0.3796 -1.3190 -2.3984
18400TIP3   OH276614   3.211   2.305   4.211  0.9881  0.2185  0.1423
18400TIP3    H176615   3.141   2.248   4.243  1.4567 -0.2432  0.3316
18400TIP3    H276616   3.167   2.361   4.146  0.7928 -1.1762 -0.9362
18401TIP3   OH276617   3.080   6.644   5.179 -0.4805  0.4327  0.1359
18401TIP3    H176618   3.103   6.627   5.270  0.5541 -1.3310 -0.4112
18401TIP3    H276619   3.052   6.558   5.145  1.1044  0.6122 -1.7308
18402TIP3   OH276620   5.511   3.748  16.231 -0.4045 -0.2080  0.3206
18402TIP3    H176621   5.456   3.821  16.202 -1.3631 -1.6428 -1.6083
18402TIP3    H276622   5.454   3.698  16.290 -0.9733 -1.3364 -1.1659
18403TIP3   OH276623   5.789   0.870   4.848 -0.2045 -0.1980 -0.9012
18403TIP3    H176624   5.741   0.946   4.816 -0.4771 -0.2895 -0.7124
18403TIP3    H276625   5.821   0.826   4.769  0.0418  0.1667 -1.0085
18404TIP3   OH276626   4.291   6.177   4.977  0.2147  0.7201  0.0926
18404TIP3    H176627   4.227   6.223   4.923  0.0617  0.2802 -0.0990
18404TIP3    H276628   4.364   6.159   4.918  1.9367  4.0770  1.0605
18405TIP3   OH276629   0.997   3.795   0.352 -0.4133  0.4363  0.4042
18405TIP3    H176630   1.042   3.754   0.426 -0.7679 -0.6416  0.0419
18405TIP3    H276631   0.975   3.722   0.295  0.5695  1.3560 -1.1616
18406TIP3   OH276632   1.798   4.058  12.717 -0.2940 -0.2382 -0.2484
18406TIP3    H176633   1.823   3.972  12.685 -0.9301 -0.0227 -1.3740
18406TIP3    H276634   1.863   4.080  12.784 -0.6333 -1.9593  0.6574
18407TIP3   OH276635   0.262   2.354  17.095  0.2207  0.0139  0.4414
18407TIP3    H176636   0.273   2.265  17.129  2.3298  0.3951  0.7993
18407TIP3    H276637   0.339   2.369  17.040 -0.3336  1.4605  0.0309
18408TIP3   OH276638   0.206   3.836   3.319 -0.1787  0.7320 -0.2792
18408TIP3    H176639   0.263   3.859   3.246 -0.5718  0.5855 -0.6337
18408TIP3    H276640   0.132   3.790   3.279 -0.6573  1.1142  0.1583
18409TIP3   OH276641   0.732   2.062  13.757 -0.1905 -0.0112  0.2634
18409TIP3    H176642   0.776   2.147  13.768  1.1291 -0.7116  0.4566
18409TIP3    H276643   0.775   2.023  13.680  1.2580 -1.7674  1.9246
18410TIP3   OH276644   3.361   5.835  14.701  0.1169 -0.3622 -0.1101
18410TIP3    H176645   3.270   5.851  14.677  0.5168  0.1773 -1.2983
18410TIP3    H276646   3.408   5.913  14.673  0.9494 -0.6371  0.4958
18411TIP3   OH276647   3.040   1.318  16.355  0.5244 -0.1980  0.1343
18411TIP3    H176648   2.975   1.387  16.367 -0.3147 -0.8947 -0.2666
18411TIP3    H276649   3.028   1.261  16.432  0.2081 -0.6827 -0.2727
18412TIP3   OH276650   1.650   4.038   1.613 -0.8284 -0.1441 -0.7474
18412TIP3    H176651   1.578   4.073   1.666 -0.0064  0.0153  0.2902
18412TIP3    H276652   1.607   3.998   1.538 -2.0341 -0.4302  0.0723
18413TIP3   OH276653   4.442   1.790   4.954 -0.1675 -0.7999 -0.2512
18413TIP3    H176654   4.451   1.710   4.901 -1.4277  0.9289 -3.1638
18413TIP3    H276655   4.361   1.777   5.003 -0.1909 -1.4309 -0.4486
18414TIP3   OH276656   6.514   4.496  15.695  0.0520  0.1914  0.2994
18414TIP3    H176657   6.431   4.538  15.672 -0.1914 -0.9432 -0.8880
18414TIP3    H276658   6.520   4.508  15.790 -1.4025  0.4084  0.3850
18415TIP3   OH276659   5.824   4.667   5.554  0.0612 -0.2812 -1.0632
18415TIP3    H176660   5.896   4.631   5.503  0.2455 -2.0272  0.3874
18415TIP3    H276661   5.808   4.602   5.622 -0.5549  1.7377  0.7724
18416TIP3   OH276662   3.406   0.571   1.001 -0.4788  0.5518 -0.2462
18416TIP3    H176663   3.403   0.664   0.981  0.6512  0.7084  0.2778
18416TIP3    H276664   3.485   0.539   0.956 -0.3231  0.0444  0.3766
18417TIP3   OH276665   6.291   6.622  13.393  0.5942  0.1412 -0.2968
18417TIP3    H176666   6.249   6.633  13.308  1.5103 -0.9998 -0.9070
18417TIP3    H276667   6.298   6.711  13.428 -0.6277  0.5210 -0.9963
18418TIP3   OH276668   2.630   0.423  13.954  0.7171  0.1171  0.0551
18418TIP3    H176669   2.567   0.477  14.001 -0.3450  0.1467 -1.3923
18418TIP3    H276670   2.610   0.437  13.862  2.1969 -0.6518 -0.3978
18419TIP3   OH276671   3.062   3.432   3.419 -0.4039 -0.0950  0.3553
18419TIP3    H176672   3.141   3.482   3.443  0.0771 -0.5992 -0.1510
18419TIP3    H276673   3.061   3.434   3.323 -1.3347  0.4018  0.3678
18420TIP3   OH276674   3.603   5.722   4.396  0.2409  0.0177 -0.4290
18420TIP3    H176675   3.599   5.676   4.313 -1.7959 -0.2557 -0.1999
18420TIP3    H276676   3.570   5.660   4.460 -0.0345  0.8871  0.2867
18421TIP3   OH276677   3.132   0.334   2.336 -0.5348 -0.5097 -0.1545
18421TIP3    H176678   3.037   0.334   2.319 -0.8194  1.7837  1.2455
18421TIP3    H276679   3.165   0.407   2.284  0.0060  0.5346  1.6158
18422TIP3   OH276680   0.143   2.865  16.833 -0.1538 -0.1248 -0.3655
18422TIP3    H176681   0.154   2.779  16.791 -1.5279 -0.1553 -0.7099
18422TIP3    H276682   0.118   2.923  16.760 -0.8136  0.2073  0.1211
18423TIP3   OH276683   5.996   4.133  13.161  1.0572 -0.6765 -1.0491
18423TIP3    H176684   5.931   4.080  13.208 -0.0790 -0.0901 -1.9169
18423TIP3    H276685   6.050   4.171  13.230  0.1784 -0.8096 -0.2692
18424TIP3   OH276686   3.750   4.368  12.559 -0.7810  0.0532 -0.6954
18424TIP3    H176687   3.720   4.331  12.642  1.6673 -1.4229 -0.4084
18424TIP3    H276688   3.787   4.453  12.582 -0.0393 -0.3857 -0.2476
18425TIP3   OH276689   2.211   5.430   3.662 -0.0961  0.0563  0.1427
18425TIP3    H176690   2.240   5.512   3.623  0.6401 -0.5183 -0.5500
18425TIP3    H276691   2.229   5.440   3.756 -3.8289  2.2508  0.6894
18426TIP3   OH276692   3.139   1.510  12.675  0.1294  0.2794  0.4172
18426TIP3    H176693   3.217   1.456  12.685  0.7330  0.6334 -1.9109
18426TIP3    H276694   3.086   1.464  12.610  0.0741  1.8006 -0.6714
18427TIP3   OH276695   4.456   0.953   4.889  0.2051  0.5832 -0.5813
18427TIP3    H176696   4.415   0.883   4.940 -1.4001  3.0738  1.6928
18427TIP3    H276697   4.444   1.031   4.942  3.6609  2.2814 -2.1608
18428TIP3   OH276698   0.001   0.772  11.030 -0.3724 -0.4014  0.3954
18428TIP3    H176699   0.072   0.707  11.033  0.5749  0.6375  1.0200
18428TIP3    H276700  -0.054   0.742  10.958 -0.0973 -2.0334  0.8217
18429TIP3   OH276701   6.220   5.294  16.146  0.0255  0.0371  0.2844
18429TIP3    H176702   6.258   5.359  16.205 -1.0682 -1.4188  2.6836
18429TIP3    H276703   6.250   5.210  16.181 -0.4990 -0.8605 -1.3723
18430TIP3   OH276704   5.180   1.287  16.398  0.1453  0.1824  0.1255
18430TIP3    H176705   5.259   1.261  16.445  0.9439 -0.4367 -1.5425
18430TIP3    H276706   5.161   1.376  16.428  0.0922 -0.5486  2.3295
18431TIP3   OH276707   1.312   1.213  15.613 -0.6646  0.2995 -0.3016
18431TIP3    H176708   1.218   1.217  15.594 -0.5079 -0.0041 -1.1664
18431TIP3    H276709   1.335   1.121  15.602  0.0811  0.6584 -1.8247
18432TIP3   OH276710   4.500   2.580   0.133 -0.4992  0.3351 -0.1783
18432TIP3    H176711   4.592   2.581   0.161 -0.2098 -1.3228 -0.9961
18432TIP3    H276712   4.465   2.664   0.163  0.7149  0.0823  2.0020
18433TIP3   OH276713   6.010   0.647   4.371  0.0783 -0.2176  0.1225
18433TIP3    H176714   5.960   0.651   4.452  2.8670  0.6469  1.8799
18433TIP3    H276715   6.037   0.738   4.354 -0.8238 -0.3134 -2.0171
18434TIP3   OH276716   1.860   1.295   2.718 -0.5252 -0.2324 -0.6022
18434TIP3    H176717   1.871   1.387   2.741  1.1609 -0.3454 -0.8937
18434TIP3    H276718   1.815   1.257   2.793  1.6384  0.1781  0.9474
18435TIP3   OH276719   1.295   4.534   5.043 -0.7789  0.5052  0.1580
18435TIP3    H176720   1.264   4.562   4.957 -1.9344  1.4314  0.8700
18435TIP3    H276721   1.216   4.514   5.092 -0.1151 -0.3054  0.9256
18436TIP3   OH276722   1.729   2.561  16.430  0.8187 -0.2691  0.0728
18436TIP3    H176723   1.814   2.516  16.430  1.0935  0.2358  0.4119
18436TIP3    H276724   1.742   2.634  16.492  0.5831  0.6589 -0.9636
18437TIP3   OH276725   3.007   6.507  10.751  0.0224 -0.4085  0.4599
18437TIP3    H176726   3.023   6.597  10.722 -0.3150 -0.6041 -0.3457
18437TIP3    H276727   3.033   6.506  10.843 -1.1708  0.8585  0.8305
18438TIP3   OH276728   2.164   0.964  16.224  0.0958 -0.0318  0.2187
18438TIP3    H176729   2.192   1.051  16.251  0.7365 -0.4393  0.8898
18438TIP3    H276730   2.094   0.941  16.286  0.1105 -0.0963  0.2131
18439TIP3   OH276731   2.924   1.427   5.356 -0.2635  0.2565  0.0338
18439TIP3    H176732   2.870   1.480   5.415 -0.1323  1.3202 -0.7919
18439TIP3    H276733   3.007   1.417   5.403  0.2928  2.1736 -0.4864
18440TIP3   OH276734   2.168   1.927   1.047 -0.0924  0.3392  0.3168
18440TIP3    H176735   2.161   1.991   0.976  0.9821 -0.6261 -0.6738
18440TIP3    H276736   2.253   1.944   1.086 -0.3604  0.3621  0.8988
18441TIP3   OH276737   2.193   0.449   0.706  0.1845 -0.6544 -0.3164
18441TIP3    H176738   2.224   0.379   0.762 -0.2009 -2.1494 -1.9408
18441TIP3    H276739   2.098   0.440   0.705  0.1638 -0.4319 -0.9457
18442TIP3   OH276740   2.270   3.339   6.170 -0.1319  0.4160 -0.2222
18442TIP3    H176741   2.330   3.335   6.245 -0.5553  1.9529  0.2383
18442TIP3    H276742   2.320   3.302   6.097  0.4178 -0.7744  0.7456
18443TIP3   OH276743   4.120   4.932   3.586  0.1877 -0.0731 -0.1136
18443TIP3    H176744   4.146   5.024   3.587  0.5916 -0.1916  0.0515
18443TIP3    H276745   4.148   4.897   3.671  2.9307 -1.1608 -1.4297
18444TIP3   OH276746   2.095   3.828   1.093 -0.1055 -0.0617  0.5312
18444TIP3    H176747   2.038   3.751   1.102 -0.0585  0.0056  1.4425
18444TIP3    H276748   2.161   3.801   1.028 -0.3898 -0.6095  0.4636
18445TIP3   OH276749   3.434   2.385   3.091 -0.2789  0.3655  0.0940
18445TIP3    H176750   3.428   2.459   3.032  0.9324  0.7189  0.3850
18445TIP3    H276751   3.420   2.308   3.036 -0.7617  0.7713 -0.3477
18446TIP3   OH276752   6.601   1.836  14.550  0.0215 -0.5053  0.3041
18446TIP3    H176753   6.666   1.895  14.512  0.0399 -0.8511 -0.2213
18446TIP3    H276754   6.529   1.893  14.576 -0.1409 -0.2985 -0.5889
18447TIP3   OH276755   2.428   5.245   6.125  0.9817  0.5050 -0.3118
18447TIP3    H176756   2.500   5.209   6.178 -0.1877  0.5761  1.3484
18447TIP3    H276757   2.385   5.168   6.088  3.3463  0.5222 -3.3256
18448TIP3   OH276758   0.516   2.670   6.375  0.6914  0.5180 -0.1908
18448TIP3    H176759   0.586   2.607   6.356  1.4897  1.7808 -1.4716
18448TIP3    H276760   0.444   2.616   6.408  1.8739 -0.9113  0.1036
18449TIP3   OH276761   5.350   3.945  15.041 -0.2684 -0.0930 -0.5210
18449TIP3    H176762   5.271   3.979  15.001  0.2052  1.2900 -0.2880
18449TIP3    H276763   5.321   3.910  15.126 -0.7537 -0.3511 -0.7872
18450TIP3   OH276764   6.281   5.440   2.085  0.3230  0.2277 -0.2076
18450TIP3    H176765   6.358   5.383   2.084  2.0410  2.5066 -0.9861
18450TIP3    H276766   6.231   5.410   2.161  0.3933 -3.2713 -1.4543
18451TIP3   OH276767   4.648   4.009  15.542 -0.4499 -0.0146  0.3361
18451TIP3    H176768   4.608   3.924  15.527 -1.3711  0.3670  0.5870
18451TIP3    H276769   4.574   4.070  15.548  0.0813  0.4558  2.4313
18452TIP3   OH276770   6.131   3.935  12.697 -0.1603 -0.1949  0.3264
18452TIP3    H176771   6.111   4.013  12.645  1.8235  0.3427  0.3083
18452TIP3    H276772   6.152   3.969  12.784 -1.7363 -0.9418  1.0132
18453TIP3   OH276773   6.704   2.897  14.979  0.0781 -0.3603  0.7732
18453TIP3    H176774   6.701   2.803  14.997 -0.4674 -0.2819  1.1165
18453TIP3    H276775   6.612   2.924  14.977  0.2562  0.3148  1.4717
18454TIP3   OH276776   4.438   5.107  11.619 -0.4387 -0.2571  0.0665
18454TIP3    H176777   4.501   5.151  11.562 -2.2912 -0.4710 -2.2484
18454TIP3    H276778   4.492   5.062  11.685  1.8250 -0.6396 -1.9690
18455TIP3   OH276779   0.453   1.536   3.720  0.5824  0.4838 -0.2995
18455TIP3    H176780   0.500   1.543   3.637 -0.0425 -0.9433 -0.7845
18455TIP3    H276781   0.471   1.446   3.750 -0.0294  0.6571  0.6092
18456TIP3   OH276782   2.082   0.518   0.193 -0.1564 -0.2507 -0.4311
18456TIP3    H176783   2.006   0.511   0.251 -0.6798  1.3763 -0.8953
18456TIP3    H276784   2.131   0.437   0.208 -0.9344 -0.4127  1.3606
18457TIP3   OH276785   6.027   0.641  11.237  0.5559 -0.2208 -0.1870
18457TIP3    H176786   6.088   0.570  11.222 -0.0997 -0.8316  0.0024
18457TIP3    H276787   6.006   0.636  11.331 -1.3711 -1.3229 -0.6458
18458TIP3   OH276788   0.569   5.296  12.419  0.3500  0.1427 -0.5532
18458TIP3    H176789   0.497   5.358  12.434  0.4156 -0.0113  0.4425
18458TIP3    H276790   0.525   5.215  12.393  0.2003  0.2523 -0.6403
18459TIP3   OH276791   3.638   6.215  16.409  0.3626 -0.2400 -0.6512
18459TIP3    H176792   3.672   6.303  16.424 -2.5523  0.7523  0.4802
18459TIP3    H276793   3.660   6.195  16.318 -0.7626  2.5096 -1.5625
18460TIP3   OH276794   0.601   3.845   4.292 -0.4349 -0.0065 -0.0623
18460TIP3    H176795   0.665   3.798   4.239  1.6067  2.2471  0.3100
18460TIP3    H276796   0.628   3.937   4.287 -3.5561  0.9774  0.2669
18461TIP3   OH276797   3.464   1.765  16.569  0.5380 -0.3064 -0.1609
18461TIP3    H176798   3.517   1.791  16.644  0.8390  0.7916 -0.7459
18461TIP3    H276799   3.398   1.834  16.562 -0.2380 -1.0336 -0.1830
18462TIP3   OH276800   2.953   5.596   4.936  0.3141 -0.2931  0.7907
18462TIP3    H176801   2.937   5.502   4.939  1.6374 -0.5278  0.9761
18462TIP3    H276802   2.915   5.624   4.853  0.1815 -1.0532  0.5868
18463TIP3   OH276803   2.615   2.170  16.720  0.1255  0.0903 -0.4732
18463TIP3    H176804   2.567   2.105  16.670  0.9183  0.1511 -1.3249
18463TIP3    H276805   2.701   2.130  16.735  0.1446  0.3745  0.1986
18464TIP3   OH276806   2.466   1.616   3.115 -0.3944 -0.5660 -0.2974
18464TIP3    H176807   2.373   1.600   3.134  0.0367 -1.1586  1.4626
18464TIP3    H276808   2.467   1.698   3.066 -1.8697 -0.6529 -0.4902
18465TIP3   OH276809   3.407   5.669  12.894 -0.2662  0.9523  0.7455
18465TIP3    H176810   3.441   5.758  12.890  0.1895  0.7160 -2.2361
18465TIP3    H276811   3.481   5.614  12.868 -1.3473 -0.0360 -0.3090
18466TIP3   OH276812   4.851   4.982   1.569 -0.2085  0.4277  0.6298
18466TIP3    H176813   4.793   4.935   1.509  0.0786 -1.7111  2.0152
18466TIP3    H276814   4.939   4.965   1.536 -0.0647 -0.5644  1.5134
18467TIP3   OH276815   5.204   4.090  15.418 -0.3878  0.1855  0.0556
18467TIP3    H176816   5.174   4.049  15.499  0.1110  0.0190  0.1569
18467TIP3    H276817   5.231   4.178  15.444  0.9069 -0.2695  0.2935
18468TIP3   OH276818   2.764   6.724  13.575 -0.2491  0.5492 -0.6624
18468TIP3    H176819   2.740   6.800  13.522  0.4589  1.0844 -0.2231
18468TIP3    H276820   2.689   6.665  13.568 -0.5375  1.0160 -1.5171
18469TIP3   OH276821   2.656   1.114  17.063 -0.8445  0.2296 -0.0753
18469TIP3    H176822   2.713   1.188  17.042 -0.8561 -0.1120 -1.3524
18469TIP3    H276823   2.702   1.067  17.132 -1.1302  1.7729  1.1993
18470TIP3   OH276824   5.617   4.207  16.032  0.9142  0.0509  0.0565
18470TIP3    H176825   5.664   4.127  16.055  0.2588  0.0046  1.2705
18470TIP3    H276826   5.569   4.230  16.111 -2.5638 -0.9060 -1.7027
18471TIP3   OH276827   2.324   0.195  13.435 -0.4069  0.1992 -0.8288
18471TIP3    H176828   2.280   0.132  13.379 -0.3808 -1.0445  0.5262
18471TIP3    H276829   2.306   0.280  13.394 -2.2429 -0.4739 -1.4635
18472TIP3   OH276830   0.836   5.660   3.158  0.0542 -0.5943  0.2410
18472TIP3    H176831   0.903   5.691   3.219  0.2479 -0.3031 -0.1163
18472TIP3    H276832   0.884   5.604   3.096  0.2080  0.6308 -0.7770
18473TIP3   OH276833   1.929   4.355  10.400 -0.0539 -0.2972  0.1558
18473TIP3    H176834   1.918   4.321  10.489  0.2539 -0.5604  0.0941
18473TIP3    H276835   1.967   4.282  10.351 -0.1689 -0.1347 -0.1778
18474TIP3   OH276836   2.295   0.838  14.515  0.1585 -0.3898 -0.2109
18474TIP3    H176837   2.335   0.924  14.500 -1.0435 -0.0887 -1.8921
18474TIP3    H276838   2.362   0.787  14.560  2.4476  0.0573 -3.0353
18475TIP3   OH276839   2.881   5.788  16.535 -0.3434 -0.2975  0.0586
18475TIP3    H176840   2.795   5.749  16.520 -0.8823  0.8070  0.1836
18475TIP3    H276841   2.907   5.758  16.622 -0.6190 -0.6042  0.0334
18476TIP3   OH276842   0.285   5.216  11.492 -0.3766  0.7570  0.3814
18476TIP3    H176843   0.214   5.194  11.552 -1.0582 -1.7587 -1.3121
18476TIP3    H276844   0.248   5.204  11.405  2.0958 -0.5359 -0.5315
18477TIP3   OH276845   2.062   1.501  14.431  0.1500 -0.3702 -0.3578
18477TIP3    H176846   2.013   1.449  14.368  0.1521  0.2943 -0.9120
18477TIP3    H276847   2.064   1.589  14.394  2.3958 -0.5370 -0.7153
18478TIP3   OH276848   3.924   3.666  15.957  0.0469  0.3963 -0.1664
18478TIP3    H176849   3.981   3.597  15.991  0.1044  1.4238  1.8804
18478TIP3    H276850   3.983   3.739  15.938 -0.4826  1.2819  1.4779
18479TIP3   OH276851   6.100   1.175  13.781 -0.0689  0.0890 -0.1075
18479TIP3    H176852   6.173   1.163  13.720 -0.2921 -1.1253 -0.1536
18479TIP3    H276853   6.141   1.211  13.860  0.3212  0.9985 -0.7137
18480TIP3   OH276854   4.113   3.814  12.502 -0.3583  0.1713  0.3046
18480TIP3    H176855   4.155   3.896  12.477 -3.1838  1.2581 -1.0838
18480TIP3    H276856   4.186   3.754  12.518  1.7083  1.7649 -2.6163
18481TIP3   OH276857   6.038   0.190   3.997  0.0650 -0.6386 -0.1348
18481TIP3    H176858   5.955   0.197   3.949  0.5826  0.7490 -0.8385
18481TIP3    H276859   6.019   0.231   4.082 -0.4834 -1.9684  0.4071
18482TIP3   OH276860   5.839   3.068   1.465  0.3125 -0.0392  0.0870
18482TIP3    H176861   5.768   3.030   1.413  0.1351 -0.2418  0.4805
18482TIP3    H276862   5.910   3.004   1.457  0.5538  0.2985 -0.5421
18483TIP3   OH276863   4.326   4.889  12.585  0.2800  0.5682  0.0134
18483TIP3    H176864   4.360   4.800  12.586  2.4054  1.3524  1.0623
18483TIP3    H276865   4.273   4.896  12.664  1.8680  0.8690  1.0642
18484TIP3   OH276866   0.046   5.551   4.396  0.1844 -0.0676 -0.4375
18484TIP3    H176867  -0.010   5.576   4.470  2.3368  1.2836  0.7953
18484TIP3    H276868   0.077   5.464   4.418 -2.2907 -1.3119 -1.6830
18485TIP3   OH276869   1.365   5.108  12.657 -0.7764  0.6378 -0.4709
18485TIP3    H176870   1.355   5.054  12.578 -1.7908 -0.3899  0.3553
18485TIP3    H276871   1.279   5.147  12.671 -0.9166 -0.0870  0.7650
18486TIP3   OH276872   1.275   0.529   5.498  0.5815  0.1982  0.0607
18486TIP3    H176873   1.337   0.519   5.570 -0.2682  0.1731  0.7936
18486TIP3    H276874   1.198   0.571   5.538  1.0100  2.3714 -1.3061
18487TIP3   OH276875   4.781   2.636  13.160 -0.0439 -0.1285 -0.3033
18487TIP3    H176876   4.823   2.558  13.196 -0.2964 -0.4089 -0.6042
18487TIP3    H276877   4.699   2.643  13.208 -0.5543 -0.7185 -1.0660
18488TIP3   OH276878   6.268   3.665  11.041  0.0810 -0.8777 -0.1070
18488TIP3    H176879   6.255   3.687  11.134  1.8559 -0.8979  0.1582
18488TIP3    H276880   6.198   3.712  10.996  0.3018  0.6293  1.0556
18489TIP3   OH276881   5.541   2.828  11.284  0.0063  0.4559  0.5627
18489TIP3    H176882   5.448   2.850  11.275  0.2689  1.9821  1.3761
18489TIP3    H276883   5.585   2.913  11.287  1.5024 -0.2547 -0.4418
18490TIP3   OH276884   0.825   5.293   4.062  0.6526  0.2378  0.1238
18490TIP3    H176885   0.871   5.303   4.145  0.6796 -1.6313  0.3700
18490TIP3    H276886   0.832   5.378   4.020  0.7394  1.1802  1.9855
18491TIP3   OH276887   4.049   4.844   6.544  0.0795  0.3397 -0.3219
18491TIP3    H176888   3.971   4.802   6.506  0.3492 -1.9353  1.5136
18491TIP3    H276889   4.024   4.862   6.635  1.6139 -0.3027  0.2511
18492TIP3   OH276890   0.576   3.057  16.641 -0.3402 -0.6561  0.4852
18492TIP3    H176891   0.634   3.003  16.694 -1.8942 -2.3159  0.5302
18492TIP3    H276892   0.515   2.995  16.601 -1.8091  1.0018  0.0946
18493TIP3   OH276893   2.330   2.682   5.371  0.4064  0.2673 -0.5520
18493TIP3    H176894   2.245   2.703   5.410  0.6020  1.0912 -0.5688
18493TIP3    H276895   2.359   2.763   5.330  1.5848  0.2172  0.1657
18494TIP3   OH276896   5.080   6.321  13.120  0.2832 -0.0907 -0.3987
18494TIP3    H176897   5.043   6.349  13.204 -0.2512  1.7935 -1.2281
18494TIP3    H276898   5.161   6.370  13.112  1.4825 -1.9611  0.0215
18495TIP3   OH276899   5.603   4.678  15.868  0.0590 -0.1588 -1.2129
18495TIP3    H176900   5.659   4.611  15.909 -0.9473 -1.0334 -1.2420
18495TIP3    H276901   5.647   4.761  15.887  1.5955 -0.8715 -1.6177
18496TIP3   OH276902   5.294   1.940  11.015 -0.4216 -0.0145 -0.1170
18496TIP3    H176903   5.342   1.997  10.955 -1.6462  1.7317  0.5045
18496TIP3    H276904   5.208   1.930  10.975  0.0235 -2.0934 -0.5993
18497TIP3   OH276905   3.472   1.011  15.021  0.6851 -0.0732 -0.6632
18497TIP3    H176906   3.552   0.993  15.069  1.1196  0.1931 -1.2827
18497TIP3    H276907   3.413   0.939  15.044  0.6790  0.3488  0.7126
18498TIP3   OH276908   1.392   4.949  13.763 -0.0700 -0.2945  0.4159
18498TIP3    H176909   1.340   5.030  13.759  0.3949  0.0795  1.7273
18498TIP3    H276910   1.468   4.972  13.816  1.5778 -0.7743 -1.6910
18499TIP3   OH276911   6.257   1.577   1.038 -0.7438 -0.2093 -0.0146
18499TIP3    H176912   6.238   1.488   1.066 -0.7009 -0.7297 -1.5536
18499TIP3    H276913   6.288   1.622   1.116  0.6539 -1.9490  0.4553
18500TIP3   OH276914   2.156   4.425  13.230 -0.6537  0.4247 -0.2488
18500TIP3    H176915   2.136   4.514  13.204  1.5656  0.7339 -0.9686
18500TIP3    H276916   2.250   4.416  13.217 -0.7467 -1.8441  0.3482
18501TIP3   OH276917   0.478   2.596   4.584 -0.2121 -0.3478  0.4289
18501TIP3    H176918   0.509   2.683   4.557  0.4727 -0.0503  2.1239
18501TIP3    H276919   0.408   2.614   4.646  0.5133 -0.9779  1.4578
18502TIP3   OH276920   5.572   1.928  13.425  0.0239  0.1123 -0.3010
18502TIP3    H176921   5.532   2.002  13.379 -1.5447 -0.5611 -0.0751
18502TIP3    H276922   5.578   1.859  13.359  0.3132  0.0370 -0.1952
18503TIP3   OH276923   4.212   6.040  12.204 -0.1145  0.3601 -0.2360
18503TIP3    H176924   4.165   5.967  12.246 -0.7634  0.5844 -0.5792
18503TIP3    H276925   4.296   6.001  12.178 -0.4067 -0.2363 -0.3092
18504TIP3   OH276926   0.904   3.787  14.879 -0.1950 -0.0615  0.0297
18504TIP3    H176927   0.923   3.811  14.789 -1.0729  1.3792  0.2128
18504TIP3    H276928   0.961   3.712  14.897  0.6344  0.2107 -1.4191
18505TIP3   OH276929   4.119   2.929   0.739 -0.6282  0.0879  0.5998
18505TIP3    H176930   4.052   2.865   0.761 -0.3104 -0.0079  1.3154
18505TIP3    H276931   4.072   3.012   0.734 -0.9600 -0.1259  0.1410
18506TIP3   OH276932   4.189   1.722  13.483 -0.7329  0.1616  0.3279
18506TIP3    H176933   4.278   1.687  13.486 -1.3886 -1.5409  0.8355
18506TIP3    H276934   4.195   1.805  13.530  0.3798 -0.4291  1.2702
18507TIP3   OH276935   0.977   5.784  13.894 -0.0619 -0.7756 -0.0453
18507TIP3    H176936   1.064   5.744  13.890  0.3372  0.1180 -0.5018
18507TIP3    H276937   0.973   5.841  13.818 -1.2127 -1.1184 -0.2529
18508TIP3   OH276938   3.548   0.863   4.845  0.5729 -0.2213 -0.2851
18508TIP3    H176939   3.593   0.846   4.927  1.4622 -0.4383 -0.8126
18508TIP3    H276940   3.579   0.795   4.785 -0.8781 -0.7109 -0.5016
18509TIP3   OH276941   5.431   6.279   0.738 -0.2784 -0.0890  0.2315
18509TIP3    H176942   5.344   6.295   0.776  0.1371 -1.8602  2.0184
18509TIP3    H276943   5.429   6.188   0.710  1.0152 -0.1525  0.3238
18510TIP3   OH276944   0.540   5.927   4.127 -0.9682  0.2161  0.1553
18510TIP3    H176945   0.605   5.959   4.064 -0.7148  2.5162  1.5401
18510TIP3    H276946   0.479   5.876   4.074  1.0521 -0.6542 -1.4350
18511TIP3   OH276947   2.567   5.006   4.768  0.3301 -0.3684 -0.1001
18511TIP3    H176948   2.556   4.932   4.828 -0.1018 -0.1831  0.0528
18511TIP3    H276949   2.521   5.079   4.811  0.1324 -0.2013 -0.5918
18512TIP3   OH276950   4.261   0.956  12.924 -0.3107 -0.1028  0.8918
18512TIP3    H176951   4.181   0.939  12.975 -1.3892 -0.4051 -0.8511
18512TIP3    H276952   4.229   0.972  12.835  1.5002  0.9833  0.4265
18513TIP3   OH276953   1.757   4.440  11.784 -0.9386  0.0319 -0.0142
18513TIP3    H176954   1.688   4.490  11.828 -0.4828  0.6036  0.0509
18513TIP3    H276955   1.815   4.506  11.747 -0.3306 -0.4479  0.0763
18514TIP3   OH276956   0.419   1.014   0.910  0.1281 -0.0918  0.3987
18514TIP3    H176957   0.457   1.065   0.981 -0.6658  1.4825 -0.2895
18514TIP3    H276958   0.487   1.010   0.843  0.1072  0.2605  0.3576
18515TIP3   OH276959   6.498   2.284  16.171 -0.1346 -0.3159 -0.2098
18515TIP3    H176960   6.455   2.352  16.222  0.8924 -0.3733  0.7441
18515TIP3    H276961   6.524   2.328  16.090 -0.4684  0.1431 -0.0666
18516TIP3   OH276962   5.464   2.270   2.800 -0.5452 -0.3599 -0.6081
18516TIP3    H176963   5.394   2.323   2.763 -0.8554 -1.2327 -1.3005
18516TIP3    H276964   5.537   2.282   2.739 -0.5964 -0.6616 -0.7333
18517TIP3   OH276965   4.703   4.235  16.183 -0.4800 -0.2540  0.2053
18517TIP3    H176966   4.631   4.297  16.189 -0.9718 -0.8172  0.0924
18517TIP3    H276967   4.666   4.152  16.212  0.2521 -0.4366  0.6325
18518TIP3   OH276968   5.555   1.060   0.947 -0.0574  0.2899  0.3433
18518TIP3    H176969   5.584   1.001   0.877  1.2796 -0.7877  1.7656
18518TIP3    H276970   5.482   1.108   0.910  0.5523 -0.3682 -1.7508
18519TIP3   OH276971   1.480   0.405  13.201 -0.1405  0.0101 -0.1650
18519TIP3    H176972   1.420   0.430  13.272 -1.6738  0.4360 -1.5719
18519TIP3    H276973   1.563   0.447  13.224 -0.8535  0.8475  0.9391
18520TIP3   OH276974   1.282   0.655   0.760  0.1300  0.4444 -0.1693
18520TIP3    H176975   1.346   0.638   0.692  1.1246 -0.1102  0.8779
18520TIP3    H276976   1.297   0.746   0.786 -0.2111  0.6373 -0.6384
18521TIP3   OH276977   5.059   1.259   1.675  0.0398 -0.4875 -0.2109
18521TIP3    H176978   5.027   1.316   1.745 -0.2180 -0.4102 -0.3893
18521TIP3    H276979   5.109   1.191   1.720  0.3700 -0.1072  0.0041
18522TIP3   OH276980   6.548   1.930   0.835  0.1384 -0.0923 -0.3192
18522TIP3    H176981   6.640   1.948   0.814  0.2373 -0.1769  0.0316
18522TIP3    H276982   6.510   2.017   0.849  0.7294 -0.1386  1.8301
18523TIP3   OH276983   4.008   3.513   6.717  0.3162  0.5102  0.1132
18523TIP3    H176984   4.026   3.559   6.635  1.4630  1.0195  0.6427
18523TIP3    H276985   4.039   3.573   6.785  2.3279 -1.2421  0.7994
18524TIP3   OH276986   6.676   5.666   5.760 -0.5833 -0.1542 -0.4750
18524TIP3    H176987   6.647   5.576   5.775 -0.1395 -0.3803 -0.9492
18524TIP3    H276988   6.675   5.676   5.665  0.4642 -0.0316 -0.4837
18525TIP3   OH276989   1.129   4.616   1.574 -0.0160 -0.7149  0.4282
18525TIP3    H176990   1.086   4.700   1.586 -0.5951 -1.0185  0.4867
18525TIP3    H276991   1.153   4.588   1.662 -0.6632 -1.0481  0.5036
18526TIP3   OH276992   3.642   3.065   1.734 -0.0629 -0.1106 -0.5780
18526TIP3    H176993   3.639   3.044   1.827  1.5670  0.0657 -0.4584
18526TIP3    H276994   3.643   2.979   1.691 -1.2784 -0.1880 -0.4570
18527TIP3   OH276995   2.123   1.641  15.801 -0.5668  0.2889 -0.0329
18527TIP3    H176996   2.190   1.583  15.764 -0.8248  0.6008 -1.0251
18527TIP3    H276997   2.047   1.629  15.743 -0.9258  0.9271  0.2961
18528TIP3   OH276998   0.973   6.273   2.524  0.3235  0.2366  0.0656
18528TIP3    H176999   1.051   6.315   2.488 -0.4126  2.6887  1.1909
18528TIP3    H277000   0.999   6.248   2.613  0.8405 -2.0020 -0.6890
18529TIP3   OH277001   1.768   4.364   0.838  0.0384  0.6359 -0.0099
18529TIP3    H177002   1.804   4.376   0.926 -0.0627 -0.3020  0.1658
18529TIP3    H277003   1.830   4.410   0.781  0.2828  0.9705  0.5123
18530TIP3   OH277004   2.470   5.545   4.838  0.1322  0.4860  0.0925
18530TIP3    H177005   2.510   5.623   4.800 -0.2922  0.2800 -0.7885
18530TIP3    H277006   2.381   5.571   4.861  0.3201  0.5508  0.7668
18531TIP3   OH277007   6.108   5.254   1.150 -0.0852  0.2574 -0.0931
18531TIP3    H177008   6.041   5.295   1.096 -1.4819 -1.8780 -0.0243
18531TIP3    H277009   6.059   5.203   1.214  1.5812  0.7416  1.6288
18532TIP3   OH277010   6.251   6.602   4.087 -0.1682 -0.0076  0.1921
18532TIP3    H177011   6.240   6.631   3.996  0.8458 -2.5162 -0.7832
18532TIP3    H277012   6.317   6.534   4.082 -1.5294 -1.5604  2.5499
18533TIP3   OH277013   0.528   2.872   4.569 -0.2877 -0.0065  0.3547
18533TIP3    H177014   0.435   2.869   4.546  0.0961 -0.0600 -1.2336
18533TIP3    H277015   0.552   2.964   4.560 -0.2681  0.0727  1.1464
18534TIP3   OH277016   2.887   5.732  14.975 -0.1273 -0.3480  0.6469
18534TIP3    H177017   2.924   5.707  15.060 -0.5046  0.4997  1.0690
18534TIP3    H277018   2.822   5.664  14.956  0.0429 -0.6067  0.9794
18535TIP3   OH277019   4.113   3.607   4.014 -0.7133  0.0837  0.2060
18535TIP3    H177020   4.106   3.517   4.044  0.4121 -0.7624 -2.0087
18535TIP3    H277021   4.207   3.620   4.001 -0.9485  1.3248 -0.3102
18536TIP3   OH277022   4.608   4.325  15.549 -0.2500 -0.3338  0.1076
18536TIP3    H177023   4.547   4.315  15.622  1.2681  0.0738  1.4411
18536TIP3    H277024   4.610   4.419  15.532 -1.2513 -0.5010 -1.0524
18537TIP3   OH277025   4.891   5.025  13.411 -0.7594  0.3031  0.2129
18537TIP3    H177026   4.857   4.936  13.410 -1.3459  0.4991 -2.9182
18537TIP3    H277027   4.953   5.027  13.485 -2.2070 -2.0908  1.5353
18538TIP3   OH277028   0.066   6.655  11.591 -0.4477  0.2608 -0.2896
18538TIP3    H177029   0.040   6.704  11.512  1.0954  0.5820 -0.6160
18538TIP3    H277030  -0.012   6.604  11.614 -1.1753  0.7640 -1.5616
18539TIP3   OH277031   3.035   3.029  16.976 -0.0851 -0.1144 -0.5355
18539TIP3    H177032   2.988   3.111  16.990  0.8029  0.6170 -1.7810
18539TIP3    H277033   3.101   3.028  17.045  0.6178  0.7605 -1.1844
18540TIP3   OH277034   0.942   0.686  16.146  0.2354  0.1893  0.3774
18540TIP3    H177035   1.003   0.670  16.217  0.0790  0.2038  0.5135
18540TIP3    H277036   0.941   0.604  16.096  1.4190  0.6499 -0.4256
18541TIP3   OH277037   2.533   4.771   2.207  0.3327  0.5515 -0.3768
18541TIP3    H177038   2.612   4.780   2.155  0.3801  0.1199 -0.3828
18541TIP3    H277039   2.524   4.677   2.222  0.2647  0.6628  0.3113
18542TIP3   OH277040   2.038   2.809   0.901 -0.3520 -0.9203  0.2097
18542TIP3    H177041   2.045   2.720   0.867  1.9333 -0.9571  0.6724
18542TIP3    H277042   2.097   2.810   0.977 -1.0966  0.7129  0.7841
18543TIP3   OH277043   0.925   2.764   5.134  0.0080 -0.8705 -0.0710
18543TIP3    H177044   0.913   2.823   5.060  0.1813 -0.5928  0.1191
18543TIP3    H277045   0.843   2.770   5.183 -0.7061 -2.2363 -1.0665
18544TIP3   OH277046   5.629   3.669  11.290  0.1270 -0.0987 -0.1187
18544TIP3    H177047   5.719   3.689  11.264 -0.3885  1.5432 -0.7351
18544TIP3    H277048   5.594   3.752  11.321 -1.5555 -0.4232 -1.0636
18545TIP3   OH277049   1.004   2.721  11.624  0.0255 -0.3466  0.0888
18545TIP3    H177050   0.913   2.747  11.606  0.4031 -0.3608 -2.0607
18545TIP3    H277051   1.054   2.762  11.553  1.6850 -0.3916  1.2288
18546TIP3   OH277052   3.139   3.327   2.539  0.2627  0.5489  0.2601
18546TIP3    H177053   3.063   3.289   2.495 -1.7422  1.1965  3.0280
18546TIP3    H277054   3.193   3.363   2.468 -1.0448 -1.6112 -1.8830
18547TIP3   OH277055   3.070   0.652  14.966 -0.0629  0.0655 -0.3776
18547TIP3    H177056   3.074   0.556  14.963  0.4577  0.1221 -2.0481
18547TIP3    H277057   3.139   0.680  14.906 -1.1216  1.4708 -0.9429
18548TIP3   OH277058   4.360   0.122   2.942  0.9137  0.2827  0.2083
18548TIP3    H177059   4.276   0.165   2.925  1.0611  0.3079 -0.4792
18548TIP3    H277060   4.352   0.037   2.898  0.9492 -0.0372  0.8232
18549TIP3   OH277061   1.133   5.293   2.848  0.1694  0.6018  0.5972
18549TIP3    H177062   1.159   5.221   2.790 -1.2303 -1.0896  2.0089
18549TIP3    H277063   1.215   5.320   2.890  1.1037  1.4766 -1.7030
18550TIP3   OH277064   0.687   4.744  13.869 -0.5809 -0.0216  0.6486
18550TIP3    H177065   0.679   4.840  13.870 -1.6488 -0.0966  2.8885
18550TIP3    H277066   0.780   4.728  13.887 -0.3948  0.5820  0.2563
18551TIP3   OH277067   3.828   5.181   1.545  0.3113 -0.1207 -0.2738
18551TIP3    H177068   3.888   5.242   1.502  1.4889  0.1850  1.7181
18551TIP3    H277069   3.752   5.233   1.569 -0.4003 -0.3241 -2.0914
18552TIP3   OH277070   3.277   0.026  12.526 -0.5845  0.0793 -0.0809
18552TIP3    H177071   3.307   0.113  12.500  1.1133 -0.4285  0.1676
18552TIP3    H277072   3.266   0.032  12.621  0.1457 -0.1635  0.0192
18553TIP3   OH277073   4.754   5.865  13.708  1.0405 -0.3298  0.1691
18553TIP3    H177074   4.817   5.794  13.723  0.9369 -0.3640  0.4461
18553TIP3    H277075   4.668   5.825  13.723  0.9496 -0.2969 -0.2623
18554TIP3   OH277076   1.516   0.111  15.505 -0.7459 -0.1724  0.7606
18554TIP3    H177077   1.600   0.087  15.466 -1.2674 -0.9732  0.1272
18554TIP3    H277078   1.450   0.080  15.443 -1.4663  2.0774  0.3811
18555TIP3   OH277079   5.685   4.557   1.947 -0.1475 -0.3529 -0.3587
18555TIP3    H177080   5.756   4.493   1.957 -0.6645 -0.7413  0.8533
18555TIP3    H277081   5.607   4.504   1.932 -0.6046 -0.0249  0.8166
18556TIP3   OH277082   5.317   3.387  13.612 -0.0060 -0.7476 -0.6318
18556TIP3    H177083   5.341   3.375  13.520 -0.8113 -0.9087 -0.8176
18556TIP3    H277084   5.365   3.318  13.658  0.7639 -0.3766 -0.8750
18557TIP3   OH277085   0.727   0.927  11.482  0.0412  0.2330 -0.3705
18557TIP3    H177086   0.822   0.937  11.486  0.0658 -0.3700  0.5393
18557TIP3    H277087   0.712   0.859  11.416  0.3479 -1.2045  1.0136
18558TIP3   OH277088   5.507   4.275  16.589  0.0456 -1.3019 -0.1746
18558TIP3    H177089   5.595   4.250  16.562 -0.0923 -1.1323 -0.7924
18558TIP3    H277090   5.450   4.240  16.520 -0.3230 -1.0062 -0.0207
18559TIP3   OH277091   1.993   3.905   2.553 -0.0978  0.3552 -0.1454
18559TIP3    H177092   2.044   3.828   2.575 -0.3724  0.1769 -0.1368
18559TIP3    H277093   2.004   3.915   2.459 -0.4350  0.0409 -0.2177
18560TIP3   OH277094   4.825   3.639   6.567 -0.3920  0.1113  0.3815
18560TIP3    H177095   4.773   3.659   6.490 -1.8493 -0.6649  1.1326
18560TIP3    H277096   4.779   3.565   6.608  1.1550 -0.4200  1.2111
18561TIP3   OH277097   2.179   0.852  11.505  0.1734 -0.6317  0.5867
18561TIP3    H177098   2.156   0.777  11.560 -1.2590 -1.4620 -1.0643
18561TIP3    H277099   2.115   0.919  11.529  1.0473 -0.1587  1.6062
18562TIP3   OH277100   0.266   5.533  11.714 -0.0593 -0.6351  0.2406
18562TIP3    H177101   0.314   5.536  11.631 -0.7462  1.2258 -0.1287
18562TIP3    H277102   0.309   5.600  11.768  0.2386 -1.6777  1.3026
18563TIP3   OH277103   1.608   6.286  16.289  0.4173 -0.0100 -0.2804
18563TIP3    H177104   1.553   6.354  16.330  0.1864  0.3108 -1.1123
18563TIP3    H277105   1.680   6.334  16.250  0.3098 -0.2598 -0.7840
18564TIP3   OH277106   2.166   5.545  14.034  0.0524 -0.0920  0.0699
18564TIP3    H177107   2.183   5.466  14.085  0.3129 -1.3356 -1.9000
18564TIP3    H277108   2.249   5.564  13.990  0.1895  1.6826  1.0724
18565TIP3   OH277109   0.010   2.830   5.569  0.3386  0.1420  0.0848
18565TIP3    H177110  -0.021   2.833   5.659 -3.1034  0.4354 -1.0335
18565TIP3    H277111   0.009   2.921   5.540  1.2482  0.0301 -0.3150
18566TIP3   OH277112   1.323   1.019   1.114 -0.3774 -0.6284  0.0055
18566TIP3    H177113   1.256   1.075   1.152 -1.9294 -1.9752 -0.6959
18566TIP3    H277114   1.383   1.080   1.071 -0.4307  0.6701  1.7216
18567TIP3   OH277115   3.193   5.601  15.351  0.3386  0.2908 -0.0755
18567TIP3    H177116   3.241   5.645  15.421 -0.3839 -0.0477  0.6486
18567TIP3    H277117   3.261   5.576  15.288  0.9283  1.0974  0.2275
18568TIP3   OH277118   4.977   0.623  12.633 -0.4043 -0.5607 -0.6491
18568TIP3    H177119   5.000   0.680  12.560  3.7764 -2.4329 -0.9117
18568TIP3    H277120   4.955   0.683  12.704 -0.5682  1.3178 -2.2234
18569TIP3   OH277121   4.106   6.184  16.409  0.1163  0.5680  0.3822
18569TIP3    H177122   4.116   6.095  16.441  0.8660 -0.2927 -2.1052
18569TIP3    H277123   4.149   6.239  16.474 -0.9902 -0.7872  2.2991
18570TIP3   OH277124   4.491   0.859   3.056  0.4695  0.0717  0.4165
18570TIP3    H177125   4.552   0.790   3.031  1.6295  0.9379  0.7917
18570TIP3    H277126   4.417   0.814   3.096  0.8815 -0.9847 -0.0078
18571TIP3   OH277127   4.549   2.263  12.454 -0.2424 -0.4855 -0.1273
18571TIP3    H177128   4.482   2.242  12.389  0.1921  1.3652 -1.2365
18571TIP3    H277129   4.506   2.250  12.538 -1.3467 -1.2996 -0.7934
18572TIP3   OH277130   5.639   5.636  10.604  0.2327  0.3646  0.5067
18572TIP3    H177131   5.606   5.725  10.614 -0.8407  0.1352 -0.7969
18572TIP3    H277132   5.566   5.579  10.628 -0.1886 -0.1451 -1.8280
18573TIP3   OH277133   5.764   2.483   1.810  0.7647  0.0918 -0.6040
18573TIP3    H177134   5.699   2.417   1.783 -0.1272  0.9919 -0.6915
18573TIP3    H277135   5.790   2.525   1.728  1.9616 -0.6942 -0.6501
18574TIP3   OH277136   6.565   2.095   6.041  0.2661  0.5323  0.3114
18574TIP3    H177137   6.585   2.008   6.075  1.9760  0.5970 -0.4852
18574TIP3    H277138   6.580   2.154   6.115  0.4307  0.2872  0.4716
18575TIP3   OH277139   4.090   3.556   3.636 -0.1263 -0.4115 -0.1151
18575TIP3    H177140   4.021   3.503   3.676 -0.0162 -1.5610 -1.4243
18575TIP3    H277141   4.045   3.634   3.605 -0.9104 -1.3041 -1.2513
18576TIP3   OH277142   4.567   1.957   0.607 -0.7025  0.7765 -0.0453
18576TIP3    H177143   4.477   1.942   0.578  0.1890  0.4044 -2.7620
18576TIP3    H277144   4.614   1.980   0.527  2.0945 -1.2704  0.9515
18577TIP3   OH277145   6.727   4.368   3.144  0.1436 -0.2043  0.5096
18577TIP3    H177146   6.761   4.429   3.211  0.5301 -0.1948  0.3100
18577TIP3    H277147   6.686   4.425   3.079 -1.6894 -0.3093  1.5407
18578TIP3   OH277148   2.653   2.133  13.390 -0.1095 -0.0465  0.2753
18578TIP3    H177149   2.684   2.222  13.400 -0.4643  0.0352  0.6816
18578TIP3    H277150   2.558   2.140  13.391 -0.1510 -0.2889 -1.0138
18579TIP3   OH277151   0.275   0.363   4.677 -0.2418 -0.6433  0.0890
18579TIP3    H177152   0.325   0.441   4.654 -1.3587  0.1142  0.2109
18579TIP3    H277153   0.196   0.396   4.719 -1.4042 -1.7855 -1.1602
18580TIP3   OH277154   0.821   6.513   0.371 -0.5423 -0.0321  0.0825
18580TIP3    H177155   0.837   6.607   0.372 -0.2882 -0.0422 -1.7669
18580TIP3    H277156   0.878   6.478   0.440 -0.7794  1.1681  0.9118
18581TIP3   OH277157   6.443   6.158   0.884  0.0293  0.4918 -0.1654
18581TIP3    H177158   6.514   6.100   0.857  0.9923  1.4269  0.3166
18581TIP3    H277159   6.387   6.103   0.938  0.2510 -0.3263 -0.7625
18582TIP3   OH277160   5.945   0.522  13.859 -0.0557 -0.0097 -0.2914
18582TIP3    H177161   5.875   0.573  13.819 -0.5197  0.5372  1.1594
18582TIP3    H277162   5.937   0.435  13.821 -2.5224 -0.3843  0.9878
18583TIP3   OH277163   3.886   1.625  15.050  0.4318  0.1061 -0.1750
18583TIP3    H177164   3.899   1.531  15.037  0.6950  0.0673  0.3677
18583TIP3    H277165   3.826   1.650  14.980 -0.6719 -0.7134  0.4487
18584TIP3   OH277166   0.435   2.456   1.467 -0.0094 -0.1563 -0.1876
18584TIP3    H177167   0.467   2.544   1.484  0.6810 -0.7950  2.0071
18584TIP3    H277168   0.513   2.401   1.475 -0.5665 -1.0597 -0.8543
18585TIP3   OH277169   1.427   2.736  12.688 -0.3496 -0.1844 -0.3732
18585TIP3    H177170   1.499   2.676  12.670 -0.9443 -0.9091 -0.3663
18585TIP3    H277171   1.367   2.686  12.743 -0.9511  0.3421 -0.5408
18586TIP3   OH277172   2.792   2.288   4.253  0.3233 -0.6711 -0.5407
18586TIP3    H177173   2.795   2.382   4.268  1.5023 -0.4680 -1.9161
18586TIP3    H277174   2.700   2.269   4.235  0.3276  0.4917 -1.8583
18587TIP3   OH277175   4.280   4.013  12.389 -0.4835  0.5524  0.3241
18587TIP3    H177176   4.361   3.967  12.366 -0.9991 -0.2493  0.0775
18587TIP3    H277177   4.308   4.102  12.410  0.5410  0.1195  0.8486
18588TIP3   OH277178   5.229   4.991  17.090  0.0690 -0.3267 -0.1576
18588TIP3    H177179   5.277   5.038  17.022 -1.2644  1.7976  0.3150
18588TIP3    H277180   5.278   5.008  17.170 -0.6786  0.7292  0.0958
18589TIP3   OH277181   4.467   1.709  10.869 -0.5580  0.2607 -0.2658
18589TIP3    H177182   4.492   1.798  10.846 -1.8224  0.4750 -0.8800
18589TIP3    H277183   4.541   1.675  10.918  0.1646  1.4646 -0.4999
18590TIP3   OH277184   5.255   2.043   4.533  0.4177 -0.1745  0.4699
18590TIP3    H177185   5.212   2.129   4.527  4.3400  1.8127 -1.5947
18590TIP3    H277186   5.247   2.018   4.625 -0.8037  2.4329  1.1257
18591TIP3   OH277187   5.551   5.132  16.353  0.1469 -0.2534  0.5473
18591TIP3    H177188   5.596   5.217  16.358 -0.6243  0.4854 -3.1068
18591TIP3    H277189   5.460   5.155  16.337 -0.1129 -1.7683 -0.2178
18592TIP3   OH277190   2.349   6.736  12.963  0.0453  0.0610 -0.5678
18592TIP3    H177191   2.371   6.670  13.029  1.3168 -1.2580 -2.2612
18592TIP3    H277192   2.256   6.753  12.976 -0.1067 -1.4673  0.4301
18593TIP3   OH277193   0.235   2.666   3.460 -0.2485  0.4994 -0.1880
18593TIP3    H177194   0.324   2.637   3.481 -0.2900  0.1537 -0.4939
18593TIP3    H277195   0.247   2.734   3.394 -0.2688 -0.1908 -0.8955
18594TIP3   OH277196   1.627   6.726   0.142 -0.8982  0.5862 -0.1327
18594TIP3    H177197   1.702   6.732   0.201 -0.6982  1.4335 -0.4709
18594TIP3    H277198   1.594   6.815   0.136  0.1286  0.8401 -2.6603
18595TIP3   OH277199   1.753   1.509  13.628  0.0002  0.0842  0.3025
18595TIP3    H177200   1.824   1.448  13.646  0.4956  0.7288  0.5661
18595TIP3    H277201   1.795   1.581  13.580 -0.9292 -0.6756 -1.6784
18596TIP3   OH277202   0.540   2.313  14.027  0.5754 -0.3297  0.2272
18596TIP3    H177203   0.612   2.325  14.089 -0.3122  0.9373  1.0487
18596TIP3    H277204   0.502   2.400  14.018 -1.3166 -1.1105  0.3803
18597TIP3   OH277205   0.503   2.219  12.435  0.7066  0.4112  0.1345
18597TIP3    H177206   0.487   2.265  12.352 -0.3452  1.3284  0.8361
18597TIP3    H277207   0.552   2.281  12.488 -0.1678  0.5032  0.8479
18598TIP3   OH277208   3.911   2.584  15.633  0.0174 -0.7140  0.0462
18598TIP3    H177209   3.928   2.590  15.727 -0.8454 -0.8463  0.2123
18598TIP3    H277210   3.904   2.674  15.603 -2.6532 -0.6819  0.6578
18599TIP3   OH277211   5.422   6.024  13.824 -0.2234 -0.2222  0.0395
18599TIP3    H177212   5.499   6.005  13.877 -1.1369 -1.8301  0.8180
18599TIP3    H277213   5.419   6.120  13.818  0.3825 -0.0639  2.1301
18600TIP3   OH277214   5.399   5.814  17.085 -0.4051  0.1550 -0.9837
18600TIP3    H177215   5.365   5.791  16.999 -0.2467 -3.6211 -0.1361
18600TIP3    H277216   5.347   5.762  17.146  2.0162 -0.1853  0.8894
18601TIP3   OH277217   5.724   1.243  10.980 -0.1476  0.2340 -0.1368
18601TIP3    H177218   5.630   1.240  10.998 -0.4100  1.0456 -1.2781
18601TIP3    H277219   5.731   1.219  10.888  0.7976 -0.1322  0.0290
18602TIP3   OH277220   6.318   5.169   0.731  0.5794 -0.6106  0.3436
18602TIP3    H177221   6.261   5.204   0.800 -0.6450  2.0838 -1.9195
18602TIP3    H277222   6.259   5.130   0.668  1.5747 -1.6379  0.0316
18603TIP3   OH277223   0.666   5.620  11.757 -0.2894  0.5925 -0.4315
18603TIP3    H177224   0.741   5.583  11.804 -0.0264  0.7195 -0.7534
18603TIP3    H277225   0.619   5.671  11.823  0.6938  1.6932 -0.5691
18604TIP3   OH277226   2.703   2.711   1.903 -0.0232 -0.0008 -0.2619
18604TIP3    H177227   2.664   2.739   1.985  1.7677 -0.5298  0.8049
18604TIP3    H277228   2.674   2.621   1.892  1.1285 -0.5134  0.7150
18605TIP3   OH277229   2.913   3.690  15.943 -0.6765 -0.5477 -0.2968
18605TIP3    H177230   2.834   3.712  15.993 -0.9032  0.4852 -1.0899
18605TIP3    H277231   2.984   3.701  16.006 -1.2671 -2.9931  0.8632
18606TIP3   OH277232   5.705   0.565   3.301 -0.2132  0.5001  0.7152
18606TIP3    H177233   5.679   0.624   3.229  0.2442 -0.9348 -0.6466
18606TIP3    H277234   5.798   0.583   3.313 -0.2910  0.7448  0.9647
18607TIP3   OH277235   5.869   0.139  14.194 -0.3963  0.4917  0.4675
18607TIP3    H177236   5.903   0.116  14.108 -2.3428 -0.9564  0.0511
18607TIP3    H277237   5.946   0.144  14.250  0.9408  1.9617 -1.4418
18608TIP3   OH277238   2.338   3.615  14.355  0.2123  0.0706  0.2435
18608TIP3    H177239   2.391   3.676  14.407 -0.8271 -0.1730  1.6138
18608TIP3    H277240   2.283   3.569  14.419 -1.6790  0.3324 -1.1292
18609TIP3   OH277241   5.286   6.493   5.175  0.5711 -0.0388  0.2354
18609TIP3    H177242   5.369   6.455   5.204  1.3929  2.2480  1.0644
18609TIP3    H277243   5.264   6.556   5.245 -1.6214 -0.2983 -0.2044
18610TIP3   OH277244   1.812   5.084  13.511  0.3580 -0.3223  0.3504
18610TIP3    H177245   1.804   4.992  13.536  0.3935 -0.5718 -0.5446
18610TIP3    H277246   1.822   5.083  13.416  1.2468  0.5615  0.4247
18611TIP3   OH277247   1.030   0.916   2.831 -0.3427 -0.2054  0.4814
18611TIP3    H177248   0.947   0.871   2.846  1.0244 -2.5658  1.2528
18611TIP3    H277249   1.076   0.862   2.766  0.1942  1.6019 -0.6807
18612TIP3   OH277250   6.305   1.767  15.202 -0.1763  0.6751  0.3201
18612TIP3    H177251   6.360   1.718  15.141 -0.1281 -0.6509  1.4233
18612TIP3    H277252   6.365   1.831  15.241  0.0985  0.6410 -0.0422
18613TIP3   OH277253   2.515   4.067  16.060  0.6763  0.3220 -0.0174
18613TIP3    H177254   2.487   3.986  16.018 -2.9744  0.8219  1.3042
18613TIP3    H277255   2.530   4.043  16.152 -1.6659  1.3790  0.6596
18614TIP3   OH277256   3.569   5.181   5.078  0.7780  0.4343 -0.4934
18614TIP3    H177257   3.582   5.125   5.154  1.4729 -0.0189 -0.9434
18614TIP3    H277258   3.627   5.145   5.011  0.6910  1.2477 -1.0158
18615TIP3   OH277259   2.110   0.165  10.825 -0.1255  0.1097 -0.4232
18615TIP3    H177260   2.203   0.150  10.843 -0.4213 -1.1775  0.1218
18615TIP3    H277261   2.088   0.101  10.757 -0.8943 -0.4033  0.3043
18616TIP3   OH277262   4.628   4.366   2.483 -0.1005  0.4006 -0.2499
18616TIP3    H177263   4.550   4.421   2.494 -0.4893 -0.0744 -0.6099
18616TIP3    H277264   4.615   4.293   2.543 -0.3899 -0.1735 -0.9964
18617TIP3   OH277265   3.603   5.321  16.604  0.5579 -0.0396  0.4723
18617TIP3    H177266   3.605   5.229  16.580 -0.5185  0.1831 -0.5160
18617TIP3    H277267   3.566   5.365  16.527 -1.3938  0.8856  1.8952
18618TIP3   OH277268   2.680   3.897  13.582 -0.1698  0.2804  0.1388
18618TIP3    H177269   2.731   3.968  13.543 -2.0343  1.1830 -0.7369
18618TIP3    H277270   2.732   3.868  13.657  1.3033  1.6007 -0.3512
18619TIP3   OH277271   2.782   4.438  16.786  0.7385 -0.7025  0.5411
18619TIP3    H177272   2.736   4.439  16.870 -0.0149  0.8703  0.1441
18619TIP3    H277273   2.828   4.522  16.783  0.4909 -0.5980 -0.7521
18620TIP3   OH277274   2.271   5.409   3.298 -0.2843 -0.6574 -0.7492
18620TIP3    H177275   2.347   5.465   3.311 -0.1431 -0.7756 -1.0529
18620TIP3    H277276   2.196   5.465   3.318 -0.0271 -1.3604  2.4519
18621TIP3   OH277277   2.574   2.521   5.722  0.0208 -0.0372  0.4766
18621TIP3    H177278   2.514   2.449   5.737  0.6841 -0.5931  0.4786
18621TIP3    H277279   2.661   2.484   5.736  0.3397  0.9059  1.0572
18622TIP3   OH277280   4.702   6.237   2.165  0.0482 -0.0144  0.2234
18622TIP3    H177281   4.650   6.166   2.202  0.5004 -0.1892  0.5217
18622TIP3    H277282   4.664   6.251   2.078 -1.3036  0.7037  0.9176
18623TIP3   OH277283   1.400   2.064   2.246  0.3793 -0.0058 -0.0549
18623TIP3    H177284   1.438   2.004   2.182 -2.7788  0.0120 -2.0040
18623TIP3    H277285   1.383   2.144   2.197  0.6712  1.0646  1.5407
18624TIP3   OH277286   0.239   2.095  13.475 -0.8375 -0.5408  0.0522
18624TIP3    H177287   0.314   2.088  13.533 -0.1240  1.3807 -0.5926
18624TIP3    H277288   0.219   2.189  13.473 -3.1296 -0.9808  0.0474
18625TIP3   OH277289   3.793   0.277   1.871 -0.0222 -0.1060 -0.3321
18625TIP3    H177290   3.811   0.324   1.953  2.3962 -1.0353 -0.3094
18625TIP3    H277291   3.847   0.319   1.806 -1.5275  0.2635 -1.3751
18626TIP3   OH277292   6.459   6.335   5.156 -0.0696 -0.1647  0.4985
18626TIP3    H177293   6.510   6.304   5.081  0.4099 -0.9954  1.1530
18626TIP3    H277294   6.450   6.429   5.143 -0.7490 -0.4302 -1.0612
18627TIP3   OH277295   1.778   2.484  14.737  0.4129  0.3491 -0.2531
18627TIP3    H177296   1.696   2.482  14.787  0.5915 -1.8840  0.0072
18627TIP3    H277297   1.752   2.516  14.651 -0.7870 -0.4176 -0.2010
18628TIP3   OH277298   3.877   5.093   0.146  0.0438  0.2792 -0.2028
18628TIP3    H177299   3.875   5.121   0.237 -0.8660 -0.5071  0.0264
18628TIP3    H277300   3.941   5.022   0.144 -0.0689  0.1754 -0.1398
18629TIP3   OH277301   2.162   2.205   1.743 -0.3044 -0.6665 -0.1759
18629TIP3    H177302   2.117   2.247   1.816  0.9750  1.1269 -0.3757
18629TIP3    H277303   2.211   2.276   1.701  2.4524 -2.4414 -0.1523
18630TIP3   OH277304   2.813   5.170   2.573 -0.1452  0.2773  0.0963
18630TIP3    H177305   2.763   5.157   2.493  1.3940  1.1416 -1.0431
18630TIP3    H277306   2.767   5.239   2.620 -1.7230 -1.0555  0.5422
18631TIP3   OH277307   5.940   1.827  13.120 -0.8458 -0.2609 -0.0033
18631TIP3    H177308   5.965   1.737  13.101 -0.6067 -0.5030  1.4415
18631TIP3    H277309   6.021   1.877  13.112 -1.2354  0.0858 -2.2325
18632TIP3   OH277310   1.318   0.414  12.381  0.9171 -0.5932  0.3484
18632TIP3    H177311   1.352   0.503  12.370 -0.9507  0.1070 -0.0565
18632TIP3    H277312   1.283   0.413  12.470  0.2491 -0.6695  0.0883
18633TIP3   OH277313   3.830   3.236   1.405 -0.5201  0.2637  0.7322
18633TIP3    H177314   3.901   3.278   1.453  0.1403 -1.1302  1.0000
18633TIP3    H277315   3.864   3.150   1.382 -2.1457 -0.4522  0.9326
18634TIP3   OH277316   3.259   0.080   1.973  0.0890 -0.0171  0.3413
18634TIP3    H177317   3.194   0.063   2.042 -0.4856 -1.2139 -0.4890
18634TIP3    H277318   3.282  -0.006   1.940  0.6637  0.5306 -0.7105
18635TIP3   OH277319   3.265   6.376   5.864  0.2240  0.3233  0.3097
18635TIP3    H177320   3.188   6.334   5.902 -0.9927  1.2783 -1.0835
18635TIP3    H277321   3.339   6.322   5.895 -0.9661 -0.5506  1.7051
18636TIP3   OH277322   6.027   4.006   6.044 -0.1801 -0.3188 -0.0207
18636TIP3    H177323   6.003   3.926   5.998 -0.4541  0.0806 -0.5863
18636TIP3    H277324   5.946   4.036   6.085 -0.3942  0.4075 -0.9628
18637TIP3   OH277325   3.933   1.782   1.308 -0.4261 -0.3148 -0.8505
18637TIP3    H177326   3.947   1.869   1.344 -0.3657 -0.6688 -0.0058
18637TIP3    H277327   4.003   1.729   1.346 -0.3554 -0.6885 -1.5024
18638TIP3   OH277328   6.361   6.118  11.038 -0.6350 -0.0192  0.2184
18638TIP3    H177329   6.352   6.070  10.956 -2.0095  0.0024  0.3479
18638TIP3    H277330   6.299   6.190  11.030  1.1818  1.5746  0.1551
18639TIP3   OH277331   6.720   3.882   5.649  0.4615 -0.1885  0.3843
18639TIP3    H177332   6.697   3.841   5.732  0.9387 -0.8061  0.2157
18639TIP3    H277333   6.800   3.931   5.667  0.6633 -0.4659  0.2488
18640TIP3   OH277334   2.600   0.571  16.465  0.8559  0.6986 -0.1883
18640TIP3    H177335   2.683   0.618  16.472  0.4425  1.3988  0.0989
18640TIP3    H277336   2.612   0.513  16.390  1.5654  0.8743 -0.2157
18641TIP3   OH277337   5.296   0.157   5.169 -0.1109 -0.0259  0.0428
18641TIP3    H177338   5.285   0.181   5.077 -1.8779 -0.7173  0.0467
18641TIP3    H277339   5.217   0.106   5.189  0.1868  0.2680  1.9818
18642TIP3   OH277340   5.015   6.204  13.924  0.5646  0.2111  0.1424
18642TIP3    H177341   5.056   6.282  13.887  1.5151  0.1425  1.0259
18642TIP3    H277342   4.921   6.217  13.910  0.7405  1.3741  0.0158
18643TIP3   OH277343   2.459   0.196   5.853  0.2967  0.0308 -0.3316
18643TIP3    H177344   2.461   0.196   5.948  0.9116 -0.1095 -0.3450
18643TIP3    H277345   2.412   0.276   5.830  1.0241  0.5837  0.0742
18644TIP3   OH277346   6.519   5.670  13.123 -0.0417 -0.3637 -0.1430
18644TIP3    H177347   6.597   5.717  13.093 -0.1856 -0.2124 -0.2843
18644TIP3    H277348   6.455   5.684  13.054 -0.6249  0.6310  0.5729
18645TIP3   OH277349   3.703   4.153  14.529  0.2676  0.0914 -0.8154
18645TIP3    H177350   3.785   4.198  14.506 -0.1618  0.7828 -0.9902
18645TIP3    H277351   3.731   4.066  14.557  1.1184  0.5161 -0.3337
18646TIP3   OH277352   3.527   4.257   0.416  0.5790 -0.4929 -0.2970
18646TIP3    H177353   3.462   4.256   0.346 -0.1340 -0.1837  0.3521
18646TIP3    H277354   3.610   4.239   0.372  0.1755 -0.0589 -1.2534
18647TIP3   OH277355   5.326   5.902   4.281  0.4795 -0.3216  0.0463
18647TIP3    H177356   5.313   5.862   4.367  2.4812 -2.2919 -0.5226
18647TIP3    H277357   5.334   5.827   4.221  0.5869  1.0131 -1.6321
18648TIP3   OH277358   6.689   3.854   4.002 -0.1300 -0.1759 -0.0774
18648TIP3    H177359   6.600   3.887   3.988  0.1462  0.4938 -0.2418
18648TIP3    H277360   6.742   3.898   3.936  0.2393 -0.9685 -0.3211
18649TIP3   OH277361   5.536   1.138  10.478  0.7630 -0.6894 -0.3086
18649TIP3    H177362   5.563   1.047  10.468  0.5247 -0.9824  1.6166
18649TIP3    H277363   5.483   1.156  10.400 -1.4079 -2.9966  0.5804
18650TIP3   OH277364   4.357   2.400  15.500 -0.0496  0.3710 -0.0533
18650TIP3    H177365   4.273   2.421  15.459  0.5711  1.3739 -0.8231
18650TIP3    H277366   4.353   2.305  15.515 -1.6264  0.5248  0.6228
18651TIP3   OH277367   3.423   6.749  16.851 -0.0005  0.7299 -0.4378
18651TIP3    H177368   3.414   6.841  16.876  2.5214  0.4637  1.7020
18651TIP3    H277369   3.459   6.752  16.762 -0.9545  1.7905 -0.7934
18652TIP3   OH277370   5.995   3.203   4.045 -0.1943  0.0991 -0.0327
18652TIP3    H177371   6.077   3.155   4.058  0.6070  2.2077  3.2491
18652TIP3    H277372   5.951   3.199   4.130 -1.8361  2.0005 -0.7589
18653TIP3   OH277373   6.248   3.558   5.941  0.1537  0.2180  0.1400
18653TIP3    H177374   6.251   3.463   5.952  2.1934  0.1521 -0.7133
18653TIP3    H277375   6.302   3.593   6.012  1.2819  0.5976 -0.8866
18654TIP3   OH277376   4.163   5.929  10.461 -0.4075 -0.3031  0.5110
18654TIP3    H177377   4.202   5.848  10.426  0.1709  0.3580 -0.3988
18654TIP3    H277378   4.198   5.998  10.405 -1.3737  0.5185  0.9173
18655TIP3   OH277379   0.760   3.014   5.292  0.4721  0.1741 -0.5884
18655TIP3    H177380   0.710   2.979   5.218 -1.9340  1.3084  0.4229
18655TIP3    H277381   0.850   3.018   5.261  0.1319 -2.8036 -2.1884
18656TIP3   OH277382   6.533   4.311   3.394 -0.1852  0.4693 -0.4031
18656TIP3    H177383   6.553   4.222   3.364  0.3521  0.6534 -0.5928
18656TIP3    H277384   6.617   4.346   3.422 -0.1176  1.5093 -1.8653
18657TIP3   OH277385   2.132   0.782  14.028  0.2504  0.2012 -0.0963
18657TIP3    H177386   2.094   0.796  13.941 -0.0885 -1.2014 -0.1894
18657TIP3    H277387   2.068   0.820  14.088  1.1966  2.5493 -0.5144
18658TIP3   OH277388   4.547   5.985   4.536  0.1182 -0.1970 -0.6985
18658TIP3    H177389   4.508   6.002   4.622 -0.2890 -0.5820 -0.8023
18658TIP3    H277390   4.524   6.061   4.483 -1.1063 -0.7272 -0.9659
18659TIP3   OH277391   6.525   3.542   2.491 -0.3593  0.2884 -0.1811
18659TIP3    H177392   6.607   3.530   2.443  0.7677 -0.4750  1.8669
18659TIP3    H277393   6.551   3.536   2.583 -2.6549  0.5319  0.4949
18660TIP3   OH277394   2.726   3.370  13.580 -0.3108  0.0067  0.5392
18660TIP3    H177395   2.792   3.411  13.524 -0.2521 -0.1069  0.5239
18660TIP3    H277396   2.736   3.276  13.563 -1.0456  0.0457 -0.0890
18661TIP3   OH277397   3.275   0.089   4.819 -0.6294  0.0161  0.4339
18661TIP3    H177398   3.365   0.067   4.795 -0.5622 -1.6483  2.1127
18661TIP3    H277399   3.222   0.042   4.756 -0.3689 -1.6601  1.4153
18662TIP3   OH277400   2.018   1.155   5.923 -0.1843 -0.1525 -0.2273
18662TIP3    H177401   2.058   1.239   5.900 -1.4188  0.1433 -1.3382
18662TIP3    H277402   2.058   1.132   6.007  1.7485  0.4995 -0.9339
18663TIP3   OH277403   3.677   0.025   0.193  0.0173  0.1157 -0.3043
18663TIP3    H177404   3.603   0.007   0.135  0.0365 -1.2321  0.0935
18663TIP3    H277405   3.637   0.036   0.279  0.1526  0.6463 -0.3069
18664TIP3   OH277406   3.293   2.774   5.163  0.7052  0.5479  0.1258
18664TIP3    H177407   3.198   2.764   5.167  0.8791 -2.2901 -1.4170
18664TIP3    H277408   3.312   2.780   5.069  2.0831  0.7769  0.4115
18665TIP3   OH277409   3.112   5.761  16.361  0.0486 -1.1203 -0.3695
18665TIP3    H177410   3.169   5.700  16.409  0.5030 -1.6965 -1.6109
18665TIP3    H277411   3.035   5.770  16.416  0.3969 -2.0603  0.2914
18666TIP3   OH277412   2.263   3.855  16.970 -0.0458 -0.4873  0.2601
18666TIP3    H177413   2.230   3.807  16.893  0.0693 -1.6792  0.9413
18666TIP3    H277414   2.186   3.899  17.005 -0.3162 -0.8046  0.0745
18667TIP3   OH277415   0.420   5.086  10.435 -0.1444 -0.4722 -0.0456
18667TIP3    H177416   0.335   5.112  10.399 -0.1160 -2.0301 -1.2845
18667TIP3    H277417   0.398   5.035  10.514 -0.3907 -1.2948 -0.6371
18668TIP3   OH277418   2.970   0.487   5.044 -0.1658 -0.3910 -0.7143
18668TIP3    H177419   3.048   0.470   4.992 -0.8373 -1.0286 -1.5396
18668TIP3    H277420   2.956   0.581   5.037 -0.2453 -0.4639 -1.7086
18669TIP3   OH277421   5.447   1.939   4.937  0.8120 -0.0574 -0.4648
18669TIP3    H177422   5.475   1.971   4.851  1.0491 -0.0569 -0.3887
18669TIP3    H277423   5.440   2.017   4.991 -2.9944  0.3878 -1.4871
18670TIP3   OH277424   2.476   2.599   5.983 -0.3717 -0.4811 -0.2527
18670TIP3    H177425   2.504   2.532   5.921 -0.3666  1.7731 -2.7673
18670TIP3    H277426   2.557   2.631   6.022 -0.0042  0.7327 -1.9349
18671TIP3   OH277427   2.792   6.490  16.597 -0.2381 -0.3586 -0.1613
18671TIP3    H177428   2.787   6.500  16.502  0.6249  0.6227 -0.1127
18671TIP3    H277429   2.841   6.566  16.627 -1.3316 -0.1643  1.1838
18672TIP3   OH277430   0.258   6.584   5.218  0.3601  0.2595 -0.4655
18672TIP3    H177431   0.181   6.531   5.239 -0.2508  0.4413 -2.2394
18672TIP3    H277432   0.329   6.540   5.264 -0.3148 -1.5332 -1.0680
18673TIP3   OH277433   2.203   4.809  14.258  0.2397 -0.1088  0.5249
18673TIP3    H177434   2.274   4.859  14.218 -0.2792 -0.1665 -0.4825
18673TIP3    H277435   2.156   4.771  14.184 -0.9945  0.1498  1.1642
18674TIP3   OH277436   4.112   3.881  11.648 -0.1397  0.4851 -0.2294
18674TIP3    H177437   4.023   3.882  11.684 -0.9336  1.7562 -2.1291
18674TIP3    H277438   4.100   3.853  11.557  1.5906 -0.7342 -0.1149
18675TIP3   OH277439   4.384   4.675   0.939 -0.3556 -0.0199 -0.0256
18675TIP3    H177440   4.353   4.680   0.849  0.1147  0.4795 -0.1613
18675TIP3    H277441   4.304   4.671   0.992 -0.6285 -0.4265 -0.4694
18676TIP3   OH277442   4.914   5.752   0.953 -0.1297 -0.1621  0.1860
18676TIP3    H177443   4.823   5.729   0.971 -0.2188 -0.1514 -0.2345
18676TIP3    H277444   4.960   5.668   0.950 -0.4632 -0.3073 -1.3969
18677TIP3   OH277445   4.911   4.087   4.712 -0.3057  0.2785  0.4217
18677TIP3    H177446   4.950   4.004   4.686 -0.8181  0.0079  0.4919
18677TIP3    H277447   4.944   4.102   4.801  0.0654  0.3243  0.2760
18678TIP3   OH277448   2.596   0.042   1.478  0.0506 -0.0938 -0.2351
18678TIP3    H177449   2.541  -0.016   1.530  0.7215 -1.5538 -1.1192
18678TIP3    H277450   2.686   0.015   1.499  0.3874  1.1310 -0.0784
18679TIP3   OH277451   3.492   4.995  14.703  0.3726  0.7272  0.8319
18679TIP3    H177452   3.462   4.907  14.679 -0.7185  1.1896  0.4830
18679TIP3    H277453   3.583   4.998  14.672 -0.6266  0.8836 -2.2605
18680TIP3   OH277454   2.059   6.056   3.166 -0.0117  0.3002  0.4626
18680TIP3    H177455   1.992   6.049   3.234  0.9335  0.9473  1.4798
18680TIP3    H277456   2.014   6.031   3.086 -1.4776  0.7420  1.1253
18681TIP3   OH277457   4.210   5.802  13.024 -0.6991  0.3178 -0.4119
18681TIP3    H177458   4.147   5.783  13.093 -0.0794  1.3176  0.4559
18681TIP3    H277459   4.160   5.797  12.943 -1.5886 -0.1948  0.1640
18682TIP3   OH277460   1.006   4.058   0.353  0.0144 -1.4246 -0.3167
18682TIP3    H177461   1.094   4.045   0.387 -0.6022 -0.1594  1.8628
18682TIP3    H277462   0.979   3.972   0.320  1.7876 -1.9600 -0.4062
18683TIP3   OH277463   5.256   4.904  16.128  0.1541 -0.1933  0.2650
18683TIP3    H177464   5.261   4.973  16.062 -1.9173 -0.2964 -0.0537
18683TIP3    H277465   5.302   4.830  16.089 -2.3242 -0.7532 -1.7859
18684TIP3   OH277466   2.888   3.202  10.505 -0.3032  0.1800  0.3039
18684TIP3    H177467   2.904   3.140  10.577  1.3883  0.2884  0.0402
18684TIP3    H277468   2.875   3.147  10.428 -2.4789  0.0500  0.7268
18685TIP3   OH277469   2.574   2.474   0.152  0.5336  0.0979  0.5350
18685TIP3    H177470   2.561   2.472   0.057 -0.4243  2.3925  0.5859
18685TIP3    H277471   2.526   2.398   0.185  2.1330 -1.5857 -0.9410
18686TIP3   OH277472   1.640   5.527   3.501 -0.1156  0.2410 -0.3004
18686TIP3    H177473   1.731   5.496   3.491 -0.1616 -0.0274  0.0763
18686TIP3    H277474   1.617   5.562   3.415  0.8738  1.7326  0.0353
18687TIP3   OH277475   0.127   4.826   6.456  0.0363  0.1950  0.5593
18687TIP3    H177476   0.091   4.865   6.376 -1.2346 -0.3301  0.8604
18687TIP3    H277477   0.164   4.900   6.504 -2.1862  1.0457  1.0390
18688TIP3   OH277478   5.875   5.756  12.999 -0.8115  0.2916  0.2411
18688TIP3    H177479   5.939   5.733  13.067  0.8657 -0.3840 -1.5038
18688TIP3    H277480   5.794   5.713  13.027  0.2995 -1.3897  0.9877
18689TIP3   OH277481   3.600   5.745   5.317  0.0425 -0.3260  0.0968
18689TIP3    H177482   3.606   5.700   5.233  0.4586  0.0079 -0.0534
18689TIP3    H277483   3.506   5.756   5.332 -0.0829 -1.8304  0.4489
18690TIP3   OH277484   2.024   0.730   4.279  0.4661  0.4684  0.1287
18690TIP3    H177485   2.021   0.702   4.188  0.7395  0.1706  0.2087
18690TIP3    H277486   1.981   0.659   4.327  0.2937  0.6396  0.2284
18691TIP3   OH277487   1.895   6.230  13.138  0.5386 -0.0386  0.2439
18691TIP3    H177488   1.988   6.249  13.146  0.1229  2.3612 -0.0848
18691TIP3    H277489   1.877   6.165  13.206  2.3765 -0.2578  0.5236
18692TIP3   OH277490   0.535   5.741   1.355  0.5372  0.0418 -0.2327
18692TIP3    H177491   0.599   5.812   1.358 -0.6170  1.0328  1.7369
18692TIP3    H277492   0.482   5.753   1.433 -0.4332 -2.3088 -0.4876
18693TIP3   OH277493   2.471   0.276   4.360 -0.7029  0.1079 -0.1585
18693TIP3    H177494   2.476   0.371   4.370  0.7692  0.0293 -0.0800
18693TIP3    H277495   2.466   0.243   4.450 -3.2085  0.1863 -0.2276
18694TIP3   OH277496   6.256   1.102  16.743 -0.8704 -0.1805 -0.0977
18694TIP3    H177497   6.268   1.019  16.790  2.1750  0.3908  0.2314
18694TIP3    H277498   6.250   1.076  16.651 -1.3733 -0.8613  0.1173
18695TIP3   OH277499   2.125   6.761   5.543 -0.5701 -0.1577 -0.1041
18695TIP3    H177500   2.163   6.677   5.518  1.9789  1.4165 -1.7433
18695TIP3    H277501   2.054   6.775   5.481 -3.2153 -2.5541  2.2199
18696TIP3   OH277502   4.378   4.550   0.392  0.3918 -0.9975  0.3537
18696TIP3    H177503   4.349   4.462   0.370  3.6818 -1.8125 -0.9552
18696TIP3    H277504   4.314   4.608   0.351  1.0705 -2.7184 -3.2934
18697TIP3   OH277505   4.227   6.481   0.034  0.1135  0.1566  0.3726
18697TIP3    H177506   4.141   6.451   0.066 -0.1690  1.0004  0.4100
18697TIP3    H277507   4.240   6.565   0.077  0.3324  0.6849 -0.7162
18698TIP3   OH277508   6.029   4.012  12.114 -0.6656  0.1792  1.0117
18698TIP3    H177509   6.057   3.978  12.199 -1.3475  1.0322  1.5866
18698TIP3    H277510   6.087   4.087  12.098 -0.0923 -0.3870  0.4040
18699TIP3   OH277511   2.005   1.356  15.550  0.4922 -0.2120  0.2242
18699TIP3    H177512   2.027   1.321  15.464 -1.4288 -1.0833  0.0659
18699TIP3    H277513   2.020   1.283  15.611 -1.1562 -0.5763  0.2119
18700TIP3   OH277514   1.577   0.556  10.711 -0.0819  0.2967  0.1474
18700TIP3    H177515   1.557   0.647  10.730 -1.5895  0.4468 -2.0312
18700TIP3    H277516   1.619   0.557  10.626 -1.3950 -1.1511 -0.5510
18701TIP3   OH277517   5.872   3.351   2.360 -0.3876  0.2050 -0.1479
18701TIP3    H177518   5.952   3.358   2.411 -0.7734 -0.7744  0.6184
18701TIP3    H277519   5.802   3.345   2.425 -0.7451 -2.6853 -0.7229
18702TIP3   OH277520   2.694   3.036   0.856 -0.0580  0.1933 -0.1828
18702TIP3    H177521   2.631   2.993   0.914  0.0813  1.0172  0.5832
18702TIP3    H277522   2.751   3.086   0.914  0.2430  0.8272 -1.0059
18703TIP3   OH277523   3.901   2.281   2.364  0.2459 -0.1037 -0.8395
18703TIP3    H177524   3.933   2.209   2.418 -0.1848 -0.7331 -1.4102
18703TIP3    H277525   3.808   2.288   2.385  0.7592  1.8584  0.9653
18704TIP3   OH277526   6.055   6.386  16.812  0.0570 -0.3835 -0.2598
18704TIP3    H177527   6.091   6.344  16.890  0.6489 -0.3214 -0.4962
18704TIP3    H277528   6.011   6.316  16.764  0.3006 -0.5621 -0.2210
18705TIP3   OH277529   2.008   5.340   2.370 -0.0831 -0.0710  0.6025
18705TIP3    H177530   1.962   5.351   2.287 -0.5810  0.6082  0.9673
18705TIP3    H277531   2.018   5.245   2.380  1.6697 -0.1081 -1.1599
18706TIP3   OH277532   4.407   5.320   0.678 -0.0071 -0.1489  0.1235
18706TIP3    H177533   4.361   5.246   0.717  0.9104 -1.0405 -0.4674
18706TIP3    H277534   4.337   5.377   0.646 -0.7316 -0.4233  1.1862
18707TIP3   OH277535   2.869   2.539   6.681 -0.7527 -0.1572  0.1313
18707TIP3    H177536   2.829   2.494   6.607 -0.5580 -2.6262  1.4636
18707TIP3    H277537   2.801   2.597   6.714 -0.4094  2.0159 -2.7662
18708TIP3   OH277538   5.871   5.622   4.635 -0.1449  0.0904  0.2390
18708TIP3    H177539   5.786   5.581   4.623  0.5112 -0.8729 -1.2360
18708TIP3    H277540   5.928   5.580   4.570  1.5607  0.4207  1.4813
18709TIP3   OH277541   3.690   2.247  12.866 -0.2852 -0.4622 -0.4818
18709TIP3    H177542   3.597   2.227  12.859 -0.4519  0.3025 -0.5741
18709TIP3    H277543   3.733   2.178  12.816 -0.8681 -0.3212 -1.2031
18710TIP3   OH277544   2.383   6.395  16.447  0.8336  0.4816 -0.5965
18710TIP3    H177545   2.449   6.385  16.516 -1.0865  1.3068  1.4252
18710TIP3    H277546   2.317   6.329  16.468 -1.0637  2.5034 -0.0680
18711TIP3   OH277547   6.511   6.265   2.016 -0.0047  0.0411 -0.1587
18711TIP3    H177548   6.457   6.290   2.090  0.2998 -0.8767  0.3736
18711TIP3    H277549   6.519   6.170   2.022  1.2273  0.1072 -0.5206
18712TIP3   OH277550   0.793   5.343   1.681  0.3369  0.1093 -0.5423
18712TIP3    H177551   0.795   5.363   1.587 -0.0853  1.9592 -0.1618
18712TIP3    H277552   0.832   5.420   1.723 -0.3426 -0.3091  0.8759
18713TIP3   OH277553   1.587   3.512   2.281 -0.5061 -0.2127  0.4080
18713TIP3    H177554   1.680   3.487   2.280 -1.0238 -2.2230  1.1077
18713TIP3    H277555   1.587   3.604   2.253  1.3450 -1.3284 -3.6990
18714TIP3   OH277556   1.539   0.786   2.286  0.2443 -0.3376 -0.4402
18714TIP3    H177557   1.634   0.780   2.273  0.1405 -0.0128 -1.3482
18714TIP3    H277558   1.529   0.843   2.362  0.8767 -2.8996  1.6485
18715TIP3   OH277559   1.050   5.994  17.053 -0.1112 -0.0813 -0.0418
18715TIP3    H177560   1.138   5.957  17.058 -0.6051 -1.6859 -2.2051
18715TIP3    H277561   1.055   6.076  17.102  2.8667  0.3600 -0.9739
18716TIP3   OH277562   2.726   5.360  16.190  0.0030  0.2643  0.1460
18716TIP3    H177563   2.779   5.405  16.256  1.4386 -1.3453  0.1308
18716TIP3    H277564   2.688   5.430  16.137  0.9433  1.4904  1.0742
18717TIP3   OH277565   0.081   3.091   6.023  0.4963 -0.7004 -0.3315
18717TIP3    H177566   0.164   3.057   6.055  1.0901 -1.1147 -2.2396
18717TIP3    H277567   0.031   3.113   6.102  3.1412  1.3476  0.8385
18718TIP3   OH277568   2.536   4.169  12.935 -0.1259 -0.7162 -0.2471
18718TIP3    H177569   2.535   4.191  12.842 -2.5357  0.5350  0.0134
18718TIP3    H277570   2.628   4.167  12.958  0.4540  1.4855 -2.1153
18719TIP3   OH277571   4.921   6.514   3.256  0.6554 -0.1367  0.2605
18719TIP3    H177572   4.994   6.460   3.226  2.2639  0.6558  2.5615
18719TIP3    H277573   4.862   6.519   3.181  2.5635 -1.4972 -1.3863
18720TIP3   OH277574   3.214   6.691  15.985  0.4670  0.3872 -0.2965
18720TIP3    H177575   3.120   6.698  15.999  0.9269  2.4922  2.0571
18720TIP3    H277576   3.251   6.686  16.073  2.5432 -1.0104 -1.2019
18721TIP3   OH277577   3.069   2.122  12.041  0.1322  0.1786 -0.4582
18721TIP3    H177578   3.134   2.158  12.101 -0.7713  0.6453  0.2630
18721TIP3    H277579   3.028   2.199  12.001  0.8372 -0.1290 -1.8200
18722TIP3   OH277580   5.113   5.361  15.150 -0.1952  0.3122  0.1791
18722TIP3    H177581   5.178   5.393  15.213  1.3105 -3.1368  0.4876
18722TIP3    H277582   5.164   5.340  15.071 -1.2198 -0.5966 -0.2539
18723TIP3   OH277583   3.341   5.486  14.945 -0.1647 -0.1201 -0.1732
18723TIP3    H177584   3.246   5.487  14.946 -0.1905 -1.2974 -0.4959
18723TIP3    H277585   3.366   5.457  15.033 -0.1933 -2.7806 -0.9860
18724TIP3   OH277586   5.700   4.561  15.175  0.0318  0.6316 -0.6021
18724TIP3    H177587   5.740   4.495  15.118 -0.9213 -0.6804  0.2082
18724TIP3    H277588   5.749   4.641  15.158  0.4285  0.0044 -2.4938
18725TIP3   OH277589   2.575   2.627   4.690 -0.0172  0.9079  0.2838
18725TIP3    H177590   2.624   2.610   4.609 -0.3500  0.3627  0.1952
18725TIP3    H277591   2.500   2.679   4.662 -1.0936 -0.8065 -0.0252
18726TIP3   OH277592   6.625   6.722  16.095 -0.1724  0.2087 -0.4588
18726TIP3    H177593   6.547   6.682  16.134 -0.2163  0.1305 -0.6250
18726TIP3    H277594   6.591   6.796  16.045  0.0168  1.0857  0.7019
18727TIP3   OH277595   6.251   2.450  12.304  0.3648 -0.4845 -0.1427
18727TIP3    H177596   6.326   2.390  12.306  1.0620  0.3895  1.8099
18727TIP3    H277597   6.227   2.460  12.396 -1.6336 -0.0906 -0.6942
18728TIP3   OH277598   5.668   3.595  13.376 -0.1067  0.0746 -0.1306
18728TIP3    H177599   5.615   3.515  13.384  0.1599 -0.1377 -0.4328
18728TIP3    H277600   5.604   3.665  13.366 -0.3298 -0.2472 -1.0427
18729TIP3   OH277601   1.527   6.741   3.942  0.6212  0.4705 -0.0066
18729TIP3    H177602   1.449   6.747   3.886  1.9836 -0.7549 -2.1158
18729TIP3    H277603   1.519   6.655   3.984  1.1542  0.0455 -0.7575
18730TIP3   OH277604   4.282   1.257  14.308  0.2181  0.1483 -0.1755
18730TIP3    H177605   4.210   1.244  14.370 -0.2161  0.1993 -0.6636
18730TIP3    H277606   4.361   1.235  14.357 -0.1494 -0.0781  0.3105
18731TIP3   OH277607   4.354   5.662   0.250  0.7544 -0.0866 -0.1012
18731TIP3    H177608   4.386   5.712   0.325 -1.5164 -0.4352  1.1549
18731TIP3    H277609   4.266   5.635   0.276  1.0254 -2.6620 -1.7518
18732TIP3   OH277610   6.274   4.019   4.531 -0.5064 -0.2606  0.0137
18732TIP3    H177611   6.231   4.050   4.452 -1.9293  0.2207  0.9685
18732TIP3    H277612   6.206   3.974   4.580  0.6456 -1.5879  0.4307
18733TIP3   OH277613   0.052   5.059   4.985 -0.4055  0.0856  0.2657
18733TIP3    H177614   0.110   5.130   4.956 -1.0240  0.7859  0.7483
18733TIP3    H277615   0.072   5.049   5.078 -0.8132  0.0884  0.3511
18734TIP3   OH277616   2.564   6.630  14.042  0.7216 -0.2917  0.0097
18734TIP3    H177617   2.589   6.538  14.055 -0.9947 -0.6135  1.0815
18734TIP3    H277618   2.518   6.631  13.959  0.5873 -0.4349  0.0823
18735TIP3   OH277619   2.286   4.241  15.934 -0.2369  0.0313  0.6955
18735TIP3    H177620   2.225   4.202  15.995  0.2424  0.5711  1.5282
18735TIP3    H277621   2.372   4.232  15.976  0.0510  0.7170  0.2730
18736TIP3   OH277622   0.042   4.351  15.369  0.5965 -0.0751  0.2078
18736TIP3    H177623   0.129   4.347  15.330  0.5028  0.2078 -0.0340
18736TIP3    H277624   0.002   4.428  15.329 -0.0437 -0.6404 -0.2402
18737TIP3   OH277625   1.403   0.335   3.985 -0.4452 -0.0389 -0.2140
18737TIP3    H177626   1.366   0.282   4.055  1.1595  0.5086  1.0746
18737TIP3    H277627   1.480   0.377   4.024 -1.4034  2.8985 -1.3081
18738TIP3   OH277628   4.612   5.195  14.864 -0.5186 -0.3171  0.1423
18738TIP3    H177629   4.701   5.224  14.881  0.5503 -1.6226 -2.9233
18738TIP3    H277630   4.579   5.166  14.950  2.0805 -0.1113  1.2456
18739TIP3   OH277631   4.013   1.431  12.898 -0.2223  0.1219  0.0236
18739TIP3    H177632   3.965   1.483  12.963 -0.4844 -0.9916  0.7363
18739TIP3    H277633   3.957   1.356  12.881  0.3980 -0.2120 -0.6023
18740TIP3   OH277634   5.509   4.324   4.081  0.1084 -0.0337 -0.0572
18740TIP3    H177635   5.484   4.416   4.071  1.0316  0.1535 -0.7316
18740TIP3    H277636   5.427   4.276   4.078 -0.3784  0.7697  0.2711
18741TIP3   OH277637   3.935   4.362  15.943 -0.1722  0.5403 -0.3508
18741TIP3    H177638   3.968   4.373  16.032 -0.1162  1.6044 -0.5027
18741TIP3    H277639   3.985   4.424  15.890 -0.1661 -0.1242 -1.1388
18742TIP3   OH277640   0.894   1.574  16.660  0.1772 -0.2500 -0.1936
18742TIP3    H177641   0.955   1.501  16.676  2.1390  1.2441 -0.7607
18742TIP3    H277642   0.938   1.651  16.696 -0.8521  1.0651 -1.6809
18743TIP3   OH277643   6.284   5.582   4.155 -0.1359  0.2315 -0.2336
18743TIP3    H177644   6.347   5.635   4.105  1.0156 -1.4300 -0.5953
18743TIP3    H277645   6.322   5.577   4.243  0.7864 -1.5706 -0.6962
18744TIP3   OH277646   4.298   6.759  15.717  0.6187  0.3039 -0.3487
18744TIP3    H177647   4.223   6.732  15.663 -0.3483  0.8391  0.7005
18744TIP3    H277648   4.325   6.679  15.762  1.4223 -0.1419 -1.6100
18745TIP3   OH277649   0.279   1.630   3.216 -0.0379  0.1729 -0.0519
18745TIP3    H177650   0.309   1.680   3.292  0.0539  0.9193 -0.5723
18745TIP3    H277651   0.247   1.697   3.155  0.9007 -0.3525 -1.1128
18746TIP3   OH277652   0.688   5.311  14.429 -0.1770  0.1514 -0.3587
18746TIP3    H177653   0.724   5.351  14.350  0.8151 -1.0070 -0.4994
18746TIP3    H277654   0.630   5.242  14.396  1.3533 -1.2981 -0.0783
18747TIP3   OH277655   4.790   4.976   5.714  0.1926  0.0383 -0.5996
18747TIP3    H177656   4.802   5.053   5.658 -1.3869  0.7494 -0.0053
18747TIP3    H277657   4.722   4.925   5.670 -0.7802  0.4085  0.4500
18748TIP3   OH277658   0.888   1.334   2.519  0.2024 -0.2906 -0.2026
18748TIP3    H177659   0.922   1.252   2.555 -1.1846 -0.2020  1.3521
18748TIP3    H277660   0.958   1.398   2.535  1.6310 -1.3081 -2.1567
18749TIP3   OH277661   0.752   0.761  12.324  0.9528 -0.1503 -0.5650
18749TIP3    H177662   0.670   0.803  12.298 -0.4017 -2.4439 -0.1449
18749TIP3    H277663   0.779   0.711  12.247  0.3409 -1.7967  0.2643
18750TIP3   OH277664   2.047   1.216  16.452 -0.2619 -0.4212  0.4152
18750TIP3    H177665   1.988   1.168  16.394 -0.5529 -0.4377  0.7262
18750TIP3    H277666   2.000   1.221  16.536  0.0684 -0.2172  0.5896
18751TIP3   OH277667   5.782   1.177   5.437  0.3949  0.0187 -0.3012
18751TIP3    H177668   5.798   1.268   5.411 -0.9672 -0.2200 -2.0558
18751TIP3    H277669   5.857   1.129   5.402 -0.2619  0.0632 -1.8075
18752TIP3   OH277670   3.168   0.126   3.985 -0.2754  0.1332 -0.0629
18752TIP3    H177671   3.174   0.041   3.941  1.7626  0.4207 -0.3643
18752TIP3    H277672   3.155   0.104   4.078 -0.9819 -0.4945 -0.3074
18753TIP3   OH277673   1.741   5.835   3.400 -0.1289  0.2776  0.1352
18753TIP3    H177674   1.775   5.789   3.324 -1.9382 -0.5123 -0.2236
18753TIP3    H277675   1.796   5.806   3.473  0.4065 -0.4213 -0.5400
18754TIP3   OH277676   6.396   4.514  15.966  0.2422  0.5856 -0.6356
18754TIP3    H177677   6.399   4.419  15.954  1.2039  0.6685 -1.1294
18754TIP3    H277678   6.358   4.526  16.052  0.0518 -0.2532 -0.5947
18755TIP3   OH277679   0.588   0.905  16.812  0.3332 -0.0805  0.1961
18755TIP3    H177680   0.609   0.830  16.757 -0.0558  0.3597 -0.5693
18755TIP3    H277681   0.498   0.891  16.840 -0.0720  0.5787 -0.7511
18756TIP3   OH277682   2.470   0.745   6.389 -0.1519  0.2546  0.6031
18756TIP3    H177683   2.400   0.797   6.349 -1.9468 -2.2166  0.4242
18756TIP3    H277684   2.550   0.774   6.344 -1.2431  1.9979 -0.2880
18757TIP3   OH277685   4.262   3.779   6.128 -0.4022  0.0274  0.3039
18757TIP3    H177686   4.173   3.766   6.161 -0.9049  0.4036 -0.9022
18757TIP3    H277687   4.317   3.773   6.206 -1.5386  0.3909  1.1464
18758TIP3   OH277688   1.438   2.423   5.905 -0.6882  0.5155 -0.1062
18758TIP3    H177689   1.526   2.439   5.939 -0.4114 -1.2439  0.0958
18758TIP3    H277690   1.380   2.441   5.978 -0.4436  1.0404 -0.0414
18759TIP3   OH277691   4.838   2.681  11.471  0.0570 -0.0624 -0.0688
18759TIP3    H177692   4.778   2.632  11.415  0.8248 -2.5359  1.2130
18759TIP3    H277693   4.925   2.649  11.448  0.5126  0.1292  1.3668
18760TIP3   OH277694   1.132   0.580   2.848 -0.3486 -0.0460 -1.3335
18760TIP3    H177695   1.128   0.581   2.944  0.0476 -2.5545 -1.2663
18760TIP3    H277696   1.053   0.628   2.821 -0.3245  0.9300  0.2241
18761TIP3   OH277697   1.860   0.764   0.024  0.4871  0.5608  0.3610
18761TIP3    H177698   1.911   0.845   0.023 -0.1171  0.9451  0.3112
18761TIP3    H277699   1.824   0.760   0.113  1.1206 -0.0358  0.5968
18762TIP3   OH277700   3.495   6.099   3.753 -0.3971  0.3857  0.0781
18762TIP3    H177701   3.530   6.168   3.809 -0.7738 -0.0180  0.8147
18762TIP3    H277702   3.570   6.070   3.701  0.4064 -0.4807  1.6599
18763TIP3   OH277703   4.276   0.258   4.719  0.1254  0.0182 -0.2816
18763TIP3    H177704   4.293   0.335   4.664  2.6115 -0.3722 -0.1015
18763TIP3    H277705   4.186   0.234   4.697 -0.3315  2.3131 -1.1524
18764TIP3   OH277706   5.400   6.576  15.298 -0.1334  0.1932 -0.7055
18764TIP3    H177707   5.350   6.494  15.301 -0.6623  0.4265 -2.4529
18764TIP3    H277708   5.365   6.629  15.369 -1.3622 -0.2353 -0.9822
18765TIP3   OH277709   2.045   0.640  11.608 -0.3177  0.0913 -0.3614
18765TIP3    H177710   1.979   0.615  11.543 -0.3683 -0.6805 -0.0239
18765TIP3    H277711   2.054   0.562  11.664  0.5457  0.3508 -0.1295
18766TIP3   OH277712   1.368   4.379  15.598 -0.4532  0.5408 -0.2314
18766TIP3    H177713   1.312   4.315  15.552 -0.4243 -0.8914  1.6725
18766TIP3    H277714   1.309   4.420  15.661  0.0541  0.8460  0.0368
18767TIP3   OH277715   1.480   3.343  13.440 -0.1693  0.3528 -0.1209
18767TIP3    H177716   1.437   3.324  13.523 -0.0318  0.1391 -0.0981
18767TIP3    H277717   1.561   3.292  13.443  0.0370  0.6741 -0.2049
18768TIP3   OH277718   3.615   1.712  13.446 -0.2522 -0.1895 -0.0445
18768TIP3    H177719   3.685   1.668  13.493  1.0051 -0.4271 -2.1115
18768TIP3    H277720   3.583   1.647  13.383  0.5255  1.2808 -2.0020
18769TIP3   OH277721   2.189   6.479   5.937  0.7131  0.0891  0.0372
18769TIP3    H177722   2.095   6.469   5.921  0.7469 -0.2985  0.0852
18769TIP3    H277723   2.228   6.475   5.850  0.6903  0.2198  0.0204
18770TIP3   OH277724   5.882   3.388  13.982 -0.1397 -0.4760 -0.3452
18770TIP3    H177725   5.897   3.295  13.965  0.3711 -0.6042  0.7657
18770TIP3    H277726   5.920   3.433  13.906  0.4576 -1.1282 -0.4367
18771TIP3   OH277727   5.969   2.377   3.511  0.1673  0.0046 -0.7813
18771TIP3    H177728   5.948   2.296   3.558  1.4680  0.1671  0.0912
18771TIP3    H277729   6.034   2.351   3.446  0.5851  0.3483 -0.5010
18772TIP3   OH277730   3.705   6.468   4.412  0.2269 -0.0983 -0.0406
18772TIP3    H177731   3.748   6.550   4.386  0.0372 -0.5181 -1.7392
18772TIP3    H277732   3.632   6.459   4.351  0.5568 -1.7903 -0.1864
18773TIP3   OH277733   0.543   0.679   0.837  0.1911 -0.2040 -0.1206
18773TIP3    H177734   0.456   0.657   0.869  0.3001  1.4476  1.3681
18773TIP3    H277735   0.540   0.774   0.823  1.9987 -0.0109  0.7113
18774TIP3   OH277736   0.603   3.390  17.114 -0.7081 -0.2684 -0.6451
18774TIP3    H177737   0.637   3.480  17.110  1.0363 -0.8771 -0.2182
18774TIP3    H277738   0.611   3.357  17.025  1.0388 -0.8157 -0.3062
18775TIP3   OH277739   4.868   4.226   1.888 -0.0897  0.4755 -0.3756
18775TIP3    H177740   4.837   4.243   1.977 -0.1306 -3.7169  0.5030
18775TIP3    H277741   4.963   4.217   1.897  0.0707  1.4682 -1.0190
18776TIP3   OH277742   5.344   5.362  15.838 -0.5305  0.1479  0.2160
18776TIP3    H177743   5.422   5.402  15.876  0.2288 -2.2143  1.2533
18776TIP3    H277744   5.314   5.426  15.773  1.1176  1.9689  1.1708
18777TIP3   OH277745   6.005   6.338  11.472 -0.7968  0.9881 -0.2460
18777TIP3    H177746   6.095   6.348  11.442  0.0439 -1.3134  1.3914
18777TIP3    H277747   5.981   6.249  11.446 -1.2761  0.2330  2.6478
18778TIP3   OH277748   4.172   5.886   6.071  0.2528 -0.2531 -0.7945
18778TIP3    H177749   4.099   5.847   6.023  0.9633 -0.2827 -1.8788
18778TIP3    H277750   4.206   5.815   6.126 -0.8141 -0.1122  0.0551
18779TIP3   OH277751   3.550   6.423   4.173  0.4164  0.1210 -0.1479
18779TIP3    H177752   3.514   6.435   4.085 -0.7906  2.4830  0.6421
18779TIP3    H277753   3.563   6.328   4.180 -1.2611 -0.3089 -2.1784
18780TIP3   OH277754   2.313   3.366   4.542  0.2254 -0.2377  0.2093
18780TIP3    H177755   2.279   3.276   4.542 -0.2074 -0.0896 -1.5465
18780TIP3    H277756   2.408   3.355   4.542  0.1776 -0.7125 -1.0451
18781TIP3   OH277757   6.118   1.553  15.374  0.6815 -0.3989  0.4099
18781TIP3    H177758   6.130   1.554  15.279  0.1672 -2.2220  0.3138
18781TIP3    H277759   6.193   1.601  15.408  0.2909  1.2321 -0.9697
18782TIP3   OH277760   5.411   2.846   1.625  1.0989  0.2039 -0.0892
18782TIP3    H177761   5.325   2.880   1.602  1.1780 -0.3917 -1.2897
18782TIP3    H277762   5.420   2.864   1.719 -0.9933 -1.1691  0.3817
18783TIP3   OH277763   1.481   0.413   4.731 -0.2493  0.2550 -0.4224
18783TIP3    H177764   1.414   0.480   4.718 -1.7569 -0.9764  0.8705
18783TIP3    H277765   1.542   0.426   4.658 -0.6819  2.8082 -0.3665
18784TIP3   OH277766   3.506   0.869   3.922  0.5512  0.6443 -0.0145
18784TIP3    H177767   3.599   0.846   3.919  0.6405  0.8983  0.6833
18784TIP3    H277768   3.504   0.953   3.969 -0.1522 -0.0535  1.2206
18785TIP3   OH277769   3.949   0.606   2.410 -0.4435 -0.0124  0.2880
18785TIP3    H177770   3.986   0.521   2.385 -1.1018 -0.4614  0.8046
18785TIP3    H277771   4.025   0.662   2.425 -0.0348  0.0990 -2.0750
18786TIP3   OH277772   0.201   1.391  15.416 -0.3973 -0.7345 -0.4008
18786TIP3    H177773   0.241   1.474  15.443 -2.0363  1.0112 -3.1508
18786TIP3    H277774   0.117   1.389  15.461  0.4362 -1.8804  1.1780
18787TIP3   OH277775   3.305   4.575   2.898 -0.1497  0.6670 -0.3931
18787TIP3    H177776   3.281   4.539   2.813  1.6829 -0.4741 -0.4475
18787TIP3    H277777   3.263   4.516   2.961 -0.2390  0.6161 -0.4997
18788TIP3   OH277778   5.323   2.914   4.258 -0.3605  0.3028  0.1622
18788TIP3    H177779   5.362   2.972   4.324 -0.7831  1.2319 -0.3901
18788TIP3    H277780   5.247   2.962   4.226 -1.2622 -0.9811  0.3669
18789TIP3   OH277781   1.017   0.041  14.654 -0.0864  0.4707 -0.4549
18789TIP3    H177782   1.032   0.096  14.578 -0.2882  0.7759 -0.2779
18789TIP3    H277783   1.079   0.073  14.719  0.7109 -0.3828 -0.7890
18790TIP3   OH277784   6.210   5.872  14.075  0.1002 -0.3190 -0.0009
18790TIP3    H177785   6.155   5.871  14.153 -1.5180 -0.4212 -1.1143
18790TIP3    H277786   6.194   5.957  14.035  0.5171 -0.4705 -0.4982
18791TIP3   OH277787   1.579   3.691  13.317  0.0745 -0.5163 -0.8896
18791TIP3    H177788   1.585   3.710  13.223  0.9377 -1.0933 -0.9621
18791TIP3    H277789   1.485   3.687  13.335 -0.1180 -2.0658 -2.0940
18792TIP3   OH277790   1.165   1.412   2.988  0.5151 -0.3386 -0.9491
18792TIP3    H177791   1.255   1.378   2.993  0.1746 -1.2678 -0.9668
18792TIP3    H277792   1.119   1.367   3.059  0.8832  2.7120  1.3021
18793TIP3   OH277793   1.829   3.559  17.165 -0.4928  0.3985 -0.5530
18793TIP3    H177794   1.804   3.594  17.250  0.8403 -1.4888  0.6674
18793TIP3    H277795   1.754   3.577  17.109 -1.7424  0.9358  1.2317
18794TIP3   OH277796   2.781   4.002   3.195 -0.5685  0.0721 -0.3771
18794TIP3    H177797   2.797   3.917   3.155  0.2082 -1.0986  2.2860
18794TIP3    H277798   2.869   4.036   3.215 -0.9213  0.8088 -0.0418
18795TIP3   OH277799   5.762   3.818  12.586  0.4525 -0.2927  0.2344
18795TIP3    H177800   5.671   3.844  12.577  0.3194 -0.7560  0.2583
18795TIP3    H277801   5.776   3.810  12.681  0.8008  0.7890  0.2831
18796TIP3   OH277802   6.415   2.231  12.272 -0.2816 -0.1097  0.5652
18796TIP3    H177803   6.495   2.244  12.323  0.1556 -1.5633  0.2994
18796TIP3    H277804   6.408   2.135  12.263 -1.6946  0.0281  0.0256
18797TIP3   OH277805   4.488   1.423  14.768  0.3942  0.8244  0.5104
18797TIP3    H177806   4.512   1.354  14.830 -0.6315 -0.1710 -0.1760
18797TIP3    H277807   4.511   1.505  14.813  0.6821  0.0804  1.7511
18798TIP3   OH277808   5.359   0.801  10.592 -0.2463  0.4651  0.0448
18798TIP3    H177809   5.416   0.847  10.531  1.3564  1.2143  2.0526
18798TIP3    H277810   5.319   0.732  10.539  2.8315 -0.3482 -1.3209
18799TIP3   OH277811   6.035   4.435  15.808 -0.2580  0.5029 -0.2205
18799TIP3    H177812   5.970   4.448  15.739 -0.0451 -1.1552 -0.7576
18799TIP3    H277813   5.998   4.479  15.885 -1.2605  0.9321 -0.9375
18800TIP3   OH277814   3.235   4.648   0.233 -0.2977  0.0398  0.2855
18800TIP3    H177815   3.322   4.611   0.248  0.7187  1.9736 -0.5978
18800TIP3    H277816   3.188   4.634   0.314  0.6820 -1.4833  0.6062
18801TIP3   OH277817   3.078   5.916  16.836 -0.1353 -0.1757  0.2601
18801TIP3    H177818   3.088   5.993  16.779 -0.7344 -2.2361 -2.7589
18801TIP3    H277819   2.994   5.930  16.881  0.3880  1.5394  0.7251
18802TIP3   OH277820   4.159   2.947   5.167 -0.1892  0.3676 -0.5147
18802TIP3    H177821   4.123   2.942   5.256 -0.4139 -0.8314 -0.6623
18802TIP3    H277822   4.115   3.022   5.128  1.8719  2.5665  1.2411
18803TIP3   OH277823   2.398   1.448  13.968  0.0968 -0.1070 -0.2136
18803TIP3    H177824   2.357   1.473  13.886  1.1414  0.8299 -0.4765
18803TIP3    H277825   2.481   1.408  13.942  1.0977  1.5132  0.4091
18804TIP3   OH277826   2.103   2.760  12.092  0.0493  0.1908  0.4055
18804TIP3    H177827   2.108   2.753  11.997  3.2557  3.1391  0.2309
18804TIP3    H277828   2.092   2.854  12.109 -2.3879 -0.4865  2.9363
18805TIP3   OH277829   3.455   5.491   2.741 -0.2739 -0.6981  0.5045
18805TIP3    H177830   3.505   5.542   2.677 -0.5689 -0.0777  0.7722
18805TIP3    H277831   3.383   5.453   2.690  0.0724 -1.0389  0.2606
18806TIP3   OH277832   0.670   5.908   9.951 -0.5009  0.0704 -0.1817
18806TIP3    H177833   0.694   5.976  10.014 -0.8678  0.6312 -0.6344
18806TIP3    H277834   0.752   5.866   9.928 -0.3785 -0.2041  0.7438
18807TIP3   OH277835   2.084   1.986   6.609 -0.2300 -0.1722  0.1260
18807TIP3    H177836   2.074   1.901   6.567 -2.2642 -0.6394  1.4928
18807TIP3    H277837   2.006   2.035   6.583  0.6919  1.1300 -0.2599
18808TIP3   OH277838   3.050   1.158  14.387 -0.0706  0.1003  0.1022
18808TIP3    H177839   2.954   1.151  14.385 -0.2069  1.5481  1.2571
18808TIP3    H277840   3.069   1.203  14.468  1.5186  1.3530 -0.9424
18809TIP3   OH277841   3.556   3.898  14.850  0.1222 -0.0598 -0.0949
18809TIP3    H177842   3.493   3.932  14.786  0.5902  0.0281 -0.5134
18809TIP3    H277843   3.640   3.897  14.803  0.8965  1.9818  1.1639
18810TIP3   OH277844   6.315   4.333   3.036  0.1250 -0.6251  0.0076
18810TIP3    H177845   6.332   4.323   2.942 -0.7755  1.3208 -0.3788
18810TIP3    H277846   6.223   4.310   3.046  0.0531 -0.2010  0.3110
18811TIP3   OH277847   3.253   6.317  10.700 -0.2511 -0.5223 -0.9862
18811TIP3    H177848   3.328   6.368  10.669  0.6205 -1.2217 -0.0773
18811TIP3    H277849   3.184   6.382  10.712  1.1534  0.6716  1.1441
18812TIP3   OH277850   3.825   5.345   0.019 -0.1549 -0.2746  0.0652
18812TIP3    H177851   3.847   5.281   0.087 -0.8237 -0.5130  0.0627
18812TIP3    H277852   3.901   5.403   0.016  0.4922 -1.1127  0.0147
18813TIP3   OH277853   0.843   2.004  11.241 -0.5082  0.7271 -0.0424
18813TIP3    H177854   0.867   1.998  11.149 -1.5574  0.2030 -0.2822
18813TIP3    H277855   0.859   1.917  11.277 -0.1658  0.9112  0.2596
18814TIP3   OH277856   2.836   4.675   4.944  0.4765 -0.3698 -0.1526
18814TIP3    H177857   2.915   4.699   4.894  1.5239  1.7413  2.3569
18814TIP3    H277858   2.812   4.756   4.989 -1.1497 -1.8666  1.7494
18815TIP3   OH277859   5.657   2.083   4.744  0.0686 -0.4929 -0.4154
18815TIP3    H177860   5.748   2.053   4.746 -0.6023 -2.5952 -0.1419
18815TIP3    H277861   5.629   2.067   4.653 -0.9286 -2.7570  0.2480
18816TIP3   OH277862   2.475   5.814  16.736 -0.0286 -0.5216  0.0974
18816TIP3    H177863   2.512   5.890  16.692 -0.4163  1.3171  2.8529
18816TIP3    H277864   2.402   5.787  16.679  1.2673 -0.0008 -1.8497
18817TIP3   OH277865   5.279   2.443  13.502  0.3827  0.0162  0.1958
18817TIP3    H177866   5.246   2.361  13.538 -0.9379  1.4579  2.3383
18817TIP3    H277867   5.201   2.493  13.478  1.1138  1.4938  0.8218
18818TIP3   OH277868   2.832   3.745   2.439  0.2315  0.7677  0.1504
18818TIP3    H177869   2.772   3.816   2.417 -0.0706  0.3258 -0.4827
18818TIP3    H277870   2.903   3.752   2.376  0.4230  0.7760  0.3656
18819TIP3   OH277871   1.882   3.290  17.214 -0.1658  0.2422 -0.2541
18819TIP3    H177872   1.963   3.262  17.172 -0.2898 -1.5347  0.6346
18819TIP3    H277873   1.877   3.384  17.196  2.6378  0.6177  0.5680
18820TIP3   OH277874   6.254   0.853  16.900  0.1129  0.7975  0.5513
18820TIP3    H177875   6.178   0.854  16.958 -1.1606  2.0849 -1.0815
18820TIP3    H277876   6.271   0.760  16.885 -1.7546  0.4743  0.2065
18821TIP3   OH277877   5.553   1.104   3.119  0.4111 -0.2264 -0.0510
18821TIP3    H177878   5.617   1.128   3.052  0.5407  1.5140  0.6720
18821TIP3    H277879   5.563   1.170   3.187 -0.7631 -1.1036  1.0093
18822TIP3   OH277880   2.565   4.745   4.858 -0.1691 -0.1065  0.0047
18822TIP3    H177881   2.567   4.681   4.786 -0.1845  0.2535 -0.3215
18822TIP3    H277882   2.654   4.743   4.894 -0.0021  0.1187 -0.3914
18823TIP3   OH277883   3.550   2.015   2.527  0.1515  0.7418 -0.7614
18823TIP3    H177884   3.460   2.021   2.559  0.8193  0.2818  1.2539
18823TIP3    H277885   3.541   1.990   2.435 -1.7438 -1.8862  0.0825
18824TIP3   OH277886   2.137   1.933   5.280  0.1003  0.2878 -0.1221
18824TIP3    H177887   2.203   1.910   5.215  0.7318 -0.7551  0.8761
18824TIP3    H277888   2.154   1.875   5.354  0.1086  2.2404  1.4544
18825TIP3   OH277889   0.317   6.489  14.799 -0.1110 -0.1260 -0.0919
18825TIP3    H177890   0.250   6.475  14.732 -0.1690 -1.3853  0.2208
18825TIP3    H277891   0.277   6.551  14.861 -1.2346 -1.3657  0.4327
18826TIP3   OH277892   2.353   2.645  13.976 -0.1007  0.7576  0.5937
18826TIP3    H177893   2.344   2.582  14.047  0.0711  1.2534  1.0658
18826TIP3    H277894   2.332   2.729  14.017  0.8484  1.1592  0.2691
18827TIP3   OH277895   2.752   3.501   5.745 -0.1671  0.1945 -0.2230
18827TIP3    H177896   2.666   3.489   5.785 -1.3316  1.0551 -2.3935
18827TIP3    H277897   2.794   3.570   5.797 -1.3291  0.7408 -0.0056
18828TIP3   OH277898   4.293   1.945  15.716 -0.0901 -0.0483  0.3530
18828TIP3    H177899   4.275   1.903  15.800  0.5334  0.3774  0.7033
18828TIP3    H277900   4.315   1.872  15.658 -0.9325 -0.3853  0.4408
18829TIP3   OH277901   0.013   3.096  15.941  0.1015 -0.0299 -0.5468
18829TIP3    H177902   0.087   3.062  15.890  0.4986 -0.6088  0.3830
18829TIP3    H277903  -0.011   3.023  15.999 -0.1203  0.7189  0.3166
18830TIP3   OH277904   2.851   0.409   2.483  0.2908 -0.1404 -0.1413
18830TIP3    H177905   2.781   0.393   2.546 -0.2019 -1.6141 -1.0365
18830TIP3    H277906   2.931   0.385   2.530  0.0854  0.3114  0.4474
18831TIP3   OH277907   0.204   4.619   0.760  0.3008 -0.1460 -0.5129
18831TIP3    H177908   0.296   4.619   0.731 -0.4403 -0.2917 -2.9142
18831TIP3    H277909   0.159   4.561   0.700 -1.2751 -0.6292  1.0842
18832TIP3   OH277910   0.968   6.041   5.049 -1.4351  0.1866  0.1477
18832TIP3    H177911   0.978   5.971   4.984 -0.7047  2.7920 -2.6388
18832TIP3    H277912   0.874   6.044   5.066 -1.7205 -0.1277 -1.2752
18833TIP3   OH277913   3.555   0.767   5.562 -0.3774 -0.0062  0.0292
18833TIP3    H177914   3.523   0.771   5.472 -0.6606 -0.1643  0.1207
18833TIP3    H277915   3.647   0.792   5.556 -0.4356  0.1389 -0.2819
18834TIP3   OH277916   1.797   3.311   3.871  0.3575 -0.3474  0.0979
18834TIP3    H177917   1.877   3.354   3.841  0.2266  0.4121  0.8079
18834TIP3    H277918   1.765   3.367   3.943 -1.2302 -0.2036 -0.6863
18835TIP3   OH277919   5.957   2.015  17.000 -0.2182  0.6134  0.0644
18835TIP3    H177920   5.866   2.017  17.030 -0.8063  1.8319 -1.7211
18835TIP3    H277921   6.008   2.045  17.075 -1.4840  1.8040  0.4637
18836TIP3   OH277922   3.859   6.619  12.072  0.4672 -0.4585  0.0259
18836TIP3    H177923   3.860   6.675  12.151 -1.7082 -0.5960  0.1668
18836TIP3    H277924   3.875   6.531  12.105  0.1872 -0.4289  0.2418
18837TIP3   OH277925   1.394   2.947   3.325  0.2500  0.1295  0.1924
18837TIP3    H177926   1.305   2.935   3.359 -1.1999  1.5198 -2.8942
18837TIP3    H277927   1.444   2.978   3.400 -2.8928  3.5122  1.0850
18838TIP3   OH277928   4.423   6.416  14.382  0.8625 -0.4232  0.7941
18838TIP3    H177929   4.384   6.384  14.463  0.3457 -1.0968  0.2911
18838TIP3    H277930   4.506   6.371  14.375  1.2363  0.1751  1.3057
18839TIP3   OH277931   0.558   1.850   2.092 -0.1053 -0.0369  0.0233
18839TIP3    H177932   0.601   1.935   2.083  0.7815 -0.2567  2.0473
18839TIP3    H277933   0.578   1.804   2.010  0.3215  1.2794 -0.6220
18840TIP3   OH277934   0.143   2.991   4.584 -0.1177 -0.1626  0.0374
18840TIP3    H177935   0.191   2.957   4.509  0.2131  1.4172 -0.4841
18840TIP3    H277936   0.131   3.085   4.565 -2.1148 -0.2189  0.8298
18841TIP3   OH277937   2.443   5.605  13.981  0.1035 -0.1562 -0.2344
18841TIP3    H177938   2.494   5.639  14.055 -0.9596  0.6277  0.1589
18841TIP3    H277939   2.477   5.652  13.905  1.5833 -1.3731 -0.3443
18842TIP3   OH277940   2.852   0.304  12.383 -0.3080  0.3647  0.4097
18842TIP3    H177941   2.811   0.238  12.327 -1.2541  0.8742  0.4849
18842TIP3    H277942   2.778   0.347  12.427  0.2118  2.2027 -0.4566
18843TIP3   OH277943   0.589   1.236   4.366 -0.2394  0.3666 -0.1214
18843TIP3    H177944   0.555   1.315   4.408  0.6924 -1.0858  3.6203
18843TIP3    H277945   0.682   1.235   4.389 -0.4251 -2.2149  0.6530
18844TIP3   OH277946   4.171   2.232   2.464 -0.4178  0.1727 -0.2027
18844TIP3    H177947   4.114   2.303   2.435  2.0834  2.1466 -0.4553
18844TIP3    H277948   4.153   2.223   2.557 -1.7673  0.1235 -0.4490
18845TIP3   OH277949   5.594   3.578  16.625 -0.1984  0.3840  0.1242
18845TIP3    H177950   5.631   3.578  16.537 -0.5395 -1.9292 -0.0684
18845TIP3    H277951   5.669   3.591  16.683  0.4100 -0.6387 -0.4129
18846TIP3   OH277952   6.268   4.854  13.094  0.4500  0.3482 -0.2324
18846TIP3    H177953   6.209   4.782  13.073  0.3086  0.4398 -0.1496
18846TIP3    H277954   6.226   4.931  13.057  1.1232  0.2340 -1.2451
18847TIP3   OH277955   0.789   4.952  16.490 -0.2543 -0.4404  0.3215
18847TIP3    H177956   0.734   4.976  16.565  1.1423 -1.6205  1.7379
18847TIP3    H277957   0.728   4.909  16.429 -0.5674 -3.7969  2.8460
18848TIP3   OH277958   4.319   4.941   5.276 -0.3643 -0.5092 -0.1188
18848TIP3    H177959   4.316   4.988   5.359 -0.6354 -2.4071  0.9631
18848TIP3    H277960   4.248   4.981   5.224 -1.9653 -1.1006  1.5470
18849TIP3   OH277961   1.309   0.283  14.079  0.5363 -0.0656 -0.1742
18849TIP3    H177962   1.318   0.368  14.122  0.3282  0.3217 -0.8900
18849TIP3    H277963   1.226   0.248  14.112 -0.4262  0.9445 -1.4781
18850TIP3   OH277964   6.013   5.496   2.908 -0.2840  0.0147 -0.2801
18850TIP3    H177965   6.088   5.508   2.849  0.7072  0.7277  1.0838
18850TIP3    H277966   6.047   5.442   2.979 -0.7378  1.2418  0.9020
18851TIP3   OH277967   2.176   6.701   0.526  0.5021 -0.0220  0.2177
18851TIP3    H177968   2.263   6.736   0.504  0.2437  0.6383  0.2324
18851TIP3    H277969   2.193   6.640   0.598  0.9560  0.1170  0.2330
18852TIP3   OH277970   5.421   4.333   3.536 -0.3573  0.8154 -0.2403
18852TIP3    H177971   5.435   4.238   3.532  2.2629  1.1844 -1.0143
18852TIP3    H277972   5.452   4.358   3.623 -1.5258  0.9094  0.1576
18853TIP3   OH277973   0.637   0.262  15.195  0.0016 -0.1745  0.0428
18853TIP3    H177974   0.570   0.247  15.262 -1.3209 -1.6347 -1.5722
18853TIP3    H277975   0.647   0.358  15.193 -0.7269 -0.0468  1.5426
18854TIP3   OH277976   1.797   3.131  14.023 -0.0560 -0.4951  0.3350
18854TIP3    H177977   1.870   3.076  14.054  0.6791  0.4926  0.3831
18854TIP3    H277978   1.805   3.212  14.074  1.9566  1.7022 -3.2509
18855TIP3   OH277979   0.274   1.297   4.703 -0.1925  0.7653  0.2011
18855TIP3    H177980   0.312   1.243   4.772 -0.6128 -1.2103 -1.0881
18855TIP3    H277981   0.346   1.313   4.642 -1.0008 -1.7240 -1.4694
18856TIP3   OH277982   0.550   2.623  11.041  0.4150  0.1907 -0.3128
18856TIP3    H177983   0.556   2.537  11.000 -2.3536 -0.0052 -0.4110
18856TIP3    H277984   0.618   2.675  10.999  1.9045 -1.8594 -0.4764
18857TIP3   OH277985   3.282   1.383   0.415 -0.0063  0.2971 -0.1100
18857TIP3    H177986   3.280   1.342   0.328  0.1070 -0.1526  0.0989
18857TIP3    H277987   3.190   1.391   0.440  0.0235 -1.9644  0.8453
18858TIP3   OH277988   6.169   5.837  14.941  0.0950  0.0170 -0.1302
18858TIP3    H177989   6.082   5.871  14.922  0.6078  0.9498 -0.8935
18858TIP3    H277990   6.157   5.778  15.015 -1.1935  0.0782 -0.2884
18859TIP3   OH277991   0.635   5.423   0.432  0.2898  0.2143  0.4638
18859TIP3    H177992   0.638   5.505   0.382  0.9143 -0.0199  0.1019
18859TIP3    H277993   0.662   5.448   0.520  1.1195  0.2961  0.1964
18860TIP3   OH277994   0.821   0.902  16.983  0.3332  0.1118  0.1607
18860TIP3    H177995   0.749   0.905  16.919  1.1411 -1.3912 -0.8338
18860TIP3    H277996   0.855   0.813  16.977  1.0559  0.2489  2.0115
18861TIP3   OH277997   2.185   3.812  11.562  0.4760  0.0936 -0.1787
18861TIP3    H177998   2.254   3.879  11.557  3.1163 -2.7022 -3.8615
18861TIP3    H277999   2.117   3.844  11.503  1.7110 -0.3815 -1.8947
18862TIP3   OH278000   4.544   4.324  10.662 -0.2031  0.4805  0.3974
18862TIP3    H178001   4.590   4.341  10.744  0.1194 -0.2355  0.3647
18862TIP3    H278002   4.587   4.247  10.625  0.2362  1.3319 -0.8897
18863TIP3   OH278003   0.002   5.612   0.389 -0.5488  0.1460 -0.0871
18863TIP3    H178004  -0.012   5.669   0.465 -4.2374 -0.4503 -0.2206
18863TIP3    H278005   0.021   5.526   0.427 -2.2285 -0.1162  0.1958
18864TIP3   OH278006   1.785   0.171  15.481 -0.0054 -0.2380  0.1227
18864TIP3    H178007   1.840   0.230  15.429 -0.7776 -0.3896 -0.8861
18864TIP3    H278008   1.727   0.230  15.530 -1.0356 -0.1418 -1.1730
18865TIP3   OH278009   4.717   0.036  16.849  0.7671 -0.3195 -0.0300
18865TIP3    H178010   4.754   0.122  16.831  0.6528 -0.0878  0.8389
18865TIP3    H278011   4.623   0.047  16.831  0.4563  0.2394  1.8134
18866TIP3   OH278012   4.653   1.633  15.668  0.1032 -0.4805 -0.4239
18866TIP3    H178013   4.600   1.604  15.593  1.0040  1.2932 -1.7906
18866TIP3    H278014   4.645   1.728  15.668  0.6392 -0.4148  1.3755
18867TIP3   OH278015   1.461   2.248  13.520  0.3907  0.0389 -0.1528
18867TIP3    H178016   1.520   2.299  13.464  1.7546 -1.8016 -0.4477
18867TIP3    H278017   1.489   2.267  13.609  1.9297 -1.3863 -0.3165
18868TIP3   OH278018   5.267   5.853  14.510  0.0369  0.0105 -0.0245
18868TIP3    H178019   5.237   5.778  14.459  1.5105  0.7787 -2.0908
18868TIP3    H278020   5.350   5.825  14.548 -0.9912 -0.5153  1.9511
18869TIP3   OH278021   3.530   3.797  11.947 -0.2802 -0.7521 -0.0598
18869TIP3    H178022   3.499   3.801  11.857 -0.7998 -2.6575  0.0062
18869TIP3    H278023   3.458   3.833  11.999 -0.6497 -1.1863 -0.2701
18870TIP3   OH278024   2.557   3.873  12.375 -0.0916  0.4208  0.0916
18870TIP3    H178025   2.546   3.967  12.358 -0.1862  0.3195 -0.4110
18870TIP3    H278026   2.543   3.832  12.290 -0.3989 -0.0805  0.3886
18871TIP3   OH278027   6.097   6.389   2.856  0.3618  0.3258  0.2057
18871TIP3    H178028   6.090   6.375   2.951 -0.3071 -0.5755  0.0348
18871TIP3    H278029   6.166   6.329   2.828  0.1526  0.1595  0.0422
18872TIP3   OH278030   4.647   5.126  16.667  0.0404  0.2865 -0.6865
18872TIP3    H178031   4.666   5.062  16.736 -0.1570  0.0362 -0.8654
18872TIP3    H278032   4.659   5.211  16.710 -0.7705  0.1365 -0.1460
18873TIP3   OH278033   0.615   3.474  14.064  0.7903 -0.0354 -0.0174
18873TIP3    H178034   0.557   3.481  14.140 -0.2920 -0.0332 -0.8323
18873TIP3    H278035   0.572   3.410  14.007  1.1396  0.6228 -1.0337
18874TIP3   OH278036   6.008   0.197  16.725  0.3966  0.1619 -0.1649
18874TIP3    H178037   6.045   0.116  16.689 -3.7222 -2.0060  0.1236
18874TIP3    H278038   6.034   0.197  16.817  2.2348  0.3289 -0.6644
18875TIP3   OH278039   4.475   4.824  11.241  0.1288  0.8519 -0.3904
18875TIP3    H178040   4.409   4.890  11.259 -0.7299  0.2209 -1.1909
18875TIP3    H278041   4.531   4.864  11.174 -0.6234  0.6328 -1.1643
18876TIP3   OH278042   2.629   5.907   2.754  0.1130 -0.3787  0.4581
18876TIP3    H178043   2.536   5.924   2.767  0.7853  3.0435  1.0652
18876TIP3    H278044   2.671   5.939   2.833  1.8765 -1.4582 -0.0164
18877TIP3   OH278045   6.634   2.462  14.301  0.1678  0.6794  0.5528
18877TIP3    H178046   6.633   2.542  14.248  0.7213 -0.2877 -0.9654
18877TIP3    H278047   6.697   2.479  14.370  0.3589  1.5155  0.1766
18878TIP3   OH278048   3.490   3.396  14.290 -0.3757  0.2851  0.6212
18878TIP3    H178049   3.562   3.458  14.297  0.1097 -0.3121  0.9304
18878TIP3    H278050   3.422   3.444  14.242  0.8762  0.2698 -1.1968
18879TIP3   OH278051   2.280   6.151  12.611 -0.6330  0.6393 -0.3801
18879TIP3    H178052   2.364   6.168  12.568 -0.8770 -0.6409 -1.3888
18879TIP3    H278053   2.225   6.113  12.543 -1.4833 -0.1193  0.7139
18880TIP3   OH278054   0.096   3.655   4.999  0.1787  0.3626 -0.1379
18880TIP3    H178055   0.137   3.569   4.989 -1.7885 -0.6306  0.0971
18880TIP3    H278056   0.150   3.699   5.064 -0.9121 -2.1286  2.6051
18881TIP3   OH278057   6.684   3.462  15.174  0.0294 -0.4593 -0.1410
18881TIP3    H178058   6.621   3.532  15.187  3.2285  2.2248  1.7317
18881TIP3    H278059   6.738   3.491  15.101  1.8002 -0.6277  1.0724
18882TIP3   OH278060   5.272   1.551   3.118  0.1717 -0.4115 -0.0947
18882TIP3    H178061   5.261   1.646   3.116 -0.7552 -0.4437  1.8459
18882TIP3    H278062   5.220   1.519   3.045  1.2320  0.6133 -1.3416
18883TIP3   OH278063   5.588   1.076  13.685  0.5624 -0.2967  0.0025
18883TIP3    H178064   5.566   1.011  13.618  1.4301 -0.6880  0.0798
18883TIP3    H278065   5.642   1.140  13.639  0.6473 -0.2395  0.1822
18884TIP3   OH278066   3.083   0.682  16.288 -0.1177 -0.5678 -0.1777
18884TIP3    H178067   3.109   0.748  16.353 -0.2083 -0.2111 -0.5029
18884TIP3    H278068   3.074   0.731  16.206  1.4706 -1.2652 -0.8048
18885TIP3   OH278069   0.620   2.208  16.770  0.8163 -0.1975 -0.5804
18885TIP3    H178070   0.597   2.172  16.684  1.3760 -1.3151 -0.2703
18885TIP3    H278071   0.716   2.215  16.768  0.9373 -1.4350  0.4116
18886TIP3   OH278072   5.552   6.640  14.519 -0.2129 -0.7884  0.6593
18886TIP3    H178073   5.472   6.652  14.469  0.8991 -0.6814 -1.1265
18886TIP3    H278074   5.580   6.729  14.541  0.2683 -0.7523 -0.0943
18887TIP3   OH278075   1.073   4.096   6.339  0.0943 -0.2425 -0.3716
18887TIP3    H178076   1.028   4.133   6.415  0.4578 -2.1070  0.7951
18887TIP3    H278077   1.059   4.160   6.269 -0.3264  1.4702  1.2324
18888TIP3   OH278078   1.982   1.170   4.154 -0.3346  0.0376  0.4510
18888TIP3    H178079   2.015   1.142   4.240  0.6661 -0.9560 -0.2414
18888TIP3    H278080   1.987   1.091   4.100  0.4542  1.0124 -0.9268
18889TIP3   OH278081   2.302   5.816  13.538 -0.2679  0.0416  0.0728
18889TIP3    H178082   2.390   5.829  13.573 -0.4438 -1.0988  0.9607
18889TIP3    H278083   2.296   5.722  13.522 -0.6899  0.3618 -1.6985
18890TIP3   OH278084   0.572   5.315   3.969 -0.7041  0.2943 -0.1862
18890TIP3    H178085   0.549   5.223   3.958  0.0826  0.1959 -1.1204
18890TIP3    H278086   0.655   5.313   4.018  1.2505  0.3328 -3.3440
18891TIP3   OH278087   4.425   4.939  14.371  0.5787 -0.3218  0.0394
18891TIP3    H178088   4.494   4.994  14.334 -0.2798  0.1576 -0.8606
18891TIP3    H278089   4.350   4.998  14.382  0.4090 -0.7571  1.3203
18892TIP3   OH278090   4.242   0.272  14.580  0.6252 -0.9699 -0.0284
18892TIP3    H178091   4.164   0.218  14.570 -0.4199 -0.2786  3.6232
18892TIP3    H278092   4.312   0.210  14.598 -0.0973 -1.2673  1.7816
18893TIP3   OH278093   3.245   1.081   2.063 -0.3176  0.2300 -0.7623
18893TIP3    H178094   3.189   1.082   1.985 -0.7994 -0.5742 -0.4355
18893TIP3    H278095   3.197   1.130   2.129  0.6815  2.0481 -1.3555
18894TIP3   OH278096   1.065   3.267   1.862 -0.2143  0.1293  0.6877
18894TIP3    H178097   1.152   3.247   1.826  0.5886 -0.7382  2.9641
18894TIP3    H278098   1.058   3.362   1.858  0.9349  0.2189  0.6278
18895TIP3   OH278099   1.952   6.784   5.333  0.2868  0.0125 -0.4493
18895TIP3    H178100   1.952   6.776   5.238  0.1378 -0.9168 -0.3717
18895TIP3    H278101   1.860   6.778   5.358  0.2222  1.3053 -0.3227
18896TIP3   OH278102   2.792   2.101   3.878  0.3250 -0.6733 -0.5710
18896TIP3    H178103   2.834   2.091   3.792 -0.0552 -0.5727 -0.7726
18896TIP3    H278104   2.856   2.149   3.930  1.2626 -2.1974 -0.2675
18897TIP3   OH278105   4.997   5.856   2.730  0.0476  0.1088  0.2754
18897TIP3    H178106   4.912   5.897   2.715  0.4001  1.1468  1.0097
18897TIP3    H278107   5.015   5.807   2.650 -0.2989  1.5620 -0.7162
18898TIP3   OH278108   2.439   2.066  16.549  0.4140  0.4557 -0.4652
18898TIP3    H178109   2.395   2.139  16.507  0.1283 -0.5374 -1.9157
18898TIP3    H278110   2.441   1.997  16.483  0.2068 -1.0348  1.0354
18899TIP3   OH278111   4.125   0.740  14.814 -0.1076  0.0044  0.0418
18899TIP3    H178112   4.210   0.731  14.856 -1.3509 -0.6342  2.5519
18899TIP3    H278113   4.115   0.662  14.760  1.1421  0.3813 -0.7368
18900TIP3   OH278114   5.706   5.966  13.846  0.2393  0.6218 -0.0200
18900TIP3    H178115   5.707   5.965  13.750  1.7372 -3.1852 -0.0571
18900TIP3    H278116   5.657   5.888  13.871  0.3203  1.2780  2.3402
18901TIP3   OH278117   4.967   6.541   3.909 -0.7277 -0.3402 -0.0905
18901TIP3    H178118   4.920   6.467   3.946 -1.0268  0.1795  0.5887
18901TIP3    H278119   5.008   6.584   3.984  0.9085 -0.8341 -0.6847
18902TIP3   OH278120   1.970   6.259   4.355 -0.4816  0.0239 -0.1039
18902TIP3    H178121   2.019   6.331   4.314 -0.9117  0.2303 -0.2600
18902TIP3    H278122   1.937   6.207   4.282 -0.8764  0.1414 -0.0123
18903TIP3   OH278123   5.505   0.490  17.177 -0.1209  0.9076  0.7464
18903TIP3    H178124   5.455   0.563  17.141  1.4104  0.7143 -1.8672
18903TIP3    H278125   5.440   0.434  17.219 -1.9414  1.2839 -1.5093
18904TIP3   OH278126   0.861   3.076  11.391  0.4084 -0.1811  0.1541
18904TIP3    H178127   0.809   3.102  11.467 -0.8067 -1.9606 -0.0255
18904TIP3    H278128   0.804   3.094  11.315  0.4197 -1.2170 -0.1098
18905TIP3   OH278129   3.596   0.768   3.152  0.0573  0.3241 -0.3257
18905TIP3    H178130   3.516   0.802   3.111 -1.7073 -1.7281  1.2694
18905TIP3    H278131   3.626   0.839   3.209 -0.0428  1.4957 -1.7109
18906TIP3   OH278132   2.275   1.486  15.575  0.4021  0.0130  0.5922
18906TIP3    H178133   2.203   1.422  15.578  0.2138  0.1795 -0.1857
18906TIP3    H278134   2.328   1.458  15.500 -0.0253  1.1364 -0.1344
18907TIP3   OH278135   5.419   2.124   5.335 -0.0682 -0.0998  0.2280
18907TIP3    H178136   5.433   2.191   5.402 -1.1276  0.3581  0.0011
18907TIP3    H278137   5.324   2.124   5.321 -0.1185 -1.8463  0.4304
18908TIP3   OH278138   5.262   6.259  10.865 -0.0439 -0.3966 -0.2573
18908TIP3    H178139   5.287   6.302  10.947  1.3775  0.7811 -1.2826
18908TIP3    H278140   5.171   6.284  10.852 -1.0278 -2.5008  2.1410
18909TIP3   OH278141   1.180   6.578   3.486 -0.0218 -0.0803  0.0864
18909TIP3    H178142   1.153   6.632   3.412  0.1698 -1.3138 -0.9030
18909TIP3    H278143   1.098   6.555   3.530 -0.1250  0.7805  0.3482
18910TIP3   OH278144   3.057   0.580   4.338 -0.7008  0.0383 -0.2962
18910TIP3    H178145   2.978   0.578   4.285 -0.3692  0.5500 -0.8210
18910TIP3    H278146   3.111   0.510   4.302  0.7094  2.1879 -2.5386
18911TIP3   OH278147   6.235   4.513  13.337 -0.0395  0.0650 -0.1210
18911TIP3    H178148   6.253   4.603  13.312  1.2176 -0.6453 -1.8572
18911TIP3    H278149   6.273   4.504  13.424 -1.8898  1.7404  0.9022
18912TIP3   OH278150   2.971   4.990   2.214  0.3981  0.4697  0.1649
18912TIP3    H178151   2.981   5.074   2.260 -0.8427  0.5998  0.2195
18912TIP3    H278152   2.914   4.938   2.272 -1.7079  0.8606 -1.5211
18913TIP3   OH278153   0.650   0.427  10.964 -0.4781  0.3826  0.3426
18913TIP3    H178154   0.558   0.438  10.991 -1.0222 -1.8963 -0.4347
18913TIP3    H278155   0.645   0.394  10.874  1.0941  0.2307  0.2973
18914TIP3   OH278156   2.697   3.647   1.581  0.0821 -0.2955 -0.0973
18914TIP3    H178157   2.641   3.630   1.505  0.6095 -0.0845 -0.5366
18914TIP3    H278158   2.740   3.563   1.598 -0.8812 -0.6450  0.6716
18915TIP3   OH278159   2.211   5.057  15.375 -0.0374  0.1739  0.1380
18915TIP3    H178160   2.251   5.024  15.455  0.9665  1.6294  0.2547
18915TIP3    H278161   2.282   5.103  15.330 -1.0687  1.0077 -0.6575
18916TIP3   OH278162   0.692   0.080   0.969  0.0803  0.6540  0.1022
18916TIP3    H178163   0.672   0.174   0.962  0.5705  0.8204  0.9018
18916TIP3    H278164   0.732   0.070   1.055  1.4909 -0.0296 -0.6104
18917TIP3   OH278165   4.942   3.120  16.797 -0.2520  0.3312 -0.2858
18917TIP3    H178166   4.931   3.143  16.705 -2.3347  0.1489 -0.1005
18917TIP3    H278167   4.999   3.188  16.832 -0.3769  1.0503 -1.4528
18918TIP3   OH278168   3.697   3.546   0.047  0.0427  0.1093  0.3675
18918TIP3    H178169   3.761   3.540  -0.024 -0.5128  0.0096 -0.1321
18918TIP3    H278170   3.744   3.591   0.117  0.1834  1.4355 -0.5571
18919TIP3   OH278171   0.656   4.816   5.006  0.4876  0.6193  0.1393
18919TIP3    H178172   0.690   4.900   4.974  1.1222  0.2767 -0.0896
18919TIP3    H278173   0.563   4.833   5.024  0.2586  0.9708 -1.3457
18920TIP3   OH278174   3.189   2.198  14.840 -0.3151 -0.2886  0.0650
18920TIP3    H178175   3.244   2.180  14.917 -0.3416 -2.0135 -0.2868
18920TIP3    H278176   3.147   2.114  14.822 -2.5941  0.8501 -0.0527
18921TIP3   OH278177   1.252   0.864  12.778  0.3078 -0.4842 -0.5165
18921TIP3    H178178   1.202   0.811  12.840 -0.3586  0.5940 -0.1240
18921TIP3    H278179   1.266   0.806  12.703 -0.0032 -1.3656  0.0986
18922TIP3   OH278180   2.704   5.266  13.985  0.6166 -0.1997 -0.0635
18922TIP3    H178181   2.613   5.243  13.972  0.8775  0.2197 -2.8998
18922TIP3    H278182   2.753   5.189  13.956  1.2404  0.6104 -1.1700
18923TIP3   OH278183   1.022   2.301  15.749 -0.6273 -0.0930  0.4931
18923TIP3    H178184   0.958   2.370  15.733 -1.7483 -1.3332 -0.4217
18923TIP3    H278185   1.072   2.332  15.825 -1.6042  1.3602  0.5616
18924TIP3   OH278186   0.960   5.483   2.992  0.1474 -0.4746  0.0445
18924TIP3    H178187   0.987   5.392   2.983 -0.1398 -0.9545  3.2305
18924TIP3    H278188   1.041   5.534   2.985  0.6756 -1.2035  0.8117
18925TIP3   OH278189   3.214   0.456   4.870  0.1216 -0.1268  0.0167
18925TIP3    H178190   3.305   0.472   4.895 -0.0370  0.6521  0.1147
18925TIP3    H278191   3.206   0.497   4.784 -0.0345 -0.5218 -0.1545
18926TIP3   OH278192   5.811   5.260  11.769  0.0590  0.5586 -0.6395
18926TIP3    H178193   5.808   5.275  11.863 -1.1766  2.5310 -0.9774
18926TIP3    H278194   5.818   5.165  11.760 -1.7074  0.1983  1.4368
18927TIP3   OH278195   5.015   5.398   0.156  0.5171 -0.2569 -0.2903
18927TIP3    H178196   4.949   5.329   0.148  2.4175 -2.2662  0.8310
18927TIP3    H278197   4.997   5.439   0.241  0.2528 -0.3132 -0.3195
18928TIP3   OH278198   2.259   2.309   2.046 -0.7426 -0.0354 -0.0856
18928TIP3    H178199   2.256   2.388   2.100  0.4683  0.1964 -0.3376
18928TIP3    H278200   2.197   2.248   2.088  1.2342 -0.3969  2.4318
18929TIP3   OH278201   3.991   1.025  10.892  0.2546  0.2529 -0.1510
18929TIP3    H178202   3.966   0.965  10.822 -0.9874  0.1910  0.3234
18929TIP3    H278203   3.972   0.976  10.972  0.0445  0.9610  0.2298
18930TIP3   OH278204   4.471   3.534   3.394 -0.0208  0.2057  0.1406
18930TIP3    H178205   4.534   3.501   3.458 -0.7933  0.4174  1.0225
18930TIP3    H278206   4.525   3.566   3.322  0.8185 -1.1965  0.1211
18931TIP3   OH278207   4.490   0.604  15.631 -0.0988 -0.2980 -0.8825
18931TIP3    H178208   4.454   0.535  15.576  0.7712  0.3205 -2.2539
18931TIP3    H278209   4.583   0.607  15.608  0.2280  0.1611  0.4238
18932TIP3   OH278210   6.340   1.885  14.835 -0.5967 -0.3828 -0.1581
18932TIP3    H178211   6.319   1.914  14.747 -0.4507  0.5375  0.1061
18932TIP3    H278212   6.376   1.962  14.878 -0.1377 -0.9740  0.5340
18933TIP3   OH278213   5.046   4.781  14.621  0.5136  0.5418 -0.3807
18933TIP3    H178214   4.989   4.771  14.698  1.9521  0.3795  0.6934
18933TIP3    H278215   4.987   4.804  14.550 -0.7600  1.5243  0.9674
18934TIP3   OH278216   6.557   2.421  15.937  0.2449 -0.2692 -0.0347
18934TIP3    H178217   6.635   2.471  15.911  0.1203 -0.2377 -0.3403
18934TIP3    H278218   6.486   2.485  15.936  0.4452  0.0141  1.5235
18935TIP3   OH278219   1.758   5.429   4.489 -0.1234  0.6647 -0.8629
18935TIP3    H178220   1.841   5.385   4.468 -0.8422 -1.0329 -0.2627
18935TIP3    H278221   1.692   5.382   4.438 -1.2631 -0.6527  1.6799
18936TIP3   OH278222   5.880   2.729   3.933 -0.2259 -0.0276  0.0718
18936TIP3    H178223   5.837   2.660   3.882 -0.3556 -0.6301  0.9867
18936TIP3    H278224   5.840   2.723   4.019  1.3024 -0.2357  0.7839
18937TIP3   OH278225   0.879   1.671   5.435 -0.2311 -0.7279 -0.0729
18937TIP3    H178226   0.924   1.725   5.500  0.7137 -1.8197  0.1894
18937TIP3    H278227   0.938   1.598   5.419 -1.5467 -1.7527 -0.3420
18938TIP3   OH278228   2.772   2.793   2.792 -0.1743 -0.3828 -0.2627
18938TIP3    H178229   2.682   2.790   2.823 -0.0232  1.7119  0.4386
18938TIP3    H278230   2.768   2.834   2.706  0.1557  0.1662 -0.0205
18939TIP3   OH278231   4.947   2.877   1.651  0.1228 -0.6041 -0.0117
18939TIP3    H178232   4.994   2.884   1.567  0.7121 -1.3513  0.2513
18939TIP3    H278233   4.994   2.810   1.699 -1.0749 -1.1991  0.3586
18940TIP3   OH278234   3.963   1.211   0.495  0.4188 -0.2936 -0.2190
18940TIP3    H178235   4.030   1.230   0.429  0.6230  0.6271  0.2576
18940TIP3    H278236   3.909   1.290   0.498  0.0760 -0.5456  0.3263
18941TIP3   OH278237   3.392   0.197  14.530  0.6547  0.3217 -0.2520
18941TIP3    H178238   3.384   0.175  14.437 -1.0314 -0.9228  0.1568
18941TIP3    H278239   3.307   0.174  14.568  1.2781  0.9201  1.5839
18942TIP3   OH278240   5.890   4.656  14.607  0.3859 -0.5001  0.1234
18942TIP3    H178241   5.800   4.686  14.616  0.7392  0.4094  0.6532
18942TIP3    H278242   5.891   4.571  14.651 -0.4240 -0.9331 -0.6780
18943TIP3   OH278243   0.909   1.337   4.635 -0.2250  0.2225  0.6155
18943TIP3    H178244   0.846   1.336   4.563  0.0927  0.8228  0.3268
18943TIP3    H278245   0.927   1.244   4.652 -0.7501  0.0631  0.3211
18944TIP3   OH278246   6.451   5.816  15.941 -0.4273 -0.1933 -0.1192
18944TIP3    H178247   6.390   5.886  15.964 -0.3343 -0.4678  1.0072
18944TIP3    H278248   6.490   5.790  16.024  3.0049  1.6092 -1.0532
18945TIP3   OH278249   2.432   0.535  11.570 -0.0893  0.4107 -0.1200
18945TIP3    H178250   2.403   0.571  11.653 -0.1402  1.3103 -0.5306
18945TIP3    H278251   2.372   0.462  11.553  0.8310 -0.7189  1.3425
18946TIP3   OH278252   2.109   0.123   2.022 -0.1172  0.1001 -0.7492
18946TIP3    H178253   2.108   0.035   1.986 -0.8724  0.7633 -2.4239
18946TIP3    H278254   2.041   0.170   1.973  0.7363  1.8000 -0.3738
18947TIP3   OH278255   5.348   5.266   5.361  0.1244  0.0202 -0.0551
18947TIP3    H178256   5.348   5.175   5.392 -4.2014  0.1653  0.6089
18947TIP3    H278257   5.325   5.260   5.268 -2.0827  0.5373  0.4465
18948TIP3   OH278258   4.123   1.049   1.948 -0.2879 -0.5955 -0.0281
18948TIP3    H178259   4.078   0.975   1.989  0.9565 -0.9930  0.6285
18948TIP3    H278260   4.184   1.009   1.886  0.4656 -0.1336  0.4075
18949TIP3   OH278261   1.984   5.565   4.792  0.6342  0.7220  0.1114
18949TIP3    H178262   1.964   5.654   4.761 -1.2950  0.3800  0.3293
18949TIP3    H278263   2.027   5.523   4.717 -2.3995  0.4720 -1.6026
18950TIP3   OH278264   2.628   4.361   1.877 -0.4379 -0.0717 -0.4066
18950TIP3    H178265   2.624   4.316   1.793 -2.4066  0.2006 -0.4858
18950TIP3    H278266   2.541   4.401   1.887  0.4099  1.5177  0.8494
18951TIP3   OH278267   5.812   1.707   0.887 -0.3467  0.3953  0.6766
18951TIP3    H178268   5.764   1.786   0.909 -1.1157 -0.2116  1.1976
18951TIP3    H278269   5.901   1.723   0.917 -0.5258  1.0192  0.8730
18952TIP3   OH278270   5.043   3.843  16.877  0.3658 -0.0561 -0.1946
18952TIP3    H178271   5.050   3.882  16.964 -3.4364 -0.4920  0.3682
18952TIP3    H278272   5.082   3.908  16.819 -0.1786  1.7716  1.4506
18953TIP3   OH278273   3.422   5.556  15.910  0.0076  0.1964  0.3318
18953TIP3    H178274   3.347   5.615  15.916  0.8518  1.2433  0.8857
18953TIP3    H278275   3.444   5.554  15.817 -0.5239  0.1240  0.2075
18954TIP3   OH278276   5.647   6.533  15.562 -0.1586 -0.4688 -0.2612
18954TIP3    H178277   5.603   6.457  15.523  1.1169 -1.3298 -0.0296
18954TIP3    H278278   5.657   6.595  15.489  1.8603 -1.9173 -1.2541
18955TIP3   OH278279   0.722   0.882   3.106 -0.0500 -0.2856 -0.2009
18955TIP3    H178280   0.629   0.877   3.127  0.3818 -1.3354  1.5738
18955TIP3    H278281   0.744   0.794   3.074 -0.4630  0.9790 -4.2884
18956TIP3   OH278282   4.488   2.100   2.181  0.0808  0.4824 -0.3535
18956TIP3    H178283   4.509   2.010   2.155 -0.0494  1.3558 -3.6970
18956TIP3    H278284   4.396   2.111   2.156 -1.0002  0.5244  3.2305
18957TIP3   OH278285   2.946   3.011  13.223  0.0578  0.3688 -0.1749
18957TIP3    H178286   3.007   2.993  13.295 -1.0150  0.7216  0.8348
18957TIP3    H278287   2.925   2.924  13.188  1.2967  0.2567 -0.6823
18958TIP3   OH278288   4.779   4.852   2.075 -0.0386  0.2867  0.4296
18958TIP3    H178289   4.864   4.884   2.107 -0.3936  1.5048  0.1841
18958TIP3    H278290   4.795   4.828   1.984 -0.1802  1.4348  0.0970
18959TIP3   OH278291   3.006   1.539   1.954 -0.5965 -0.4491  0.3284
18959TIP3    H178292   3.070   1.534   1.883 -1.9820 -1.3519 -0.8831
18959TIP3    H278293   3.007   1.631   1.981  0.6391 -0.2986 -0.2057
18960TIP3   OH278294   0.711   0.267  12.954 -0.4955  0.0331 -0.2776
18960TIP3    H178295   0.666   0.184  12.941 -2.6621  0.9149  1.2403
18960TIP3    H278296   0.700   0.313  12.871 -2.3162  0.1804  0.0295
18961TIP3   OH278297   6.668   4.929   1.532 -0.0201  0.4749  0.0467
18961TIP3    H178298   6.699   4.953   1.445 -1.7039  0.4271 -0.5744
18961TIP3    H278299   6.575   4.952   1.532 -0.0348  0.4515  1.8226
18962TIP3   OH278300   0.635   0.942   3.680  0.5501 -0.3072  0.0456
18962TIP3    H178301   0.641   0.899   3.594 -1.7133  0.3735 -0.4789
18962TIP3    H278302   0.561   1.003   3.671  1.0500  0.6331  2.1121
18963TIP3   OH278303   1.728   2.790  11.964  0.9387 -0.1777 -0.1653
18963TIP3    H178304   1.702   2.713  12.015  0.2558 -1.0816 -1.8213
18963TIP3    H278305   1.823   2.786  11.961  0.8683 -1.5472 -1.0831
18964TIP3   OH278306   1.873   6.757  13.083 -0.0211  0.0014  0.1360
18964TIP3    H178307   1.883   6.751  13.178 -0.2992 -1.3509  0.0929
18964TIP3    H278308   1.889   6.668  13.052  0.0047  0.4219 -1.0835
18965TIP3   OH278309   0.518   3.499   0.546 -0.1775 -0.2540  0.3861
18965TIP3    H178310   0.460   3.455   0.609  0.6054 -0.6038  0.8643
18965TIP3    H278311   0.580   3.431   0.519  0.8165  0.4623  0.8538
18966TIP3   OH278312   5.064   6.377   4.533  0.0880  0.0719 -0.3209
18966TIP3    H178313   5.089   6.285   4.529  0.1256 -0.0729  2.3363
18966TIP3    H278314   4.968   6.376   4.530  0.0674 -0.1071  0.2783
18967TIP3   OH278315   1.014   1.657  11.033  0.1137  0.2143 -0.3996
18967TIP3    H178316   1.046   1.593  10.970  0.9532 -1.1233  1.3280
18967TIP3    H278317   1.093   1.690  11.076 -0.5681 -0.5948  1.5310
18968TIP3   OH278318   2.672   2.500  14.296  0.2390 -0.4041 -0.3161
18968TIP3    H178319   2.706   2.505  14.207  0.9232  0.3357 -0.0258
18968TIP3    H278320   2.690   2.411  14.324 -1.6741 -1.2016 -1.5683
18969TIP3   OH278321   5.264   5.572   2.796  0.2268 -0.1851 -0.2115
18969TIP3    H178322   5.349   5.604   2.825  0.8181 -2.2495  0.4404
18969TIP3    H278323   5.205   5.592   2.869  0.0904  1.4001 -0.7334
18970TIP3   OH278324   5.757   3.596   3.006  0.7896  0.0908 -0.6481
18970TIP3    H178325   5.828   3.625   3.063  0.6536  0.2207 -0.5441
18970TIP3    H278326   5.791   3.606   2.917  0.5676  1.0454 -0.6328
18971TIP3   OH278327   0.238   6.222  17.100 -0.5523  0.1373  0.2416
18971TIP3    H178328   0.320   6.195  17.058 -0.9799  1.5605 -1.5610
18971TIP3    H278329   0.207   6.296  17.047 -1.5433  1.4399  2.5651
18972TIP3   OH278330   1.562   6.314   5.154 -0.3225 -0.1113 -0.5825
18972TIP3    H178331   1.479   6.287   5.115 -0.2170 -0.2747 -0.6949
18972TIP3    H278332   1.614   6.234   5.156 -1.0181 -0.5490  1.6897
18973TIP3   OH278333   6.475   2.192  11.473  0.1529 -0.0244 -0.1454
18973TIP3    H178334   6.397   2.165  11.522  0.0936  1.2081  0.4746
18973TIP3    H278335   6.443   2.257  11.411  0.6883  0.5182  0.1379
18974TIP3   OH278336   1.383   0.695  15.177 -0.5367  0.0133 -0.5648
18974TIP3    H178337   1.295   0.657  15.176 -0.3701 -0.4502  0.9304
18974TIP3    H278338   1.436   0.633  15.227  0.6275  0.3341 -1.3688
18975TIP3   OH278339   4.579   6.737   0.599  0.2922 -0.6843 -0.4368
18975TIP3    H178340   4.674   6.746   0.613  0.0525  1.4341 -0.1297
18975TIP3    H278341   4.549   6.825   0.578 -1.2896 -1.7040 -2.6394
18976TIP3   OH278342   4.862   3.180   0.058  0.3197  0.1636 -0.1532
18976TIP3    H178343   4.839   3.158  -0.032 -0.3414  0.8280 -0.1593
18976TIP3    H278344   4.957   3.188   0.058  0.2825  0.6714 -0.9165
18977TIP3   OH278345   4.338   2.140  14.771  0.3158 -0.3003  0.0871
18977TIP3    H178346   4.246   2.136  14.798  1.0536 -0.6643  2.7650
18977TIP3    H278347   4.335   2.155  14.677 -2.4906 -1.0227  0.0022
18978TIP3   OH278348   3.973   4.047   3.296  0.2260  0.7768 -0.4124
18978TIP3    H178349   4.000   3.969   3.343 -0.9654 -0.6240 -1.9896
18978TIP3    H278350   3.960   4.018   3.206 -0.7332  2.6828 -0.9264
18979TIP3   OH278351   5.990   4.267   2.761  0.1063 -0.0091 -0.1234
18979TIP3    H178352   6.032   4.341   2.805  1.1553 -1.3630  1.1842
18979TIP3    H278353   5.987   4.293   2.669 -0.1177  1.9226  0.3876
18980TIP3   OH278354   2.885   4.894   4.635 -0.7298  0.6815  0.1060
18980TIP3    H178355   2.909   4.953   4.563 -0.3969 -0.4247 -0.7031
18980TIP3    H278356   2.844   4.951   4.700  0.1856  1.9014 -0.3797
18981TIP3   OH278357   1.140   6.620   2.984  0.0481  0.6479 -0.0462
18981TIP3    H178358   1.099   6.703   2.960 -0.0055  0.5194 -0.4050
18981TIP3    H278359   1.229   6.628   2.950 -0.1402  0.3152 -0.6206
18982TIP3   OH278360   3.717   4.540   5.553 -0.3456  0.2739 -0.4062
18982TIP3    H178361   3.653   4.610   5.560 -0.2270  0.4639 -1.2002
18982TIP3    H278362   3.737   4.534   5.459 -2.0986 -2.3704 -0.6785
18983TIP3   OH278363   1.772   4.474   5.796 -0.2349 -0.1267  0.1520
18983TIP3    H178364   1.780   4.470   5.700 -0.9397  0.5181  0.0621
18983TIP3    H278365   1.776   4.382   5.824 -0.5781 -0.3640 -0.5460
18984TIP3   OH278366   6.709   4.227   1.477  0.6919 -0.1022 -0.4417
18984TIP3    H178367   6.759   4.305   1.503  2.0765 -0.3266 -2.2730
18984TIP3    H278368   6.619   4.246   1.504  0.8445  2.5024 -1.5570
18985TIP3   OH278369   4.127   4.794  14.388  0.4393  0.1141 -0.2127
18985TIP3    H178370   4.168   4.711  14.412  0.2586  0.1501  0.2270
18985TIP3    H278371   4.121   4.792  14.293  0.5346 -0.3319 -0.2054
18986TIP3   OH278372   6.585   1.541   0.405  0.5016 -0.2333 -0.3851
18986TIP3    H178373   6.672   1.515   0.374  0.6004 -1.5100  0.9015
18986TIP3    H278374   6.574   1.493   0.488 -1.3453  0.0700 -0.4416
18987TIP3   OH278375   0.516   0.079  16.576 -0.5344  0.5505 -0.6462
18987TIP3    H178376   0.445   0.050  16.633  0.1715 -1.7527 -0.8849
18987TIP3    H278377   0.587   0.104  16.635 -0.8811  1.1153 -0.4606
18988TIP3   OH278378   3.593   1.441   2.969  0.1598  0.5831 -0.2940
18988TIP3    H178379   3.575   1.520   3.020  0.3485  0.8269 -0.5981
18988TIP3    H278380   3.523   1.380   2.993 -0.2574  1.0116 -0.4103
18989TIP3   OH278381   5.691   3.108  14.740  0.3237 -0.0670  0.3902
18989TIP3    H178382   5.623   3.052  14.702  0.7850  0.6740 -1.6164
18989TIP3    H278383   5.644   3.184  14.772  0.1071  0.0820 -0.2697
18990TIP3   OH278384   5.704   4.440   4.549 -0.3286 -0.2976  0.4007
18990TIP3    H178385   5.727   4.446   4.456 -0.8127  0.3593  0.3193
18990TIP3    H278386   5.661   4.523   4.568 -2.3621 -1.3612  0.6245
18991TIP3   OH278387   2.421   3.758   2.928 -0.1437  0.6739 -0.2175
18991TIP3    H178388   2.509   3.781   2.899  0.2101  0.6888  0.8488
18991TIP3    H278389   2.420   3.663   2.930 -0.3633  0.6652 -0.8799
18992TIP3   OH278390   5.311   1.957   0.286  0.6024  0.1945  0.8289
18992TIP3    H178391   5.380   2.024   0.287  0.4506  0.3580  0.3942
18992TIP3    H278392   5.351   1.881   0.244  0.2191  0.6169 -0.3206
18993TIP3   OH278393   2.405   1.375   3.707 -0.4588 -0.6200  0.0060
18993TIP3    H178394   2.449   1.374   3.792  0.0394  2.5496 -0.1359
18993TIP3    H278395   2.341   1.304   3.712  0.8968 -1.7471  2.2783
18994TIP3   OH278396   1.684   3.006   3.820  0.3499  0.0477 -0.2901
18994TIP3    H178397   1.623   3.031   3.889  0.1768 -1.7083  0.2213
18994TIP3    H278398   1.757   3.066   3.830 -1.4815  2.5147 -1.2343
18995TIP3   OH278399   1.930   0.394  16.833  0.1797  0.3790  0.3182
18995TIP3    H178400   1.852   0.374  16.884 -0.1130  1.2729  0.2306
18995TIP3    H278401   1.914   0.353  16.747 -0.7264  1.5674 -0.0987
18996TIP3   OH278402   4.379   4.192  14.341 -0.0353 -0.0634  0.0057
18996TIP3    H178403   4.311   4.125  14.336  0.8751 -1.0172  0.5049
18996TIP3    H278404   4.348   4.253  14.408 -1.4370  0.6739 -1.2802
18997TIP3   OH278405   0.349   5.357  12.963 -0.8082  0.0322 -0.0406
18997TIP3    H178406   0.435   5.349  12.921  0.1965  0.6125  1.8790
18997TIP3    H278407   0.368   5.382  13.053 -3.0017  0.1435  0.4181
18998TIP3   OH278408   5.667   0.272   1.306  0.1905 -0.4906 -0.0966
18998TIP3    H178409   5.745   0.301   1.259 -0.0557 -0.6410 -0.6099
18998TIP3    H278410   5.656   0.181   1.279 -1.0126 -0.0371 -1.2093
18999TIP3   OH278411   5.234   4.792   5.979  0.2714 -0.1919 -0.2976
18999TIP3    H178412   5.253   4.731   5.908  1.9489  0.1847 -0.2002
18999TIP3    H278413   5.149   4.830   5.957  0.0090 -1.3090 -1.2270
19000TIP3   OH278414   2.706   0.416   0.117  0.6959  0.1846 -0.2768
19000TIP3    H178415   2.647   0.433   0.044  0.9173 -1.0650 -0.7501
19000TIP3    H278416   2.720   0.321   0.116  0.2702  0.0765  1.7168
19001TIP3   OH278417   0.730   6.693   4.074 -0.1794  0.4107  0.4831
19001TIP3    H178418   0.702   6.615   4.027 -0.4504 -0.1566  1.5716
19001TIP3    H278419   0.649   6.743   4.088 -0.2343  0.1448  1.1277
19002TIP3   OH278420   6.447   4.793  14.645  0.0561 -0.2685  0.6302
19002TIP3    H178421   6.482   4.836  14.723  1.7377 -0.6693  0.1228
19002TIP3    H278422   6.390   4.859  14.605  0.3334  0.4569  1.4125
19003TIP3   OH278423   6.073   1.154  11.625  0.2857  1.1976 -0.0598
19003TIP3    H178424   6.114   1.071  11.648  1.2590  1.8204  0.4969
19003TIP3    H278425   6.135   1.221  11.655  1.2264  2.0845 -3.6661
19004TIP3   OH278426   4.472   6.610   3.947 -0.0030 -0.1502 -0.1651
19004TIP3    H178427   4.438   6.576   3.864 -1.0747 -1.8755  0.9578
19004TIP3    H278428   4.478   6.534   4.004  0.7164  1.0240  1.3692
19005TIP3   OH278429   5.807   3.980   3.160 -0.0519  0.0432  0.8192
19005TIP3    H178430   5.769   4.028   3.234 -1.4273 -1.0552  0.8611
19005TIP3    H278431   5.777   4.027   3.083  0.7393  0.7418  0.9357
19006TIP3   OH278432   2.221   3.893   5.719 -0.5233 -0.2749 -0.0235
19006TIP3    H178433   2.302   3.925   5.759 -0.9536 -0.5793  1.1202
19006TIP3    H278434   2.207   3.808   5.759 -0.4801 -1.0115 -1.5394
19007TIP3   OH278435   4.925   5.618   0.034  0.1720  0.9292  0.3160
19007TIP3    H178436   4.860   5.647   0.098 -1.6387 -0.9075 -0.6573
19007TIP3    H278437   4.971   5.547   0.077 -0.0117  0.7048  0.1378
19008TIP3   OH278438   6.576   5.926   2.631  0.9572 -0.1389 -0.5859
19008TIP3    H178439   6.573   6.021   2.615  0.6652 -0.1868 -0.8148
19008TIP3    H278440   6.592   5.919   2.725 -0.7416  0.1469 -0.2538
19009TIP3   OH278441   1.473   5.353   5.178  0.3521 -0.4498  0.2389
19009TIP3    H178442   1.441   5.272   5.138  0.7356  0.2089 -1.4504
19009TIP3    H278443   1.466   5.418   5.108  5.1311 -0.2153 -0.1982
19010TIP3   OH278444   1.165   2.630  16.695  0.1686  0.4004  0.6541
19010TIP3    H178445   1.078   2.597  16.717 -0.4944  1.8986  0.3101
19010TIP3    H278446   1.169   2.623  16.599 -0.3306  2.1818  0.4979
19011TIP3   OH278447   3.305   4.229   6.366 -0.4861  0.2107 -0.4036
19011TIP3    H178448   3.295   4.296   6.434  2.0691 -0.7792  0.9963
19011TIP3    H278449   3.364   4.269   6.302  0.3726 -0.3838  0.0153
19012TIP3   OH278450   4.082   6.184  11.512 -0.1861  1.2268  0.1026
19012TIP3    H178451   4.064   6.208  11.421  0.7962  0.7205 -0.2408
19012TIP3    H278452   4.081   6.267  11.559 -1.7933  1.3662 -0.1767
19013TIP3   OH278453   4.601   0.716   5.562  0.4705  0.3727 -1.0807
19013TIP3    H178454   4.592   0.811   5.573 -1.1136 -0.0048  1.6388
19013TIP3    H278455   4.665   0.690   5.629 -1.2452 -0.7716  0.1892
19014TIP3   OH278456   5.215   4.200   6.083 -0.2850 -0.2518 -0.0878
19014TIP3    H178457   5.295   4.253   6.087 -0.2567 -0.2866 -0.1724
19014TIP3    H278458   5.172   4.228   6.002 -1.6768  1.6311  1.2642
19015TIP3   OH278459   1.489   2.863   4.247  0.0889 -0.4549  0.1163
19015TIP3    H178460   1.503   2.900   4.160 -0.4636 -0.0178  0.2067
19015TIP3    H278461   1.405   2.899   4.275  1.0988  0.8658  1.5764
19016TIP3   OH278462   0.784   4.644  16.618  0.3123  0.2802  0.6416
19016TIP3    H178463   0.787   4.626  16.712  0.3488  1.7773  0.9471
19016TIP3    H278464   0.706   4.699  16.606 -0.4068 -0.9452 -0.3993
19017TIP3   OH278465   0.890   4.733   4.645 -0.6577  0.3141 -0.0055
19017TIP3    H178466   0.954   4.684   4.593  1.0121  1.3034  1.0746
19017TIP3    H278467   0.897   4.823   4.612 -1.1201  0.5249  0.4670
19018TIP3   OH278468   4.811   1.988  14.414  0.4281  0.1876  0.8621
19018TIP3    H178469   4.764   2.069  14.437 -0.7292 -0.5560  1.1900
19018TIP3    H278470   4.833   1.949  14.499  0.2465 -0.2530  0.7067
19019TIP3   OH278471   2.217   2.493  11.215  0.1417  0.2245  0.5295
19019TIP3    H178472   2.248   2.498  11.125 -1.0469 -1.0704  0.0278
19019TIP3    H278473   2.151   2.561  11.222  0.6041  0.6715  0.5824
19020TIP3   OH278474   1.536   2.542  17.170 -0.0146 -0.1193  0.2070
19020TIP3    H178475   1.454   2.592  17.177 -0.2709 -0.5829  0.5549
19020TIP3    H278476   1.571   2.566  17.084 -0.8007 -0.3471 -0.1865
19021TIP3   OH278477   1.484   5.242   0.678 -0.1593  0.2830  0.4755
19021TIP3    H178478   1.522   5.196   0.604  0.0573 -0.0240  0.7759
19021TIP3    H278479   1.559   5.270   0.730 -0.3677 -1.3690  1.7016
19022TIP3   OH278480   5.197   5.807   2.245  0.2663 -0.6131 -0.5043
19022TIP3    H178481   5.214   5.828   2.154  3.3758  0.8032  0.3346
19022TIP3    H278482   5.268   5.749   2.270 -0.8597 -1.4286  0.8824
19023TIP3   OH278483   4.182   0.609   5.141  0.1327 -0.3351 -0.5180
19023TIP3    H178484   4.242   0.546   5.181 -1.9105 -1.6901  0.4882
19023TIP3    H278485   4.140   0.652   5.215 -1.1782 -0.4208 -1.2044
19024TIP3   OH278486   5.820   3.084   4.672  0.0816 -0.4342  0.5432
19024TIP3    H178487   5.758   3.085   4.745 -1.5626  0.2319 -0.8285
19024TIP3    H278488   5.850   3.174   4.665 -2.0868  0.2029 -1.4737
19025TIP3   OH278489   2.499   2.150  15.836  0.0926 -0.2335  0.4758
19025TIP3    H178490   2.495   2.241  15.805 -0.0371 -0.1070  0.8629
19025TIP3    H278491   2.418   2.110  15.804 -0.2848  0.0354  1.0794
19026TIP3   OH278492   3.842   5.951  15.068  0.3098 -0.0011 -0.2427
19026TIP3    H178493   3.795   5.869  15.052  0.9445 -0.4307  0.0653
19026TIP3    H278494   3.934   5.928  15.058  0.4723  0.7526 -0.4850
19027TIP3   OH278495   3.619   0.178  14.014  0.7615  0.1070 -0.3750
19027TIP3    H178496   3.610   0.120  14.089  2.4216 -0.6799 -0.7682
19027TIP3    H278497   3.601   0.265  14.049 -2.5551 -0.6769  0.0376
19028TIP3   OH278498   0.349   4.919  14.961 -0.0653 -0.3461  0.0811
19028TIP3    H178499   0.328   4.895  15.052 -0.8076 -0.7528 -0.1925
19028TIP3    H278500   0.367   5.013  14.966  0.0687 -0.3988  0.6823
19029TIP3   OH278501   1.868   4.461  14.833  0.5228  0.4598  0.5177
19029TIP3    H178502   1.804   4.393  14.815 -0.0953  1.1270  0.1781
19029TIP3    H278503   1.935   4.418  14.886  0.9585 -0.8292 -1.0483
19030TIP3   OH278504   4.862   3.808  11.088  0.5595 -0.4577  0.2363
19030TIP3    H178505   4.942   3.758  11.105  1.0186 -0.4153 -1.6711
19030TIP3    H278506   4.893   3.888  11.046 -0.4465 -0.1395  0.1006
19031TIP3   OH278507   1.261   4.904   3.592  0.0070  0.1782 -0.7716
19031TIP3    H178508   1.177   4.950   3.587 -1.0989 -1.7342 -0.1342
19031TIP3    H278509   1.259   4.841   3.520  1.4385  0.9563 -1.5217
19032TIP3   OH278510   4.859   3.567   0.866 -0.4266 -0.8931 -0.6365
19032TIP3    H178511   4.952   3.576   0.846 -0.6443  0.8653 -0.9438
19032TIP3    H278512   4.816   3.570   0.780 -0.7746 -1.6880 -0.4943
19033TIP3   OH278513   2.462   2.810   4.499 -0.0173  0.1660  0.3717
19033TIP3    H178514   2.490   2.890   4.455 -0.1878  0.4132  0.7099
19033TIP3    H278515   2.417   2.760   4.431 -0.2529  0.5334  0.2550
19034TIP3   OH278516   6.528   2.705   6.460  0.7328 -0.1172 -0.0529
19034TIP3    H178517   6.599   2.756   6.422  1.9877 -1.2684  0.7159
19034TIP3    H278518   6.531   2.621   6.414 -0.4902  0.0289 -0.4073
19035TIP3   OH278519   0.436   1.213  16.769  0.0889  0.2451  0.1417
19035TIP3    H178520   0.474   1.127  16.787  0.1788  1.0382  4.1756
19035TIP3    H278521   0.350   1.193  16.733 -0.4138 -1.6167  2.1940
19036TIP3   OH278522   3.215   0.185   3.607 -0.3109 -0.8128 -0.7597
19036TIP3    H178523   3.171   0.157   3.526  2.3456 -1.0156 -2.1683
19036TIP3    H278524   3.225   0.279   3.597 -1.2897 -0.6185  0.0165
19037TIP3   OH278525   6.704   4.181   3.631  0.1288  0.2873 -0.3022
19037TIP3    H178526   6.694   4.107   3.571  0.3696 -0.4240  0.5279
19037TIP3    H278527   6.781   4.160   3.683 -0.3032  0.7156  0.5269
19038TIP3   OH278528   0.754   2.490   2.770 -0.2955 -0.1476  0.0834
19038TIP3    H178529   0.706   2.417   2.808  1.0367 -1.2168 -0.2294
19038TIP3    H278530   0.824   2.448   2.718  0.2651  1.3347 -0.3905
19039TIP3   OH278531   0.664   5.070  13.376 -0.1062 -0.2021  0.0420
19039TIP3    H178532   0.728   5.047  13.308 -0.7809 -0.1981 -0.6111
19039TIP3    H278533   0.711   5.129  13.435  0.6450 -0.6187 -0.1343
19040TIP3   OH278534   0.388   5.200   5.427  0.9043  0.0804  0.0521
19040TIP3    H178535   0.445   5.163   5.359  1.7017 -1.0135  1.3037
19040TIP3    H278536   0.329   5.259   5.379  2.1193  0.1002 -1.4481
19041TIP3   OH278537   2.457   2.729  14.516  0.5157 -0.5375  0.2742
19041TIP3    H178538   2.501   2.812  14.499  1.3012 -0.5496  2.1905
19041TIP3    H278539   2.528   2.669  14.541 -0.3246 -1.1349  1.2572
19042TIP3   OH278540   0.369   4.843  14.708  0.3751 -0.5411 -0.4082
19042TIP3    H178541   0.346   4.881  14.793 -0.2772 -1.2787 -0.2441
19042TIP3    H278542   0.332   4.904  14.644  0.4117 -0.2523 -0.1570
19043TIP3   OH278543   5.673   3.454   4.915  0.2331 -0.4263  0.0849
19043TIP3    H178544   5.676   3.469   5.009 -0.9901 -1.7557  0.3435
19043TIP3    H278545   5.618   3.377   4.904  0.2434 -0.2042 -1.7323
19044TIP3   OH278546   6.560   4.597  16.356  0.0897 -0.2837  0.1807
19044TIP3    H178547   6.535   4.539  16.284  1.2544 -1.3282  0.6002
19044TIP3    H278548   6.480   4.609  16.407 -0.5512 -0.1618 -0.8452
19045TIP3   OH278549   3.881   3.058  14.615 -0.5634 -0.1348 -0.1463
19045TIP3    H178550   3.848   2.984  14.665  0.9643 -0.1923  0.8099
19045TIP3    H278551   3.941   3.019  14.552 -0.4660  0.2023 -0.2649
19046TIP3   OH278552   3.542   4.988  12.979 -0.0258  0.1415  0.0354
19046TIP3    H178553   3.535   4.912  13.037  0.1981  0.6276  0.7128
19046TIP3    H278554   3.460   5.035  12.991 -0.1914 -0.0350 -0.4318
19047TIP3   OH278555   0.607   4.635   1.972  0.3211 -0.1084 -0.2936
19047TIP3    H178556   0.537   4.699   1.987  1.0622  1.2288 -2.2444
19047TIP3    H278557   0.628   4.601   2.059 -0.9267  1.4265  0.6405
19048TIP3   OH278558   4.018   5.640   5.676 -0.3284 -0.8431  0.1588
19048TIP3    H178559   3.967   5.656   5.755  2.0337  1.7430  1.2783
19048TIP3    H278560   3.973   5.689   5.608 -0.6179 -0.4178  0.6503
19049TIP3   OH278561   6.781   3.691   3.265  0.2519  0.2460 -0.0116
19049TIP3    H178562   6.692   3.681   3.299 -1.3313 -0.9968 -4.1860
19049TIP3    H278563   6.819   3.604   3.270 -0.7219 -0.4153 -3.1174
19050TIP3   OH278564   2.390   2.081  17.170  0.1166 -0.4585  0.2161
19050TIP3    H178565   2.392   2.035  17.254 -1.2816 -1.6726 -0.4155
19050TIP3    H278566   2.303   2.120  17.166  0.0104 -0.8197 -0.9074
19051TIP3   OH278567   0.181   1.494  16.139  0.6271 -0.3368 -0.3624
19051TIP3    H178568   0.211   1.405  16.157  1.6678  0.5297  2.6703
19051TIP3    H278569   0.090   1.495  16.168  1.4763  0.2956  2.4931
19052TIP3   OH278570   3.597   0.521   4.045 -0.0667  0.2321 -0.1902
19052TIP3    H178571   3.657   0.595   4.038 -1.7898  1.7297  0.5383
19052TIP3    H278572   3.558   0.513   3.958  2.0639 -1.5454 -1.0262
19053TIP3   OH278573   0.975   1.434   4.071  0.0841 -0.7637 -0.4350
19053TIP3    H178574   1.068   1.427   4.047  0.3422 -0.5394  0.4886
19053TIP3    H278575   0.976   1.468   4.160 -0.9030 -0.0744 -0.6811
19054TIP3   OH278576   0.038   4.104   0.138 -1.1782 -0.0612 -0.5032
19054TIP3    H178577  -0.017   4.032   0.109 -2.1155  0.3744  0.1587
19054TIP3    H278578  -0.021   4.161   0.188 -0.0513  0.2193  0.5463
19055TIP3   OH278579   6.385   2.023   5.189  0.0374 -0.7715  0.2769
19055TIP3    H178580   6.311   2.068   5.230 -1.3764 -0.4503 -2.4821
19055TIP3    H278581   6.361   1.931   5.192 -1.1788 -0.5672 -1.8049
19056TIP3   OH278582   4.412   3.895  14.667  0.1325  0.1097 -0.5413
19056TIP3    H178583   4.391   3.961  14.734  1.9232  1.3997 -1.2037
19056TIP3    H278584   4.331   3.845  14.656 -0.4181  0.3482  2.0471
19057TIP3   OH278585   3.486   5.339   0.571 -0.3520  0.3567  0.2503
19057TIP3    H178586   3.547   5.396   0.617  0.8822 -1.5372  1.0149
19057TIP3    H278587   3.510   5.348   0.478 -0.1305  1.0083  0.3655
19058TIP3   OH278588   0.852   2.466   6.622  0.0343 -0.3884  0.6798
19058TIP3    H178589   0.819   2.395   6.677 -0.6555  0.3554  1.2303
19058TIP3    H278590   0.942   2.479   6.653 -0.2914 -0.0930  1.5072
19059TIP3   OH278591   5.903   5.374   5.831  0.0082  0.0157  0.0559
19059TIP3    H178592   5.854   5.410   5.905 -0.1751  0.3958 -0.2482
19059TIP3    H278593   5.900   5.443   5.765 -0.4562 -0.6092 -0.5875
19060TIP3   OH278594   6.143   2.747   1.673  0.4039  0.1652  0.2074
19060TIP3    H178595   6.190   2.692   1.735  0.3675 -0.2071 -0.0944
19060TIP3    H278596   6.054   2.751   1.707  0.4943  0.3391  0.4274
19061TIP3   OH278597   0.046   5.843  15.248 -0.0629 -0.1400  0.5502
19061TIP3    H178598  -0.031   5.804  15.206 -0.8391  1.4644  0.4596
19061TIP3    H278599   0.011   5.898  15.318  1.0263  0.3062  0.7609
19062TIP3   OH278600   4.503   5.459   1.002  0.1611  0.7087  0.4471
19062TIP3    H178601   4.457   5.381   0.971  1.2399  0.3165 -0.1657
19062TIP3    H278602   4.433   5.516   1.035 -0.4136 -1.5913  3.3667
19063TIP3   OH278603   6.144   3.292   4.548 -0.1158  0.3030 -0.4592
19063TIP3    H178604   6.124   3.207   4.586  1.2962  0.5158  0.7991
19063TIP3    H278605   6.059   3.335   4.539 -0.7042 -0.7090  0.1510
19064TIP3   OH278606   2.165   5.000   0.387 -0.3792 -0.3007 -0.3440
19064TIP3    H178607   2.121   5.047   0.458 -0.6079 -1.4120  0.2549
19064TIP3    H278608   2.105   5.004   0.313  1.0930  3.4572 -1.4626
19065TIP3   OH278609   5.990   0.209  10.751  0.5853 -0.1985  0.7166
19065TIP3    H178610   6.080   0.217  10.718  0.7388  0.1736  1.2040
19065TIP3    H278611   5.980   0.117  10.774  0.5977 -0.3837 -0.0276
19066TIP3   OH278612   3.787   2.818  16.114 -0.3009 -0.4798 -0.6437
19066TIP3    H178613   3.822   2.750  16.171 -1.2072 -0.8792 -0.5604
19066TIP3    H278614   3.830   2.899  16.144  1.2603 -1.0888 -1.1556
19067TIP3   OH278615   5.727   5.618  15.786  0.3435  0.2279  0.3715
19067TIP3    H178616   5.817   5.588  15.799  0.4093  0.1139 -0.3499
19067TIP3    H278617   5.732   5.713  15.798  0.6273  0.2628 -0.0256
19068TIP3   OH278618   6.183   5.716   1.362 -0.2234 -0.6372  0.4264
19068TIP3    H178619   6.094   5.687   1.380 -0.1079 -0.1028  1.9836
19068TIP3    H278620   6.205   5.676   1.278 -1.8806 -0.8671  0.0795
19069TIP3   OH278621   3.450   6.448   5.208 -0.2149 -0.1759 -0.0717
19069TIP3    H178622   3.431   6.542   5.200 -0.6747 -0.3118 -0.6459
19069TIP3    H278623   3.459   6.433   5.302  3.7173  1.1935 -0.1344
19070TIP3   OH278624   5.674   0.444  12.218  0.0111  0.2643 -0.3499
19070TIP3    H178625   5.737   0.402  12.160 -1.6224  0.3507 -2.2667
19070TIP3    H278626   5.723   0.462  12.299  2.6789  1.1728 -2.0946
19071TIP3   OH278627   3.144   6.323   0.675  0.2795  0.0471 -0.1256
19071TIP3    H178628   3.169   6.348   0.764  1.5567 -0.6706 -0.2637
19071TIP3    H278629   3.068   6.267   0.686  0.5465 -0.1937  0.5376
19072TIP3   OH278630   5.244   2.907   2.234  0.3135 -0.1376  0.0457
19072TIP3    H178631   5.194   2.979   2.195 -1.2797 -1.7807 -0.9720
19072TIP3    H278632   5.204   2.894   2.320  1.4690  1.0345  0.7961
19073TIP3   OH278633   2.827   0.098   5.973  0.1474 -0.3754  0.2940
19073TIP3    H178634   2.758   0.066   6.031  0.0603 -1.0567 -0.1758
19073TIP3    H278635   2.908   0.074   6.017  0.0823 -0.0259  0.6032
19074TIP3   OH278636   4.381   5.460  16.528  0.2187  0.2077 -0.1079
19074TIP3    H178637   4.315   5.499  16.586  0.5130 -0.3822  0.6260
19074TIP3    H278638   4.401   5.376  16.567  1.4416  0.3991 -0.3029
19075TIP3   OH278639   1.613   4.308   3.584 -0.2631 -0.4470 -0.2361
19075TIP3    H178640   1.616   4.335   3.492  1.3634 -2.0155 -0.6742
19075TIP3    H278641   1.529   4.263   3.593 -0.7182  0.2779 -0.7768
19076TIP3   OH278642   4.029   5.762  14.388 -0.0940 -0.1246 -0.2012
19076TIP3    H178643   4.060   5.672  14.399 -0.0042 -0.0111  0.5259
19076TIP3    H278644   4.100   5.816  14.424 -0.1807  0.2292 -0.5604
19077TIP3   OH278645   5.277   1.136   5.164  0.3231  0.9118 -0.2512
19077TIP3    H178646   5.259   1.202   5.231 -0.6098 -0.3311  0.7403
19077TIP3    H278647   5.195   1.088   5.155  0.6369  0.6772 -1.8523
19078TIP3   OH278648   4.822   0.280  14.609  0.7415  0.6113  0.4205
19078TIP3    H178649   4.898   0.228  14.583 -0.4653 -1.2293  0.4889
19078TIP3    H278650   4.856   0.368  14.623  3.0343 -0.4172  1.4342
19079TIP3   OH278651   0.518   3.359   1.344 -0.2144 -0.1500  0.4004
19079TIP3    H178652   0.490   3.329   1.258 -0.2278 -0.6377  0.5736
19079TIP3    H278653   0.441   3.347   1.400  0.1869 -1.0716  0.7737
19080TIP3   OH278654   1.238   6.776   4.338 -0.1488 -0.1011  0.2518
19080TIP3    H178655   1.261   6.688   4.307  1.9862  0.3018  0.6496
19080TIP3    H278656   1.273   6.780   4.427 -0.3598  1.1162  0.2910
19081TIP3   OH278657   6.569   2.058   0.368 -0.3728 -0.1954  0.5391
19081TIP3    H178658   6.556   2.151   0.347  0.1107 -0.1522  0.4139
19081TIP3    H278659   6.616   2.059   0.452  2.3742 -0.2484 -0.9420
19082TIP3   OH278660   1.771   1.399   5.504 -0.4549  0.4309  0.5369
19082TIP3    H178661   1.756   1.370   5.594  0.4198 -0.3492  0.4339
19082TIP3    H278662   1.712   1.474   5.493 -1.3545 -0.1348  1.4056
19083TIP3   OH278663   5.191   0.791  15.455  0.5713  0.5611  0.0710
19083TIP3    H178664   5.174   0.706  15.496 -2.5643  1.1974  0.2090
19083TIP3    H278665   5.238   0.770  15.375 -1.8078 -1.4902 -0.8371
19084TIP3   OH278666   3.953   6.215  13.629  0.3006 -0.5625  0.3518
19084TIP3    H178667   3.868   6.219  13.672 -0.1913 -0.1173 -0.6249
19084TIP3    H278668   4.005   6.283  13.671 -0.8465  1.2864 -1.1248
19085TIP3   OH278669   0.693   1.672  15.691  0.3317 -0.2000  1.1354
19085TIP3    H178670   0.618   1.614  15.709  1.0303 -1.0037  1.4852
19085TIP3    H278671   0.748   1.622  15.631  0.5999  0.3941  0.8816
19086TIP3   OH278672   3.944   0.618  13.161  0.1263  0.9555 -0.0078
19086TIP3    H178673   3.883   0.572  13.218  0.4872  0.2542 -0.1795
19086TIP3    H278674   3.912   0.600  13.072  0.4832  0.7333 -0.0910
19087TIP3   OH278675   3.821   1.018   1.145 -0.1073  0.6241 -0.1583
19087TIP3    H178676   3.898   1.047   1.193  1.3001 -0.0393 -1.9976
19087TIP3    H278677   3.844   1.028   1.053 -0.5185 -3.7263 -0.8460
19088TIP3   OH278678   6.327   0.161  12.780  0.1607  0.4519 -0.6295
19088TIP3    H178679   6.397   0.223  12.760 -0.2688  0.7570 -1.1789
19088TIP3    H278680   6.306   0.121  12.696 -0.6342  0.6830 -0.5429
19089TIP3   OH278681   2.147   1.149   2.296 -0.4629  0.0880  0.0437
19089TIP3    H178682   2.132   1.172   2.204 -1.0221  0.1278  0.1463
19089TIP3    H278683   2.062   1.161   2.338  0.1513  1.5761  0.8962
19090TIP3   OH278684   0.395   5.068   1.220 -0.7218  0.3810  0.7729
19090TIP3    H178685   0.386   5.150   1.172 -1.3035 -0.7538 -1.1070
19090TIP3    H278686   0.305   5.043   1.242 -0.6924 -0.7040 -0.3086
19091TIP3   OH278687   0.707   2.592   3.287 -0.2891 -0.6663 -0.1089
19091TIP3    H178688   0.688   2.670   3.235  0.9587  0.8531  1.6502
19091TIP3    H278689   0.694   2.620   3.378  0.4931 -2.4244  0.5602
19092TIP3   OH278690   2.857   5.486   5.561  0.2211  0.9562 -0.3127
19092TIP3    H178691   2.923   5.517   5.624 -1.7825  2.9240  0.8842
19092TIP3    H278692   2.885   5.524   5.478  0.8712  1.3697  0.0857
19093TIP3   OH278693   3.080   4.383   1.518 -0.5851  0.0250  0.7145
19093TIP3    H178694   3.116   4.444   1.583  0.0391  0.5452 -0.1100
19093TIP3    H278695   3.101   4.423   1.433  0.0652 -1.4791  0.1495
19094TIP3   OH278696   3.652   3.936  15.840 -0.1659  0.0857  1.0003
19094TIP3    H178697   3.729   3.991  15.857  0.0378 -0.4467  1.8455
19094TIP3    H278698   3.688   3.859  15.795 -0.3168  0.2065  0.6743
19095TIP3   OH278699   5.980   2.938   2.937  0.4121 -0.2102 -0.2046
19095TIP3    H178700   5.923   2.867   2.906  0.7407 -0.9306  0.7998
19095TIP3    H278701   6.067   2.899   2.939  0.9343  0.8792 -1.7019
19096TIP3   OH278702   2.408   0.195   4.621  0.8491 -0.1523 -0.5585
19096TIP3    H178703   2.340   0.132   4.647  1.3012 -1.3894 -2.2993
19096TIP3    H278704   2.481   0.177   4.681  0.5797 -0.5463 -0.3447
19097TIP3   OH278705   2.604   5.527   1.927 -0.4840 -0.0177  0.2596
19097TIP3    H178706   2.572   5.538   2.016 -1.6718  0.3258 -0.1969
19097TIP3    H278707   2.583   5.611   1.884  0.3828 -0.0546 -0.2407
19098TIP3   OH278708   3.508   5.376  16.861 -0.3455  0.2427  0.6403
19098TIP3    H178709   3.529   5.357  16.770 -0.4148 -0.5754  0.7987
19098TIP3    H278710   3.592   5.373  16.907 -0.6080 -1.6016  1.0084
19099TIP3   OH278711   4.267   3.868   0.816 -0.2318 -0.4591  0.4441
19099TIP3    H178712   4.319   3.789   0.830  0.1524 -0.4806 -1.0067
19099TIP3    H278713   4.220   3.852   0.734 -0.6148  0.5630  0.4587
19100TIP3   OH278714   2.169   6.702  11.696 -0.0468 -0.8333 -0.2280
19100TIP3    H178715   2.205   6.790  11.699 -0.1902 -0.8333  2.4657
19100TIP3    H278716   2.087   6.711  11.648  0.0918  0.4287 -0.2305
19101TIP3   OH278717   1.065   1.251  14.145  0.1847  0.1639  0.0341
19101TIP3    H178718   1.087   1.283  14.233 -3.0552 -0.6991  1.2645
19101TIP3    H278719   1.046   1.330  14.095  2.4447  0.6893 -0.0366
19102TIP3   OH278720   1.328   5.606  16.237 -0.0670  0.3024  0.2192
19102TIP3    H178721   1.388   5.539  16.267  0.0996  0.5299  0.3948
19102TIP3    H278722   1.249   5.558  16.211 -0.2277  0.1134  1.0491
19103TIP3   OH278723   1.080   1.989   0.505  0.6957 -0.1750 -0.0103
19103TIP3    H178724   1.175   1.980   0.512  0.6130 -1.6791 -0.5069
19103TIP3    H278725   1.047   1.958   0.590  0.6856  1.4259  0.5919
19104TIP3   OH278726   5.930   0.759  14.915  0.6845 -0.1928  0.1042
19104TIP3    H178727   5.922   0.678  14.865 -0.5843 -0.3622  0.5588
19104TIP3    H278728   5.892   0.826  14.858  1.7194  0.0920 -0.2665
19105TIP3   OH278729   3.419   1.078   5.219  0.5259 -0.2291  0.1262
19105TIP3    H178730   3.425   1.089   5.124 -0.3342 -2.5460 -0.2561
19105TIP3    H278731   3.326   1.094   5.238  0.4267 -1.0217  0.3514
19106TIP3   OH278732   4.101   1.072   1.494  0.1342  0.6651  0.4676
19106TIP3    H178733   4.151   1.136   1.545  2.0147 -1.1931  1.0402
19106TIP3    H278734   4.023   1.119   1.467  1.8902  3.4874  0.0885
19107TIP3   OH278735   1.568   3.632   5.647  0.5731  0.2191  0.1147
19107TIP3    H178736   1.474   3.615   5.637  0.4972  0.4050  0.4807
19107TIP3    H278737   1.610   3.552   5.615  0.2626 -0.1891  0.7018
19108TIP3   OH278738   0.973   5.413   4.649 -0.0577 -0.0069 -0.0489
19108TIP3    H178739   0.972   5.333   4.597 -0.8388 -0.1477  0.1684
19108TIP3    H278740   0.881   5.429   4.669  0.1230  0.7813  0.1627
19109TIP3   OH278741   6.682   1.818  14.204 -0.3618  0.0753 -0.0798
19109TIP3    H178742   6.637   1.737  14.180 -1.0024  0.3706  0.1108
19109TIP3    H278743   6.756   1.823  14.144  0.7527 -1.6012  1.1028
19110TIP3   OH278744   3.581   4.247  16.867 -0.1422 -0.5759  0.0088
19110TIP3    H178745   3.531   4.175  16.828 -0.4638 -0.6745  0.5965
19110TIP3    H278746   3.515   4.299  16.914  0.1021  0.0555 -0.3478
19111TIP3   OH278747   3.968   4.298  17.018 -0.2841  0.3769 -0.2507
19111TIP3    H178748   3.972   4.285  16.923  0.2587  1.7869 -0.4389
19111TIP3    H278749   4.052   4.264  17.050 -0.3027  0.2682 -0.3191
19112TIP3   OH278750   6.775   1.304  11.269  0.0481 -0.3537  0.1733
19112TIP3    H178751   6.766   1.386  11.221 -0.5705  1.5906  3.4197
19112TIP3    H278752   6.698   1.253  11.245 -2.2667  2.1684  1.9664
19113TIP3   OH278753   5.997   2.803   3.676 -0.1183 -0.1184  0.2410
19113TIP3    H178754   5.989   2.867   3.748  0.5714 -1.5101  1.5949
19113TIP3    H278755   6.041   2.851   3.606 -0.7882  1.2683  0.7401
19114TIP3   OH278756   2.184   2.812   4.265 -0.1871 -0.5334  0.0216
19114TIP3    H178757   2.188   2.720   4.241 -0.4186 -0.9013  1.4009
19114TIP3    H278758   2.097   2.841   4.236  0.1989 -0.5174 -1.1696
19115TIP3   OH278759   2.932   5.336   2.057  0.2067 -0.1723  0.5335
19115TIP3    H178760   2.998   5.290   2.109 -1.3307 -0.3461  2.3975
19115TIP3    H278761   2.957   5.319   1.966  2.2419 -0.9095  1.2001
19116TIP3   OH278762   5.455   0.803   2.700 -0.6360 -0.1378 -0.0392
19116TIP3    H178763   5.397   0.853   2.643  0.0068 -0.2674 -0.8229
19116TIP3    H278764   5.411   0.802   2.785 -1.7903 -0.2767 -0.6304
19117TIP3   OH278765   6.355   2.060   4.659 -0.5548 -0.2051 -0.1783
19117TIP3    H178766   6.378   2.053   4.752  1.3063  1.3977 -0.5058
19117TIP3    H278767   6.429   2.022   4.613 -0.4645  1.0649 -1.0916
19118TIP3   OH278768   6.331   3.304  15.023  0.2167 -0.3279 -0.0436
19118TIP3    H178769   6.323   3.311  15.118  2.1182  0.0601  0.0971
19118TIP3    H278770   6.396   3.235  15.010  0.3329 -0.0304 -1.0555
19119TIP3   OH278771   3.132   4.444  13.133 -0.6117  0.6967  0.0989
19119TIP3    H178772   3.091   4.469  13.050 -0.8608  1.7153  0.5246
19119TIP3    H278773   3.226   4.455  13.117 -0.7890  3.2616  0.7105
19120TIP3   OH278774   3.054   1.636   1.004 -0.5386 -0.3224 -0.0419
19120TIP3    H178775   3.012   1.617   0.920 -0.3772  0.0829 -0.2194
19120TIP3    H278776   2.995   1.599   1.070 -0.5718 -0.8045 -0.3433
19121TIP3   OH278777   2.497   5.224   5.492 -0.1182  0.4106  0.0032
19121TIP3    H178778   2.579   5.189   5.527  0.1536  0.6243 -0.4181
19121TIP3    H278779   2.458   5.271   5.566 -0.2701 -0.4007  0.4431
19122TIP3   OH278780   5.506   3.791   3.211 -0.1597 -0.1765  0.0232
19122TIP3    H178781   5.540   3.879   3.201  2.9112 -1.3337 -0.3244
19122TIP3    H278782   5.537   3.762   3.296 -1.2581 -0.8847  0.1936
19123TIP3   OH278783   2.734   4.839  12.630 -0.3588  0.2069 -0.2435
19123TIP3    H178784   2.742   4.887  12.547 -1.2750  0.0667 -0.4084
19123TIP3    H278785   2.789   4.889  12.691 -0.5903  0.9592 -0.6419
19124TIP3   OH278786   3.442   3.532  15.950  0.4315 -0.4163  0.3525
19124TIP3    H178787   3.528   3.567  15.973  0.7146 -1.0913  0.3163
19124TIP3    H278788   3.384   3.608  15.953  1.1898  0.2069 -0.4985
19125TIP3   OH278789   1.779   5.197   1.500  0.5818 -0.3803  0.6946
19125TIP3    H178790   1.720   5.137   1.455 -0.3926  0.0685  1.3668
19125TIP3    H278791   1.860   5.193   1.449  0.4351 -2.0514  0.5676
19126TIP3   OH278792   3.065   3.917  12.087  0.1045  0.0975 -0.3023
19126TIP3    H178793   3.002   3.860  12.132  1.5665 -0.7449  0.7003
19126TIP3    H278794   3.028   3.927  11.999 -1.6297 -0.0722  0.3768
19127TIP3   OH278795   4.604   3.677   2.422 -0.5947 -0.2098  0.5264
19127TIP3    H178796   4.678   3.645   2.369 -2.3784 -2.4990 -0.6525
19127TIP3    H278797   4.565   3.746   2.368  0.1276  0.3751  0.7452
19128TIP3   OH278798   6.470   3.373   3.573  0.0254  0.0674  0.1532
19128TIP3    H178799   6.392   3.430   3.566 -0.4847 -0.7090 -0.6555
19128TIP3    H278800   6.485   3.364   3.667  0.2766  1.7540  0.3047
19129TIP3   OH278801   1.756   3.374  16.345  0.9078 -0.1158  0.1676
19129TIP3    H178802   1.765   3.444  16.280  2.0924  0.0076  0.4513
19129TIP3    H278803   1.731   3.419  16.426  0.1525 -0.1926 -0.0201
19130TIP3   OH278804   3.748   3.259  17.125 -0.4228 -0.0858 -0.3177
19130TIP3    H178805   3.841   3.261  17.106 -0.2154 -2.0129  0.3616
19130TIP3    H278806   3.706   3.271  17.040  0.4768 -3.4603 -1.2998
19131TIP3   OH278807   3.179   6.066   4.946 -0.2613 -0.0399 -0.2524
19131TIP3    H178808   3.257   6.039   4.994  0.9343 -0.2603 -2.2750
19131TIP3    H278809   3.111   6.005   4.976  0.5206 -0.3297  0.9561
19132TIP3   OH278810   5.595   3.910  11.380  0.0279 -0.3218  0.4289
19132TIP3    H178811   5.639   3.977  11.328 -2.5910  0.9814 -0.1838
19132TIP3    H278812   5.502   3.930  11.373 -0.7236 -3.0129  1.6556
19133TIP3   OH278813   2.170   4.164  11.428  0.1680 -0.1095  0.3192
19133TIP3    H178814   2.166   4.127  11.340 -0.2623  0.7937 -0.0461
19133TIP3    H278815   2.256   4.138  11.460  1.0723  1.0992 -1.0614
19134TIP3   OH278816   0.671   2.434  16.505 -0.4358  0.0738  0.1668
19134TIP3    H178817   0.656   2.510  16.560 -1.4067  1.2199 -1.6266
19134TIP3    H278818   0.766   2.426  16.500 -0.3348 -0.3274  2.3412
19135TIP3   OH278819   6.580   6.470  14.691 -0.1463  0.0637 -0.1653
19135TIP3    H178820   6.668   6.443  14.716 -0.9371 -1.7483  0.7641
19135TIP3    H278821   6.564   6.427  14.607 -0.1492  0.4331 -0.3589
19136TIP3   OH278822   6.126   3.120  16.652  0.2315  1.0520 -0.2852
19136TIP3    H178823   6.032   3.117  16.671  0.1662  1.3722 -0.5570
19136TIP3    H278824   6.133   3.087  16.563  0.5327 -0.3956  0.2634
19137TIP3   OH278825   2.680   3.888   3.740 -0.1328 -0.2656  0.3765
19137TIP3    H178826   2.625   3.850   3.672  0.8840 -0.5457 -0.3051
19137TIP3    H278827   2.716   3.813   3.786  0.6798 -0.1158 -0.0036
19138TIP3   OH278828   4.132   3.892   5.323 -0.3815  0.0703 -0.2810
19138TIP3    H178829   4.169   3.929   5.403  0.8517  1.1817 -1.3400
19138TIP3    H278830   4.071   3.825   5.354  1.4732 -0.8480  1.5392
19139TIP3   OH278831   3.753   0.701  12.955 -0.0435 -0.8483  1.0177
19139TIP3    H178832   3.754   0.673  12.863  0.4945  0.2075  0.6960
19139TIP3    H278833   3.678   0.655  12.993 -1.6570  0.4765 -0.5108
19140TIP3   OH278834   1.660   2.493   5.101 -0.0848  0.3105 -0.0353
19140TIP3    H178835   1.648   2.443   5.020 -0.0144  0.5346 -0.1866
19140TIP3    H278836   1.584   2.550   5.105 -0.1787  0.1724  0.1514
19141TIP3   OH278837   5.911   6.096   3.803  0.3079 -0.2382 -0.1018
19141TIP3    H178838   5.973   6.119   3.872  0.5556 -0.5541 -0.2224
19141TIP3    H278839   5.846   6.041   3.846  0.1281  0.0573  0.0137
19142TIP3   OH278840   6.307   2.001  16.747  0.2709 -0.3800 -0.0930
19142TIP3    H178841   6.401   2.013  16.755  0.2447 -0.8162  1.0874
19142TIP3    H278842   6.295   1.947  16.669  1.2525 -3.0008  1.4913
19143TIP3   OH278843   3.378   2.562   4.578 -0.1968  0.6600  0.4068
19143TIP3    H178844   3.355   2.544   4.669  2.9495 -0.3762  1.0350
19143TIP3    H278845   3.401   2.655   4.577  0.6784  0.4496  0.8779
19144TIP3   OH278846   0.523   3.740   0.716  0.6936  0.2367 -0.0322
19144TIP3    H178847   0.610   3.720   0.752  1.3153  0.4442 -1.4080
19144TIP3    H278848   0.523   3.699   0.629 -0.7383 -0.1114  0.1225
19145TIP3   OH278849   4.501   5.778  12.611  0.0416  0.2100  0.0871
19145TIP3    H178850   4.586   5.744  12.586  0.5992  0.4709  1.5749
19145TIP3    H278851   4.483   5.739  12.697 -1.6013 -0.3124 -0.4712
19146TIP3   OH278852   0.369   3.136  10.825 -0.9408  0.5757  0.2899
19146TIP3    H178853   0.340   3.208  10.882  0.3246  1.4945 -0.2011
19146TIP3    H278854   0.402   3.179  10.746  0.4926 -0.5032  0.2787
19147TIP3   OH278855   6.451   5.414   0.442  0.8379 -0.0087 -0.1089
19147TIP3    H178856   6.428   5.486   0.501  1.4520 -0.3773  0.5851
19147TIP3    H278857   6.413   5.440   0.358  0.1315  0.6193  0.3864
19148TIP3   OH278858   0.135   6.656   5.693  0.4867  0.1838  0.0949
19148TIP3    H178859   0.129   6.671   5.599 -1.6520 -0.6334  0.0930
19148TIP3    H278860   0.060   6.601   5.714  1.1781  0.0094  2.2137
19149TIP3   OH278861   0.595   5.294   4.344  0.1909  0.0166 -0.0138
19149TIP3    H178862   0.632   5.208   4.361  0.0557 -0.0050  0.1730
19149TIP3    H278863   0.657   5.355   4.384 -0.0115 -0.0228  0.3595
19150TIP3   OH278864   5.074   2.056   0.417  0.0512 -0.0618  0.2514
19150TIP3    H178865   5.123   2.075   0.497 -0.3261  1.6474  0.0944
19150TIP3    H278866   5.126   1.991   0.371  0.2191 -1.1307  1.9391
19151TIP3   OH278867   5.021   4.509  11.507  0.4977 -0.0461 -0.0101
19151TIP3    H178868   5.019   4.421  11.544  0.7635  0.4454  1.2164
19151TIP3    H278869   5.040   4.565  11.582 -0.5286  1.1400 -0.6381
19152TIP3   OH278870   2.006   1.087   1.299 -0.0083  0.1706  0.0677
19152TIP3    H178871   1.923   1.042   1.315 -0.1109  0.2710 -0.1797
19152TIP3    H278872   1.987   1.148   1.228  0.6131 -0.7732 -0.9352
19153TIP3   OH278873   5.808   6.536   2.665 -0.4188 -0.0027 -0.2712
19153TIP3    H178874   5.784   6.625   2.640 -0.7149 -0.0139 -0.0312
19153TIP3    H278875   5.809   6.487   2.582 -1.8941 -0.1554 -0.2160
19154TIP3   OH278876   0.571   5.984  15.829 -0.1895 -0.2185  0.3898
19154TIP3    H178877   0.649   5.933  15.851 -0.3265 -0.7139 -0.2366
19154TIP3    H278878   0.508   5.963  15.898 -0.0848 -0.5417  0.3888
19155TIP3   OH278879   5.293   0.354   3.813 -0.3577 -0.3530 -0.2619
19155TIP3    H178880   5.213   0.303   3.827 -0.2529 -0.5773 -0.4790
19155TIP3    H278881   5.351   0.296   3.764 -0.0230 -0.2242 -0.0226
19156TIP3   OH278882   0.887   0.759   5.907  0.1856 -0.5748  0.1232
19156TIP3    H178883   0.893   0.664   5.908  2.7099 -0.4364  0.0537
19156TIP3    H278884   0.929   0.785   5.825  2.2704  0.7309  1.5558
19157TIP3   OH278885   1.391   1.582  14.663 -0.0716  0.0750  0.6364
19157TIP3    H178886   1.417   1.674  14.673  0.7276 -0.1279  0.4535
19157TIP3    H278887   1.448   1.534  14.724  0.0409 -0.3835  0.1705
19158TIP3   OH278888   4.321   1.358  13.808 -0.4919 -0.1690 -0.4401
19158TIP3    H178889   4.394   1.413  13.836 -1.3858  0.1514  1.3333
19158TIP3    H278890   4.259   1.362  13.880 -0.4477 -3.7884 -0.1092
19159TIP3   OH278891   0.950   1.519   4.363 -0.2733 -0.0977 -0.1203
19159TIP3    H178892   1.034   1.474   4.371  0.8721  1.6819 -1.4366
19159TIP3    H278893   0.972   1.611   4.376 -1.8132  0.5053 -1.6366
19160TIP3   OH278894   5.101   0.616  16.005 -0.2656  0.1377  0.2251
19160TIP3    H178895   5.063   0.590  16.089 -1.7817  2.8118  0.4151
19160TIP3    H278896   5.169   0.679  16.028  0.2640 -0.1596 -0.4901
19161TIP3   OH278897   1.793   6.636  16.856 -0.4489 -0.1784 -0.3161
19161TIP3    H178898   1.824   6.610  16.942 -0.5955  0.0214 -0.2038
19161TIP3    H278899   1.813   6.560  16.800 -0.3590 -0.3089 -0.1084
19162TIP3   OH278900   4.571   0.920  13.655 -0.1028  0.0897  0.1239
19162TIP3    H178901   4.646   0.923  13.714 -0.7257  0.3188  0.9176
19162TIP3    H278902   4.565   1.008  13.619  1.5467 -0.5951 -1.9170
19163TIP3   OH278903   5.111   5.344  17.136 -0.0580  0.1760  0.3902
19163TIP3    H178904   5.093   5.332  17.229 -3.2988  2.5658  0.1670
19163TIP3    H278905   5.203   5.371  17.133  0.0586  0.1969  2.9317
19164TIP3   OH278906   4.774   1.219   2.332 -0.0137 -0.5651 -0.3276
19164TIP3    H178907   4.730   1.263   2.405  0.0585 -2.8805  1.1740
19164TIP3    H278908   4.711   1.222   2.260 -1.0323 -0.3306  0.5729
19165TIP3   OH278909   6.022   4.769   0.872  0.0458 -0.0598  0.1302
19165TIP3    H178910   6.067   4.692   0.837  0.8468  0.9286 -1.0407
19165TIP3    H278911   5.934   4.764   0.834  0.0226 -0.5277  0.2463
19166TIP3   OH278912   1.443   4.675  13.473  0.1029 -0.6785 -0.1416
19166TIP3    H178913   1.456   4.667  13.567  0.1023 -1.2393 -0.1876
19166TIP3    H278914   1.349   4.659  13.460 -0.0563  0.2169 -0.1528
19167TIP3   OH278915   5.357   4.495  13.226  0.2713  0.3875 -0.0270
19167TIP3    H178916   5.334   4.449  13.146 -1.6085  0.7222  0.3053
19167TIP3    H278917   5.437   4.543  13.203 -0.5651  0.9440 -1.8895
19168TIP3   OH278918   0.597   6.257  16.193  0.3594  0.4380  0.0613
19168TIP3    H178919   0.537   6.331  16.191  0.4046  0.4852  0.4525
19168TIP3    H278920   0.658   6.273  16.121 -0.2574  0.2547 -0.5055
19169TIP3   OH278921   6.266   4.673   4.427  0.4334 -0.2386  0.5000
19169TIP3    H178922   6.324   4.623   4.369 -0.9880 -0.9109 -0.3644
19169TIP3    H278923   6.181   4.670   4.384 -0.1983  0.9593  1.6299
19170TIP3   OH278924   0.349   5.763  16.869 -0.4584  0.0787 -0.2889
19170TIP3    H178925   0.298   5.789  16.946  0.5777  0.3227  0.3290
19170TIP3    H278926   0.286   5.723  16.810 -1.3673  0.4101  0.4527
19171TIP3   OH278927   3.000   1.950  11.281  0.1196 -0.1471  0.5084
19171TIP3    H178928   3.084   1.923  11.320 -0.4110 -1.0650  1.0385
19171TIP3    H278929   3.001   1.909  11.194 -0.5026 -1.5512  1.1536
19172TIP3   OH278930   3.424   0.331   1.464 -0.0617  0.4569  0.4062
19172TIP3    H178931   3.347   0.274   1.472  0.6632 -0.7147 -0.7801
19172TIP3    H278932   3.396   0.402   1.406  0.3292 -1.0322 -1.6523
19173TIP3   OH278933   4.615   6.595  11.807  0.0894 -1.1712 -0.5907
19173TIP3    H178934   4.595   6.656  11.736  0.1557 -0.0820  0.2986
19173TIP3    H278935   4.701   6.623  11.839  0.1192 -1.7300 -0.1716
19174TIP3   OH278936   4.384   1.289  15.494  0.9156 -0.7855  0.0292
19174TIP3    H178937   4.322   1.351  15.533  1.4534  0.4154 -0.9736
19174TIP3    H278938   4.334   1.239  15.431  0.8462 -0.1828 -0.3951
19175TIP3   OH278939   2.199   5.822   1.157 -0.3476  0.8506  0.7126
19175TIP3    H178940   2.215   5.897   1.215  2.0182  0.7763  0.1672
19175TIP3    H278941   2.179   5.861   1.072  0.6982  0.8745  0.4747
19176TIP3   OH278942   2.186   0.371  14.058  0.3487 -0.1076  0.3227
19176TIP3    H178943   2.099   0.359  14.097  0.4784 -1.2149  0.2865
19176TIP3    H278944   2.170   0.369  13.964  0.3929 -0.0920  0.3147
19177TIP3   OH278945   6.382   6.057   4.729  0.4716  0.2492  0.4051
19177TIP3    H178946   6.385   6.056   4.825  1.2891  0.3876  0.3898
19177TIP3    H278947   6.434   6.133   4.705  1.3211 -0.5070 -0.1771
19178TIP3   OH278948   3.990   0.164   3.459 -0.0740  0.4672 -0.2588
19178TIP3    H178949   4.070   0.217   3.460 -0.7242  1.4511  1.0569
19178TIP3    H278950   3.920   0.227   3.444 -0.7768 -0.1567  0.4046
19179TIP3   OH278951   6.237   1.948   1.565 -0.2267  0.4003  0.6411
19179TIP3    H178952   6.254   1.864   1.522 -0.3288  0.9258 -0.4270
19179TIP3    H278953   6.291   1.945   1.644  1.2747  0.1270 -0.3693
19180TIP3   OH278954   2.043   2.281  15.350  0.2431 -0.1481  0.1543
19180TIP3    H178955   2.082   2.288  15.437  0.9706 -1.3013 -0.0638
19180TIP3    H278956   2.019   2.371  15.327 -1.4129 -0.0335  2.2069
19181TIP3   OH278957   5.677   5.533  13.777  0.3170  0.3728  0.2467
19181TIP3    H178958   5.652   5.623  13.796  0.9537  0.7822 -0.8485
19181TIP3    H278959   5.670   5.488  13.862 -0.1734  1.4002  0.7579
19182TIP3   OH278960   4.606   2.496   1.113 -0.7539 -0.2887  0.4493
19182TIP3    H178961   4.616   2.508   1.208  0.4742 -0.5098  0.3615
19182TIP3    H278962   4.583   2.583   1.081 -1.2243 -0.2208  0.9610
19183TIP3   OH278963   0.079   5.295  16.125 -0.5842 -0.5955  0.4447
19183TIP3    H178964   0.063   5.258  16.212  1.1734 -2.9795 -0.1719
19183TIP3    H278965   0.022   5.246  16.067 -0.0760 -0.6100 -0.0494
19184TIP3   OH278966   3.302   4.493  13.954 -0.0689 -0.6042  0.2443
19184TIP3    H178967   3.300   4.507  13.860 -0.0326 -0.1458  0.3133
19184TIP3    H278968   3.218   4.526  13.985  0.6796  1.0060  0.6201
19185TIP3   OH278969   4.557   0.334  16.926 -0.4673  0.6472  0.1867
19185TIP3    H178970   4.512   0.406  16.881 -0.5501  0.1521 -0.5301
19185TIP3    H278971   4.649   0.343  16.901 -0.3570  0.9713  0.7213
19186TIP3   OH278972   2.484   6.175  14.621  0.2989  0.0115  0.6133
19186TIP3    H178973   2.472   6.268  14.604 -0.8856 -0.3314 -0.5474
19186TIP3    H278974   2.415   6.132  14.570  1.2851 -1.5414  0.5393
19187TIP3   OH278975   5.473   1.620   2.908  0.1551  0.3680 -0.1076
19187TIP3    H178976   5.540   1.678   2.944  2.0960 -1.6386 -0.3488
19187TIP3    H278977   5.455   1.557   2.978 -1.4523  0.8542 -0.0652
19188TIP3   OH278978   3.358   6.176  16.339 -0.2494 -0.2431  0.3043
19188TIP3    H178979   3.437   6.203  16.386 -0.7188  0.2622  0.8132
19188TIP3    H278980   3.350   6.083  16.356  0.1450 -0.2605  0.3897
19189TIP3   OH278981   0.316   0.011  14.828  0.7977 -0.1608 -0.5387
19189TIP3    H178982   0.302  -0.023  14.917  0.8633 -0.4634 -0.6424
19189TIP3    H278983   0.228   0.018  14.791  0.6162  1.8682  0.2387
19190TIP3   OH278984   0.635   4.261  17.036 -0.3416  0.0216  0.2955
19190TIP3    H178985   0.606   4.351  17.026 -0.4475 -0.1600 -1.0544
19190TIP3    H278986   0.727   4.269  17.063 -0.6017  0.5272  1.0715
19191TIP3   OH278987   5.499   4.805   5.193  0.7138  0.1348 -0.1716
19191TIP3    H178988   5.563   4.814   5.122 -0.5436 -1.6168 -1.5828
19191TIP3    H278989   5.538   4.741   5.252  1.3803  0.9614  0.2997
19192TIP3   OH278990   2.093   0.805  17.120 -0.0056 -0.2528  1.2342
19192TIP3    H178991   2.045   0.763  17.049 -0.2942 -1.2261  2.0065
19192TIP3    H278992   2.133   0.882  17.079 -0.6944 -0.4547  0.1672
19193TIP3   OH278993   5.478   6.640   3.049 -0.1348  0.0783  0.4152
19193TIP3    H178994   5.461   6.658   2.957  0.4979  0.9777  0.4684
19193TIP3    H278995   5.563   6.597   3.050 -0.9290 -1.5389  0.4330
19194TIP3   OH278996   6.589   1.096   0.743 -0.1641  0.3315 -0.1755
19194TIP3    H178997   6.680   1.121   0.760  0.2634 -1.3876  0.1536
19194TIP3    H278998   6.546   1.101   0.829  0.7320 -3.2304  0.5547
19195TIP3   OH278999   4.338   3.571   0.868 -0.0498  0.2722  0.0684
19195TIP3    H179000   4.257   3.546   0.823 -0.0999 -0.3244  0.4837
19195TIP3    H279001   4.407   3.521   0.825 -0.1586 -0.6532  0.9359
19196TIP3   OH279002   0.074   3.073   2.276  0.0449  0.6600 -0.2064
19196TIP3    H179003  -0.010   3.028   2.269 -0.0721  0.6077  1.4119
19196TIP3    H279004   0.087   3.113   2.190 -1.1651 -0.1488 -0.7797
19197TIP3   OH279005   1.545   0.184  12.005  0.1362  0.2466  0.1419
19197TIP3    H179006   1.456   0.164  11.977 -0.2186  0.0849  1.3562
19197TIP3    H279007   1.542   0.177  12.100  1.1955  1.2803  0.2577
19198TIP3   OH279008   4.021   4.514   1.798 -0.4315 -0.8317 -0.9098
19198TIP3    H179009   3.971   4.560   1.866 -0.0593  1.1049 -1.9058
19198TIP3    H279010   4.110   4.508   1.833 -0.3588 -0.3177 -1.0119
19199TIP3   OH279011   1.808   5.475  12.330  0.1827  0.3816  0.0507
19199TIP3    H179012   1.852   5.550  12.371 -1.5859  0.7876  1.2786
19199TIP3    H279013   1.872   5.404  12.334  1.3055  1.4025  0.3107
19200TIP3   OH279014   0.267   0.628  13.101 -0.6130  0.0221  0.2343
19200TIP3    H179015   0.298   0.542  13.071  0.9181  0.0898  1.5501
19200TIP3    H279016   0.276   0.625  13.196 -0.7986  1.5555  0.3089
19201TIP3   OH279017   6.632   4.033  11.742 -0.1387  0.0458  0.1541
19201TIP3    H179018   6.670   4.061  11.825 -0.3719 -1.1213  0.6737
19201TIP3    H279019   6.592   3.948  11.761 -2.6121  1.0226 -0.5012
19202TIP3   OH279020   2.553   4.089   3.089  0.2786  0.3119  0.1935
19202TIP3    H179021   2.475   4.081   3.144 -0.1219  2.3371 -0.0506
19202TIP3    H279022   2.621   4.041   3.137 -1.4508 -2.7188 -0.2984
19203TIP3   OH279023   1.576   4.562   0.006  0.0637 -0.4991 -0.2403
19203TIP3    H179024   1.632   4.547   0.082 -1.2158 -0.0722  0.7977
19203TIP3    H279025   1.515   4.630   0.034 -0.3572 -0.2782 -1.6810
19204TIP3   OH279026   0.980   6.725  15.005  0.2131 -0.6017  0.1201
19204TIP3    H179027   0.897   6.677  14.998  0.2756 -0.8457  1.0281
19204TIP3    H279028   0.982   6.780  14.927  0.3343 -2.3991 -1.1973
19205TIP3   OH279029   1.744   1.065   2.302  0.4505  0.6360  0.0657
19205TIP3    H179030   1.815   1.104   2.355  0.0705  3.4741 -1.4011
19205TIP3    H279031   1.758   0.971   2.310  3.3224  1.0836  1.2639
19206TIP3   OH279032   2.119   1.103  14.185 -0.2551  0.1096 -0.1789
19206TIP3    H179033   2.063   1.125  14.260  0.9214  1.1977  0.3929
19206TIP3    H279034   2.177   1.179  14.175  0.9061 -0.8667 -0.9787
19207TIP3   OH279035   0.380   2.740   1.301  0.1576  0.2357 -0.4759
19207TIP3    H179036   0.397   2.810   1.363  0.6956 -0.2372 -0.0767
19207TIP3    H279037   0.300   2.699   1.332  0.9330 -0.5948  0.4638
19208TIP3   OH279038   6.527   4.475   1.600  0.1716  0.5145  0.0936
19208TIP3    H179039   6.494   4.496   1.512 -0.0689 -1.8018 -0.4084
19208TIP3    H279040   6.491   4.388   1.619  1.8420  0.1284  1.6632
19209TIP3   OH279041   1.476   1.233   5.754  0.1030 -0.1377  0.1793
19209TIP3    H179042   1.524   1.167   5.705  0.5776 -1.2403  2.0629
19209TIP3    H279043   1.539   1.304   5.766  0.8301 -0.9590  1.3711
19210TIP3   OH279044   3.666   1.238   3.212 -0.1843  0.5068 -0.1768
19210TIP3    H179045   3.618   1.257   3.131  0.9339  0.7687 -0.7789
19210TIP3    H279046   3.756   1.265   3.195  0.0624  0.6177  1.1749
19211TIP3   OH279047   4.404   1.054  11.967 -0.1393 -0.0289 -0.3423
19211TIP3    H179048   4.481   1.111  11.962 -0.7222  0.8042 -0.0898
19211TIP3    H279049   4.338   1.100  11.915 -1.0470  0.2136  0.9973
19212TIP3   OH279050   5.406   0.850   1.473 -0.0373 -0.5860 -0.0245
19212TIP3    H179051   5.397   0.801   1.392 -0.8527 -0.1870 -0.1791
19212TIP3    H279052   5.319   0.885   1.490  0.0180 -1.0381  1.2595
19213TIP3   OH279053   2.384   4.510   1.835 -0.2000  0.1990  0.0693
19213TIP3    H179054   2.331   4.508   1.915  0.6390  2.0366  0.6828
19213TIP3    H279055   2.328   4.468   1.769 -2.3377  1.8478  0.7688
19214TIP3   OH279056   3.930   6.322   1.110  0.2759 -0.7648 -0.2269
19214TIP3    H179057   3.854   6.349   1.161  1.8191 -0.5039  1.9881
19214TIP3    H279058   3.916   6.229   1.094 -0.0503 -0.9255  0.9731
19215TIP3   OH279059   3.099   0.395   2.589  0.1418 -0.1314 -0.1754
19215TIP3    H179060   3.099   0.310   2.633  0.7600  0.0204  0.1201
19215TIP3    H279061   3.126   0.376   2.500 -0.3798 -0.3387 -0.2886
19216TIP3   OH279062   5.131   0.389  12.563  0.1031  0.0684 -0.3265
19216TIP3    H179063   5.067   0.459  12.548 -0.1082  0.3173  1.6011
19216TIP3    H279064   5.216   0.434  12.561 -0.0153  0.3406  0.6378
19217TIP3   OH279065   6.765   0.032   0.617 -0.4780 -0.5669  0.0150
19217TIP3    H179066   6.761  -0.064   0.622 -2.7851 -0.4499  0.7959
19217TIP3    H279067   6.700   0.055   0.551 -1.3301  0.5917  1.2433
19218TIP3   OH279068   0.885   2.217  16.304 -0.2562  0.1066  0.0025
19218TIP3    H179069   0.916   2.129  16.279 -0.3464 -0.0050  0.2883
19218TIP3    H279070   0.896   2.269  16.224  0.9165  0.1400  0.1736
19219TIP3   OH279071   4.469   1.953   6.555  0.5373  0.3621  0.5644
19219TIP3    H179072   4.563   1.959   6.572  0.7452  1.0478 -0.7197
19219TIP3    H279073   4.461   1.886   6.486  0.2807  1.6106 -0.6496
19220TIP3   OH279074   3.618   2.378  13.091  0.2926 -0.3551 -0.8891
19220TIP3    H179075   3.659   2.355  13.007 -0.1964 -1.0273 -0.9445
19220TIP3    H279076   3.535   2.331  13.091 -0.8621  1.6285 -1.1268
19221TIP3   OH279077   3.297   0.609   3.845  0.2569  0.0140 -0.5234
19221TIP3    H179078   3.314   0.682   3.786  1.0690 -0.6771 -1.1576
19221TIP3    H279079   3.202   0.612   3.860  0.4491  1.9450  0.4767
19222TIP3   OH279080   2.518   5.392  11.656 -0.1588 -0.3920 -0.1111
19222TIP3    H179081   2.440   5.401  11.711 -0.4277 -0.2923 -0.5071
19222TIP3    H279082   2.516   5.301  11.627  1.5695 -1.3133  2.4132
19223TIP3   OH279083   1.198   4.248   1.730 -0.1196  0.4154 -0.0325
19223TIP3    H179084   1.113   4.215   1.702 -0.9057  2.4077 -0.0633
19223TIP3    H279085   1.262   4.196   1.680 -1.2986 -0.8786 -0.2234
19224TIP3   OH279086   1.729   1.180   1.537  0.1298 -0.3383 -0.8673
19224TIP3    H179087   1.715   1.128   1.616  0.9669  2.4026  1.1306
19224TIP3    H279088   1.819   1.211   1.544  0.0223  0.4331 -2.6125
19225TIP3   OH279089   5.796   3.181  11.914 -0.6236 -0.0317 -0.0328
19225TIP3    H179090   5.738   3.202  11.840  0.3848  1.1292 -0.5043
19225TIP3    H279091   5.879   3.157  11.872  0.0474  0.9441  0.7477
19226TIP3   OH279092   3.428   3.645  15.447 -0.5832 -0.5676 -0.0586
19226TIP3    H179093   3.380   3.590  15.509  0.1561  1.0400  1.9848
19226TIP3    H279094   3.385   3.730  15.451 -0.9884 -0.6299 -2.3368
19227TIP3   OH279095   6.649   5.710   1.108 -0.2271  0.2531 -0.9237
19227TIP3    H179096   6.608   5.624   1.100  0.2306  0.0104 -0.6808
19227TIP3    H279097   6.657   5.742   1.018 -3.2291  1.3803 -0.8470
19228TIP3   OH279098   1.230   1.540   0.898 -0.0012  0.0029  0.2099
19228TIP3    H179099   1.283   1.464   0.873 -1.1085 -0.7184  0.0272
19228TIP3    H279100   1.291   1.614   0.893  0.8084 -0.7051 -0.7142
19229TIP3   OH279101   1.268   4.665   0.581  0.0347 -0.1117 -0.0336
19229TIP3    H179102   1.175   4.670   0.605 -0.4381 -0.2264 -1.7399
19229TIP3    H279103   1.290   4.572   0.590  0.0531 -0.0384  0.6497
19230TIP3   OH279104   4.764   5.749   3.355  0.4136 -0.1503 -0.2402
19230TIP3    H179105   4.802   5.666   3.382  0.6633  0.2323  0.5782
19230TIP3    H279106   4.674   5.727   3.331  0.7382 -0.8110 -0.8761
19231TIP3   OH279107   5.205   2.283  14.170  0.0494  0.2177 -0.5513
19231TIP3    H179108   5.141   2.219  14.137 -0.6351  1.3647 -1.5039
19231TIP3    H279109   5.259   2.304  14.094  0.1384  0.9154 -0.2986
19232TIP3   OH279110   4.983   1.994  17.214 -0.6900 -0.0595 -0.0696
19232TIP3    H179111   5.009   1.905  17.238 -0.4573 -0.2399 -0.9421
19232TIP3    H279112   5.011   2.002  17.122  1.0990  1.5848  0.5838
19233TIP3   OH279113   4.596   0.393   2.422  0.1641 -0.0332  0.0462
19233TIP3    H179114   4.618   0.447   2.346 -2.2576 -0.4941 -1.0221
19233TIP3    H279115   4.634   0.439   2.496  2.7960  0.3075 -1.4402
19234TIP3   OH279116   0.529   5.476   2.576  0.1259 -0.3861  0.2801
19234TIP3    H179117   0.596   5.525   2.625  1.1366  0.0748 -1.4903
19234TIP3    H279118   0.488   5.543   2.520  0.7535 -1.3191 -1.3420
19235TIP3   OH279119   0.449   1.149  13.673 -0.1756  0.3246  0.2223
19235TIP3    H179120   0.476   1.195  13.593 -1.1344  0.6340  0.0795
19235TIP3    H279121   0.515   1.175  13.738  2.4877 -2.4433 -1.2582
19236TIP3   OH279122   3.645   5.273  15.720 -0.0055 -0.0778  0.1370
19236TIP3    H179123   3.585   5.201  15.741 -0.9352  0.8152  0.5389
19236TIP3    H279124   3.588   5.345  15.693  0.8224  1.0238  1.2572
19237TIP3   OH279125   4.062   1.746  11.303  0.6625 -0.3409  0.2991
19237TIP3    H179126   4.010   1.787  11.372  1.4260 -0.7666  1.1436
19237TIP3    H279127   3.998   1.703  11.246  0.1288 -1.2518  1.5795
19238TIP3   OH279128   3.791   5.653  13.569  0.2936 -0.1429 -0.3090
19238TIP3    H179129   3.881   5.657  13.538 -0.1433 -1.1201 -1.7288
19238TIP3    H279130   3.788   5.574  13.623  0.4051  0.1596  0.1447
19239TIP3   OH279131   0.740   4.652  12.561 -0.0013  0.4912  0.2563
19239TIP3    H179132   0.695   4.568  12.560 -1.2040  1.1239 -1.1346
19239TIP3    H279133   0.833   4.630  12.564 -0.1952 -0.9779 -2.7134
19240TIP3   OH279134   5.072   2.425   3.373  0.3815 -0.0709 -0.1202
19240TIP3    H179135   4.985   2.466   3.370 -0.7978 -2.5783 -1.0546
19240TIP3    H279136   5.109   2.444   3.287  0.5875  0.6027  0.1125
19241TIP3   OH279137   2.676   6.088   0.310 -0.2481 -0.5647 -0.2475
19241TIP3    H179138   2.756   6.138   0.291 -0.2399 -1.0837 -1.6586
19241TIP3    H279139   2.658   6.042   0.228 -1.5530 -1.0667  0.3259
19242TIP3   OH279140   0.684   1.970   2.369 -0.4387 -0.1478 -0.4829
19242TIP3    H179141   0.615   2.035   2.382  1.9129  2.3973 -0.0765
19242TIP3    H279142   0.697   1.968   2.274 -0.9097 -0.4587 -0.5416
19243TIP3   OH279143   6.346   4.043  12.213 -0.4860  0.0943 -0.3175
19243TIP3    H179144   6.415   3.978  12.229  1.1367  1.6029 -1.0282
19243TIP3    H279145   6.268   4.006  12.254  0.4086 -2.3002 -0.7300
19244TIP3   OH279146   0.180   5.752   0.889 -0.0578  0.4093  0.1242
19244TIP3    H179147   0.149   5.669   0.927  2.0999 -0.6904 -0.4559
19244TIP3    H279148   0.275   5.745   0.891  0.1448  1.4459 -3.0407
19245TIP3   OH279149   0.378   0.412  15.994  0.0677 -0.2106  0.0545
19245TIP3    H179150   0.344   0.466  15.923  0.6455 -1.1828 -0.9779
19245TIP3    H279151   0.473   0.417  15.985  0.1916  1.0592  1.8373
19246TIP3   OH279152   1.868   4.181  11.774  0.1162 -0.0821 -0.3465
19246TIP3    H179153   1.773   4.183  11.785  0.3953 -1.0945  2.4921
19246TIP3    H279154   1.896   4.271  11.789 -0.3037  0.0316 -0.2440
19247TIP3   OH279155   4.216   5.776   0.808  0.1401  0.7794  0.1098
19247TIP3    H179156   4.300   5.784   0.852 -0.0698 -1.2313  0.9090
19247TIP3    H279157   4.213   5.850   0.748  1.9323  1.5711  0.9694
19248TIP3   OH279158   2.877   4.850  16.480 -0.2352 -0.3526 -0.4113
19248TIP3    H179159   2.786   4.874  16.463 -0.5500 -1.2645 -0.0989
19248TIP3    H279160   2.925   4.877  16.402 -0.5416  1.3727 -0.0090
19249TIP3   OH279161   6.253   5.989  11.253 -0.0102 -0.4454 -0.0540
19249TIP3    H179162   6.312   6.014  11.182  0.4237 -1.0124  0.1021
19249TIP3    H279163   6.166   6.014  11.222  0.3099  0.3976 -0.2852
19250TIP3   OH279164   3.152   4.056  15.337  0.1551 -0.2648 -0.0156
19250TIP3    H179165   3.159   4.039  15.243  1.9952 -0.9105  0.2272
19250TIP3    H279166   3.073   4.008  15.364  0.0111 -0.6396 -1.0918
19251TIP3   OH279167   0.535   3.906  11.901 -0.2051 -0.2545  0.7344
19251TIP3    H179168   0.624   3.924  11.872 -0.2700 -0.7446  0.2166
19251TIP3    H279169   0.485   3.983  11.875 -0.5470 -1.2938 -1.7353
19252TIP3   OH279170   2.252   2.424   6.672 -0.1354 -0.0211  0.0719
19252TIP3    H179171   2.175   2.437   6.617 -1.2300  0.8627  1.7797
19252TIP3    H279172   2.235   2.341   6.717 -0.2476  0.3255  0.6774
19253TIP3   OH279173   3.917   0.934  11.605  0.3680  0.5130 -0.0904
19253TIP3    H179174   3.866   0.912  11.683 -0.5748  2.5054 -0.1007
19253TIP3    H279175   3.915   0.855  11.551  0.3310 -0.6001  1.5244
19254TIP3   OH279176   6.255   5.882  16.251 -0.4721  0.2879  0.1622
19254TIP3    H179177   6.224   5.908  16.165 -0.5233  0.9121  0.3665
19254TIP3    H279178   6.332   5.938  16.267 -1.0531  0.8778  0.9396
19255TIP3   OH279179   1.746   4.927   3.567  0.3380 -0.0252 -0.3322
19255TIP3    H179180   1.722   5.019   3.558 -0.7710 -0.2949 -0.2432
19255TIP3    H279181   1.769   4.898   3.479 -0.0203  0.1500 -0.4820
19256TIP3   OH279182   4.997   1.459   4.422  0.4051  0.4002  0.1174
19256TIP3    H179183   4.936   1.407   4.475  0.4549  0.8945  0.6754
19256TIP3    H279184   4.996   1.418   4.336 -0.4131  0.1576  0.2389
19257TIP3   OH279185   4.486   4.971   3.898  0.2563  0.3771  0.3981
19257TIP3    H179186   4.559   4.911   3.885  0.2518  0.2983  0.7431
19257TIP3    H279187   4.481   5.021   3.816 -0.3131 -0.7235 -0.2487
19258TIP3   OH279188   0.379   2.883  12.285  0.1777  0.0819  0.6488
19258TIP3    H179189   0.470   2.878  12.314 -0.1304  0.3571  1.7077
19258TIP3    H279190   0.376   2.832  12.205  1.4609  0.8420  0.1034
19259TIP3   OH279191   2.477   0.215   0.682 -0.2165 -0.0152 -0.4189
19259TIP3    H179192   2.492   0.287   0.745 -1.2404  1.0457 -1.3644
19259TIP3    H279193   2.489   0.136   0.734  2.6459  0.7872  0.2657
19260TIP3   OH279194   4.574   6.230  12.022  0.0846 -0.2675  0.0546
19260TIP3    H179195   4.665   6.258  12.005 -0.0593 -0.3218 -0.8532
19260TIP3    H279196   4.543   6.289  12.090  0.5720  0.2355 -0.1522
19261TIP3   OH279197   1.976   5.854  11.388 -0.5752 -0.2199 -0.4639
19261TIP3    H179198   1.932   5.857  11.302 -0.2351  1.8674 -0.6027
19261TIP3    H279199   2.067   5.877  11.369 -0.3129 -0.5747  0.3507
19262TIP3   OH279200   6.686   1.104  13.637 -0.2084 -0.6166 -0.3644
19262TIP3    H179201   6.741   1.066  13.568 -0.6666 -1.2860 -0.3609
19262TIP3    H279202   6.641   1.176  13.593  0.8731  0.1135 -0.2969
19263TIP3   OH279203   4.809   2.238   0.635  0.5439  0.1869 -0.7192
19263TIP3    H179204   4.817   2.237   0.730  1.8126  0.0508 -0.8134
19263TIP3    H279205   4.782   2.149   0.612 -1.2612  0.6259 -0.3906
19264TIP3   OH279206   6.128   4.028  10.984  0.2681 -0.1022  0.4054
19264TIP3    H179207   6.198   4.038  10.919  0.1442  0.0791  0.3032
19264TIP3    H279208   6.082   3.948  10.957 -0.7342  0.8127 -0.6063
19265TIP3   OH279209   6.471   5.773  12.123 -0.3691  0.0224 -0.2486
19265TIP3    H179210   6.417   5.808  12.052 -0.9802 -0.5803 -0.0826
19265TIP3    H279211   6.507   5.691  12.088 -1.7823 -0.9869  0.6202
19266TIP3   OH279212   3.748   6.429  12.694 -0.4279  0.1750  0.6573
19266TIP3    H179213   3.802   6.429  12.773  0.3405 -0.0617  0.1287
19266TIP3    H279214   3.789   6.364  12.637 -1.4923 -0.3003  0.4083
19267TIP3   OH279215   5.262   5.510  12.486 -0.2850 -0.1328 -0.3319
19267TIP3    H179216   5.306   5.463  12.557  1.1329  2.3654  0.5047
19267TIP3    H279217   5.312   5.489  12.408 -0.3332 -0.8992 -0.1562
19268TIP3   OH279218   0.257   0.658   2.369  0.0638 -0.2647  0.1786
19268TIP3    H179219   0.279   0.586   2.310  0.1008 -1.8843  2.1139
19268TIP3    H279220   0.340   0.701   2.387  0.3637 -1.0326  0.6547
19269TIP3   OH279221   1.314   4.435  12.986  0.3740  0.0058 -0.3260
19269TIP3    H179222   1.250   4.378  13.027  1.1249 -0.6290 -0.0109
19269TIP3    H279223   1.277   4.457  12.901 -0.8158  0.6574  0.3504
19270TIP3   OH279224   4.849   6.251   2.790 -0.2666  0.2795 -0.1462
19270TIP3    H179225   4.860   6.307   2.714 -1.1856 -1.9353 -1.9651
19270TIP3    H279226   4.793   6.301   2.849 -1.9644  0.8821 -2.1923
19271TIP3   OH279227   3.722   4.074  12.862 -0.0315  0.1682  0.9805
19271TIP3    H179228   3.689   3.984  12.872  2.2235 -0.7252  0.6515
19271TIP3    H279229   3.728   4.107  12.952 -0.3350 -0.2079  1.1419
19272TIP3   OH279230   1.721   3.927   2.625 -0.0978  0.6825 -0.4550
19272TIP3    H179231   1.666   3.913   2.547 -0.0768 -1.2343 -0.1575
19272TIP3    H279232   1.811   3.922   2.591 -0.0499 -1.9655 -0.0864
19273TIP3   OH279233   0.489   5.567  11.966  0.2438 -0.5099  0.0946
19273TIP3    H179234   0.500   5.634  12.033  3.0635 -0.2947 -0.4927
19273TIP3    H279235   0.403   5.528  11.983 -0.4306  1.6705  1.8556
19274TIP3   OH279236   5.697   4.107   0.338  0.2727  0.6697  0.1416
19274TIP3    H179237   5.687   4.200   0.355 -1.3199  0.6138 -0.3955
19274TIP3    H279238   5.705   4.101   0.243 -2.1042  0.0705 -0.0429
19275TIP3   OH279239   1.619   5.594   2.392 -0.7866  0.0547  0.1239
19275TIP3    H179240   1.578   5.640   2.318 -2.1709 -2.4527 -0.7194
19275TIP3    H279241   1.564   5.618   2.467 -1.1658  0.2245 -0.2002
19276TIP3   OH279242   6.281   3.291   5.607  0.7069 -0.6220 -0.2822
19276TIP3    H179243   6.336   3.219   5.638  1.0698  0.1241  0.8432
19276TIP3    H279244   6.199   3.281   5.654  0.9862  0.0626  0.3708
19277TIP3   OH279245   1.880   6.723  11.685  0.4403  0.0695  0.3501
19277TIP3    H179246   1.848   6.669  11.757  0.0003  0.9368  0.8084
19277TIP3    H279247   1.804   6.775  11.658  0.9438  0.7076  0.1391
19278TIP3   OH279248   1.097   1.461   4.797  0.8114 -0.6268 -0.2048
19278TIP3    H179249   1.178   1.500   4.764  1.9173 -1.4714  1.4888
19278TIP3    H279250   1.047   1.441   4.717  1.1520  2.2051 -1.1715
19279TIP3   OH279251   1.455   0.145   1.045 -0.0561  0.1471 -0.2208
19279TIP3    H179252   1.451   0.204   1.120  1.9473 -1.2284  1.0420
19279TIP3    H279253   1.416   0.063   1.077  2.6912 -1.1253  0.0736
19280TIP3   OH279254   5.486   6.514  12.920 -0.2715 -0.8009  0.2710
19280TIP3    H179255   5.465   6.514  13.014  0.3698  0.0623  0.4236
19280TIP3    H279256   5.445   6.434  12.886 -0.9873 -0.8239  1.1776
19281TIP3   OH279257   1.027   2.787   1.923 -0.2109  0.1446  0.2780
19281TIP3    H179258   1.104   2.841   1.939 -0.4954  0.2107  1.5105
19281TIP3    H279259   0.967   2.810   1.995 -0.9924 -0.5894 -0.1335
19282TIP3   OH279260   3.666   1.127  12.700 -0.0533 -0.1798 -0.2464
19282TIP3    H179261   3.688   1.134  12.793  0.7643  0.8169 -0.5053
19282TIP3    H279262   3.599   1.058  12.696  0.2423 -0.5521  1.0169
19283TIP3   OH279263   3.674   6.670  16.071 -0.5241 -0.8593 -0.0014
19283TIP3    H179264   3.673   6.757  16.110 -0.5078 -0.2856 -1.2588
19283TIP3    H279265   3.763   6.637  16.087 -0.2376 -0.2602 -0.3621
19284TIP3   OH279266   1.970   6.778   1.565  0.4796  0.6760 -0.4162
19284TIP3    H179267   2.023   6.836   1.512 -0.1314  0.1993 -1.5721
19284TIP3    H279268   1.880   6.811   1.555  0.2571  0.1157 -0.3094
19285TIP3   OH279269   4.825   0.137   3.090  0.1066 -0.2052 -0.0660
19285TIP3    H179270   4.847   0.081   3.016 -0.2074  0.4902 -0.6917
19285TIP3    H279271   4.733   0.160   3.077  1.0111  2.9292 -1.5065
19286TIP3   OH279272   5.271   0.820  16.100  0.2430 -0.4041 -0.1548
19286TIP3    H179273   5.340   0.886  16.090 -0.5273 -0.0229 -3.6511
19286TIP3    H279274   5.205   0.862  16.155  1.3180  0.4451  0.5022
19287TIP3   OH279275   2.850   6.042   4.914  0.2318 -0.0098 -0.7014
19287TIP3    H179276   2.828   6.002   4.830  0.3416 -0.5202 -0.4952
19287TIP3    H279277   2.897   5.973   4.961 -0.8433 -0.1301  0.2260
19288TIP3   OH279278   4.020   3.818   3.468  0.3384 -0.2373  0.0508
19288TIP3    H179279   3.927   3.798   3.476 -0.2195  1.5027 -1.7022
19288TIP3    H279280   4.035   3.887   3.533  0.8190 -1.7308  1.5572
19289TIP3   OH279281   4.226   2.713   2.375 -0.4796  0.3549 -0.2320
19289TIP3    H179282   4.268   2.761   2.305 -1.4975  0.4713 -0.7676
19289TIP3    H279283   4.133   2.736   2.369 -0.8229 -0.8683  0.1409
19290TIP3   OH279284   3.230   5.475  10.501 -0.5005  0.2342  0.9301
19290TIP3    H179285   3.202   5.462  10.592 -1.0978  0.4700  0.7852
19290TIP3    H279286   3.151   5.507  10.457  0.0226  0.9551  0.5226
19291TIP3   OH279287   0.302   3.018  15.023 -0.3746 -0.0527 -0.1639
19291TIP3    H179288   0.216   3.056  15.041 -0.3171  0.2109 -0.4274
19291TIP3    H279289   0.348   3.021  15.107 -1.2119 -1.7579  0.3774
19292TIP3   OH279290   2.014   1.297   5.416 -0.3500  0.0008  0.2881
19292TIP3    H179291   1.926   1.317   5.446  0.0759  0.4583  1.2524
19292TIP3    H279292   2.049   1.237   5.482  0.3828  0.5564  0.4124
19293TIP3   OH279293   4.782   0.184   0.455  0.1707 -0.2213 -0.1675
19293TIP3    H179294   4.860   0.201   0.403  0.0041 -0.7947 -0.6163
19293TIP3    H279295   4.808   0.115   0.516 -0.0063 -0.4825 -0.3832
19294TIP3   OH279296   5.577   6.293   0.385 -0.0251 -0.4772 -0.0368
19294TIP3    H179297   5.564   6.199   0.397 -0.4379 -0.3218  0.8091
19294TIP3    H279298   5.665   6.301   0.350  0.1996 -1.1526  0.3602
19295TIP3   OH279299   0.459   4.063   4.476  0.1335 -0.3774  0.2481
19295TIP3    H179300   0.543   4.068   4.431  0.0172 -0.3052  0.0394
19295TIP3    H279301   0.407   4.004   4.423  0.0523 -0.4253  0.3809
19296TIP3   OH279302   1.964   0.674   4.010 -0.6347  0.0683 -0.0511
19296TIP3    H179303   1.967   0.579   4.015 -1.1188  0.0963  0.9602
19296TIP3    H279304   2.033   0.697   3.948 -1.3649 -1.0132 -1.2941
19297TIP3   OH279305   6.229   0.342  13.491  0.0626 -0.9199  0.4984
19297TIP3    H179306   6.255   0.368  13.403  1.2956  0.5342  1.2671
19297TIP3    H279307   6.174   0.265  13.478 -0.5140 -0.1934 -1.5991
19298TIP3   OH279308   0.354   5.204   3.378 -0.7081 -0.4823 -0.1686
19298TIP3    H179309   0.351   5.294   3.410  0.2050 -0.0999 -1.1374
19298TIP3    H279310   0.263   5.175   3.381 -0.6156 -0.6363  3.1805
19299TIP3   OH279311   1.261   4.637   2.343 -0.0340  0.1485  0.1214
19299TIP3    H179312   1.206   4.559   2.333  1.3279 -0.6495 -1.4213
19299TIP3    H279313   1.336   4.608   2.395 -0.4531  0.9212  1.1688
19300TIP3   OH279314   5.241   1.614  15.048  0.6107  0.2385  0.3119
19300TIP3    H179315   5.167   1.670  15.022 -0.6522 -0.3730  2.4323
19300TIP3    H279316   5.300   1.615  14.973 -1.0691  1.5929 -1.0243
19301TIP3   OH279317   0.577   6.609  11.674 -0.2463 -0.3058  0.5142
19301TIP3    H179318   0.490   6.581  11.646 -0.3383  0.3736  0.1108
19301TIP3    H279319   0.637   6.544  11.637 -0.2834  1.0106 -1.9609
19302TIP3   OH279320   6.619   1.635  13.185 -0.1967  0.1620  0.2772
19302TIP3    H179321   6.712   1.638  13.208 -0.3887 -0.0307  1.1057
19302TIP3    H279322   6.615   1.573  13.112  0.4835  1.1246 -0.5873
19303TIP3   OH279323   6.441   0.185  13.041  0.2318 -0.4184 -0.0449
19303TIP3    H179324   6.502   0.232  12.983 -1.5415  1.3655 -0.5128
19303TIP3    H279325   6.411   0.111  12.988  0.6054 -0.2645 -0.4802
19304TIP3   OH279326   3.641   5.534   3.849 -0.4432 -0.3507  0.3117
19304TIP3    H179327   3.696   5.573   3.917  1.5605 -0.2695 -1.2966
19304TIP3    H279328   3.623   5.445   3.880  0.3857 -0.2905  0.9745
19305TIP3   OH279329   1.139   0.401  15.855  0.0698 -0.1749 -0.0310
19305TIP3    H179330   1.199   0.472  15.881  2.4601 -2.2030  0.1800
19305TIP3    H279331   1.127   0.413  15.761  0.1598  0.7156  0.0628
19306TIP3   OH279332   0.132   4.340   5.749  0.3383  0.2259  0.5280
19306TIP3    H179333   0.170   4.390   5.677 -0.0761 -1.2779 -0.7702
19306TIP3    H279334   0.199   4.342   5.817  0.4988  2.1458  0.3402
19307TIP3   OH279335   2.432   0.365   5.092 -0.2366  0.2448  0.8173
19307TIP3    H179336   2.348   0.342   5.053 -0.1341  1.3224 -0.0553
19307TIP3    H279337   2.461   0.284   5.135 -2.1662  0.1386  1.9876
19308TIP3   OH279338   4.255   1.546   3.079  0.2328  0.3466 -0.1531
19308TIP3    H179339   4.289   1.494   3.152  1.0395  2.5473  1.0877
19308TIP3    H279340   4.172   1.580   3.110  0.2673  0.7581 -0.5135
19309TIP3   OH279341   4.676   5.155   1.718 -0.3763 -0.2836  0.5466
19309TIP3    H179342   4.729   5.222   1.760 -0.1740 -1.3486  2.0162
19309TIP3    H279343   4.740   5.100   1.671 -0.4593  0.0539  0.0351
19310TIP3   OH279344   1.493   5.105  13.080  0.0458 -0.1774  0.1900
19310TIP3    H179345   1.573   5.062  13.110 -0.0456 -0.1425  0.4864
19310TIP3    H279346   1.511   5.199  13.091  0.3595 -0.1247 -0.7429
19311TIP3   OH279347   4.649   4.982  12.904  0.3340 -0.4014  0.2727
19311TIP3    H179348   4.651   5.029  12.820 -0.2003  0.8673  0.9646
19311TIP3    H279349   4.597   4.904  12.886  1.2449 -0.7629 -0.8907
19312TIP3   OH279350   2.860   4.985  14.141 -0.4188 -0.3719 -0.1941
19312TIP3    H179351   2.940   5.022  14.179  0.2250 -1.0168 -0.9047
19312TIP3    H279352   2.865   5.009  14.048 -0.1098 -2.0574 -0.6172
19313TIP3   OH279353   2.072   4.585   0.480  0.3527 -0.2503  0.2476
19313TIP3    H179354   2.114   4.671   0.484 -0.0245 -0.1196  1.8242
19313TIP3    H279355   2.065   4.565   0.387  4.5149 -0.5730 -0.0767
19314TIP3   OH279356   2.074   2.262  17.047  0.0558  0.0470  0.1343
19314TIP3    H179357   2.061   2.228  16.958  0.1254 -1.5914  0.7433
19314TIP3    H279358   2.038   2.194  17.104  0.1434  1.0255  1.3695
19315TIP3   OH279359   2.787   3.200  12.716  0.7438  0.2561 -0.2941
19315TIP3    H179360   2.721   3.170  12.653 -0.3585 -0.9200  1.4063
19315TIP3    H279361   2.754   3.284  12.747 -0.9343 -1.2176  1.9707
19316TIP3   OH279362   5.947   0.232   3.218  0.3785 -0.4939 -0.7652
19316TIP3    H179363   6.012   0.187   3.164 -0.3177 -1.2796 -0.9644
19316TIP3    H279364   5.882   0.264   3.155  0.5434  0.2392 -0.5648
19317TIP3   OH279365   1.056   3.731   4.186  0.5945 -0.1137 -0.3203
19317TIP3    H179366   0.964   3.741   4.212  0.8661  1.6238  0.0471
19317TIP3    H279367   1.053   3.673   4.110 -0.7882 -0.2203 -0.2038
19318TIP3   OH279368   5.298   3.203  15.175  0.1395  0.1456 -0.1925
19318TIP3    H179369   5.232   3.149  15.131 -2.1291  2.1080  0.6938
19318TIP3    H279370   5.269   3.209  15.266  1.6176  0.9269  0.2510
19319TIP3   OH279371   1.484   0.188  17.067  0.8324 -0.6993  0.4479
19319TIP3    H179372   1.523   0.178  17.154  2.2040 -1.2073 -0.2221
19319TIP3    H279373   1.389   0.191  17.084  0.9390 -3.2803  1.7261
19320TIP3   OH279374   0.541   1.940  16.496 -0.2212 -0.2308  0.5026
19320TIP3    H179375   0.591   2.006  16.448 -1.4281  0.2698 -0.0803
19320TIP3    H279376   0.567   1.857  16.456  1.0224 -0.0869  0.9944
19321TIP3   OH279377   5.046   0.302   4.989  0.4461  0.1958 -0.1241
19321TIP3    H179378   5.040   0.240   4.916 -0.3922  0.1057  0.0240
19321TIP3    H279379   5.121   0.358   4.967  0.8617 -0.5163 -0.5285
19322TIP3   OH279380   3.175   5.477   2.628  0.6188  0.2470  0.2455
19322TIP3    H179381   3.117   5.453   2.701  2.0112 -0.6895  1.0806
19322TIP3    H279382   3.149   5.566   2.605 -1.0990 -0.1290  0.6395
19323TIP3   OH279383   1.864   2.418   2.698  0.3254 -0.2695 -0.8413
19323TIP3    H179384   1.812   2.457   2.768  0.2003 -0.0694 -1.0417
19323TIP3    H279385   1.854   2.479   2.625 -2.0972 -2.0211 -2.0433
19324TIP3   OH279386   6.111   1.334  14.844  0.1516 -0.4110 -0.3382
19324TIP3    H179387   6.203   1.362  14.845  0.4288 -1.3090  0.7503
19324TIP3    H279388   6.103   1.281  14.765  0.3542  0.3562 -0.8773
19325TIP3   OH279389   6.680   3.383   1.850 -0.1465  0.2747 -0.0249
19325TIP3    H179390   6.702   3.449   1.915  1.0201  0.1810 -0.3223
19325TIP3    H279391   6.615   3.426   1.794 -0.0269  0.8760  0.2938
19326TIP3   OH279392   3.443   3.808   5.139  0.2919 -0.4870  0.0665
19326TIP3    H179393   3.484   3.841   5.219  1.3197 -0.3193 -0.5170
19326TIP3    H279394   3.488   3.855   5.068 -2.0573  0.9161 -0.5218
19327TIP3   OH279395   1.463   0.109   4.648  0.3899  0.5125  0.2899
19327TIP3    H179396   1.438   0.202   4.645 -0.1883  0.4100  1.6327
19327TIP3    H279397   1.517   0.101   4.727 -0.9484 -0.6255  1.1055
19328TIP3   OH279398   0.761   4.169  10.991  0.3327  0.6909  0.4022
19328TIP3    H179399   0.818   4.178  10.914  1.1162 -2.3551  0.5719
19328TIP3    H279400   0.697   4.103  10.965 -0.6144  1.1152  1.6697
19329TIP3   OH279401   4.844   6.246   5.274  0.2971 -0.4520  0.1589
19329TIP3    H179402   4.925   6.225   5.227  0.5056  0.2161  0.2093
19329TIP3    H279403   4.774   6.208   5.221  0.7777 -2.8478  1.1894
19330TIP3   OH279404   2.915   3.150   1.710  0.2788  0.3709 -0.0030
19330TIP3    H179405   2.992   3.153   1.766 -1.2395  0.1540  2.1425
19330TIP3    H279406   2.883   3.060   1.718  0.3993  0.1603 -1.7366
19331TIP3   OH279407   5.299   0.098  14.865 -0.0082 -0.5344 -0.8182
19331TIP3    H179408   5.345   0.027  14.820 -0.5644 -1.0707 -0.5456
19331TIP3    H279409   5.284   0.065  14.954 -0.2744 -0.0790 -0.6912
19332TIP3   OH279410   3.599   3.886   3.277  0.1696  0.3530 -0.1484
19332TIP3    H179411   3.516   3.846   3.250  0.5480  0.4789 -1.5722
19332TIP3    H279412   3.598   3.972   3.235  0.1512  1.1468  1.4379
19333TIP3   OH279413   1.326   1.433  11.397 -0.1362  0.4158  0.0868
19333TIP3    H179414   1.316   1.420  11.303 -1.0674  1.4553  0.0319
19333TIP3    H279415   1.421   1.437  11.411  0.1097 -2.4549 -0.4054
19334TIP3   OH279416   0.076   1.784  12.502 -0.4169 -0.5172  0.0725
19334TIP3    H179417   0.114   1.779  12.415  0.0620 -1.1288  0.3126
19334TIP3    H279418   0.077   1.694  12.534  0.2229 -0.1683  1.0488
19335TIP3   OH279419   3.691   5.528   1.205 -0.4017 -0.1041 -0.5163
19335TIP3    H179420   3.783   5.552   1.196 -0.6347 -0.0537 -3.0279
19335TIP3    H279421   3.690   5.433   1.192 -0.7316 -0.0838 -0.6313
19336TIP3   OH279422   1.599   3.180   1.919 -0.2935 -0.1419  0.3174
19336TIP3    H179423   1.543   3.105   1.939 -2.6424  0.7957 -2.2905
19336TIP3    H279424   1.630   3.164   1.829  0.6341  1.1449  0.3854
19337TIP3   OH279425   6.413   1.348   3.758  0.6403  0.4510  0.1402
19337TIP3    H179426   6.337   1.378   3.709  0.5005 -0.5538 -0.2720
19337TIP3    H279427   6.459   1.428   3.783 -0.8858  1.0870  0.9426
19338TIP3   OH279428   2.040   4.619   1.152  0.4035 -0.2899  0.2778
19338TIP3    H179429   2.088   4.556   1.097 -0.0396 -0.3398 -0.0532
19338TIP3    H279430   2.038   4.578   1.238 -0.3995 -1.0140 -0.0766
19339TIP3   OH279431   3.774   0.504   2.811 -0.8808  0.3798 -0.3763
19339TIP3    H179432   3.806   0.513   2.900  2.0720 -0.7775 -1.2569
19339TIP3    H279433   3.755   0.593   2.783 -0.3458  0.8965  0.8831
19340TIP3   OH279434   3.683   5.562  13.116  0.4369 -0.1791  0.0311
19340TIP3    H179435   3.776   5.563  13.136  0.0172 -1.2173  2.1186
19340TIP3    H279436   3.673   5.487  13.057  0.5222 -1.7730  1.9904
19341TIP3   OH279437   1.362   6.186  12.664 -0.1765 -0.6578  0.3126
19341TIP3    H179438   1.267   6.193  12.673 -0.1688  0.0029 -0.1097
19341TIP3    H279439   1.397   6.243  12.732 -0.0870 -0.0800 -0.2228
19342TIP3   OH279440   4.607   0.049  15.002 -0.2382  0.4084 -0.0250
19342TIP3    H179441   4.699   0.036  15.025 -0.0582 -0.2623 -1.0573
19342TIP3    H279442   4.593   0.143  15.011  0.5702  0.5237  0.0697
19343TIP3   OH279443   6.252   4.567  12.586  0.2673  0.1838  0.2740
19343TIP3    H179444   6.318   4.505  12.556  0.2161  0.0655  0.4042
19343TIP3    H279445   6.274   4.584  12.677  1.1501  1.5075 -0.1833
19344TIP3   OH279446   2.618   1.081  13.647 -0.3985  0.1746  0.0368
19344TIP3    H179447   2.599   0.989  13.669  0.6886  0.0789  0.6283
19344TIP3    H279448   2.712   1.082  13.632 -0.3085  1.3214  0.6630
19345TIP3   OH279449   5.833   3.585   5.945 -0.1266 -0.4901  0.2954
19345TIP3    H179450   5.906   3.638   5.911  0.9322 -1.5913  0.8329
19345TIP3    H279451   5.786   3.556   5.866 -1.3133  2.0415  0.0275
19346TIP3   OH279452   3.559   1.587   6.594  0.2743  0.3843  0.8380
19346TIP3    H179453   3.483   1.530   6.580 -0.2097  1.5704 -1.5819
19346TIP3    H279454   3.634   1.534   6.565 -0.2790  1.2416 -2.4459
19347TIP3   OH279455   5.575   2.131   1.540 -0.8823  0.3385 -0.3514
19347TIP3    H179456   5.504   2.096   1.485  1.9276 -1.5095 -2.9283
19347TIP3    H279457   5.590   2.064   1.606 -1.0235  0.4053 -0.2503
19348TIP3   OH279458   0.569   4.533  11.832  0.4825 -0.2973  0.0705
19348TIP3    H179459   0.591   4.499  11.919  0.7532 -1.4531 -0.4420
19348TIP3    H279460   0.625   4.611  11.822  1.2760 -0.8121  0.4695
19349TIP3   OH279461   3.552   0.252   3.598 -0.0639  0.2137  0.4227
19349TIP3    H179462   3.516   0.317   3.537  1.0785  0.7792  0.3268
19349TIP3    H279463   3.476   0.215   3.642 -1.0954 -1.4446 -2.5526
19350TIP3   OH279464   0.332   3.478   1.730 -0.1226  0.7328 -0.2403
19350TIP3    H179465   0.416   3.447   1.695 -0.3037  0.1221 -0.1442
19350TIP3    H279466   0.343   3.573   1.738 -0.0372  0.8774 -1.8412
19351TIP3   OH279467   3.768   6.483   1.288 -0.1810  0.2858  0.2681
19351TIP3    H179468   3.752   6.576   1.302 -0.6200  0.4911 -1.5468
19351TIP3    H279469   3.784   6.448   1.376  0.6558  2.1866  0.8870
19352TIP3   OH279470   0.104   5.791   1.238  0.4404  0.0401  0.4715
19352TIP3    H179471   0.024   5.743   1.217  0.6791 -0.4150  0.5974
19352TIP3    H279472   0.114   5.855   1.168 -0.0230  0.0817  0.4451
19353TIP3   OH279473   3.526   2.293   0.418 -0.1183 -0.1078  0.3658
19353TIP3    H179474   3.510   2.211   0.465  0.8999 -1.1273 -1.0076
19353TIP3    H279475   3.570   2.266   0.337  4.1808  2.1502  1.8157
19354TIP3   OH279476   3.849   1.217  12.505 -0.8888  0.1832  0.0779
19354TIP3    H179477   3.907   1.145  12.484 -1.5045 -0.2831 -0.0314
19354TIP3    H279478   3.803   1.189  12.584 -2.8193 -0.5511 -1.2636
19355TIP3   OH279479   6.755   6.675   3.239  0.2931  0.1686  0.3623
19355TIP3    H179480   6.688   6.642   3.181  0.2663  1.7049 -0.5005
19355TIP3    H279481   6.729   6.645   3.326  0.1371 -1.8132 -0.3518
19356TIP3   OH279482   1.329   2.007  13.935  0.2228  0.2605  0.0413
19356TIP3    H179483   1.290   2.079  13.886  0.7806  0.1488 -0.5647
19356TIP3    H279484   1.414   2.041  13.963 -0.6488  0.8213  2.1084
19357TIP3   OH279485   5.397   3.812   4.700 -0.5927  0.0218 -0.6496
19357TIP3    H179486   5.458   3.804   4.628  1.1796 -1.6081  0.9858
19357TIP3    H279487   5.398   3.727   4.743 -1.3872  1.0314  1.4731
19358TIP3   OH279488   1.569   3.384   1.534 -0.1657 -0.2717 -0.0585
19358TIP3    H179489   1.601   3.433   1.610  2.5296 -1.4072 -0.4096
19358TIP3    H279490   1.531   3.450   1.477 -0.3023  0.8582  1.3134
19359TIP3   OH279491   1.981   6.254  11.405 -0.1115  0.2975 -0.7818
19359TIP3    H179492   1.987   6.216  11.493  1.6398  0.8873 -0.6305
19359TIP3    H279493   2.071   6.252  11.372 -0.7614  0.0229 -2.5941
19360TIP3   OH279494   0.563   2.566  12.836  0.0983  0.2482  0.4194
19360TIP3    H179495   0.618   2.632  12.878 -2.9282  2.8462  0.4953
19360TIP3    H279496   0.527   2.515  12.908 -0.8405  1.2392  0.6670
19361TIP3   OH279497   5.158   4.120  17.040  0.0840  0.3325  0.2438
19361TIP3    H179498   5.173   4.121  16.946 -0.8947 -1.2255  0.0450
19361TIP3    H279499   5.207   4.044  17.071  1.9749  1.9225  1.3089
19362TIP3   OH279500   0.723   3.398  11.010 -0.1989 -0.1767  0.1235
19362TIP3    H179501   0.709   3.345  10.931 -0.5292  1.1239 -0.6984
19362TIP3    H279502   0.635   3.418  11.042 -0.0671 -1.0345  1.0775
19363TIP3   OH279503   6.633   3.850  10.966  0.3623 -0.0721  0.4015
19363TIP3    H179504   6.678   3.903  10.901  0.7410  0.5395  1.1525
19363TIP3    H279505   6.702   3.822  11.026 -0.0207 -0.4160  0.6851
19364TIP3   OH279506   4.187   0.637  12.893  0.3112 -0.0224  0.3207
19364TIP3    H179507   4.168   0.547  12.918 -2.3455  0.4649  0.2050
19364TIP3    H279508   4.213   0.679  12.974 -1.1521 -0.2495  0.9335
19365TIP3   OH279509   3.549   3.420   2.763  0.6067 -0.2148  0.4853
19365TIP3    H179510   3.624   3.380   2.720  2.2178  1.1993  1.9111
19365TIP3    H279511   3.524   3.492   2.705  0.7247 -0.3261  0.2971
19366TIP3   OH279512   5.812   1.363  15.210 -0.0714 -0.2696 -0.4610
19366TIP3    H179513   5.902   1.355  15.177 -0.2814 -1.2047 -0.8281
19366TIP3    H279514   5.815   1.324  15.298  0.2602  1.2971  0.2469
19367TIP3   OH279515   3.912   1.080  13.643  0.2688 -0.3677  0.2715
19367TIP3    H179516   3.835   1.066  13.698  1.1738 -0.1864  1.6002
19367TIP3    H279517   3.957   0.995  13.642  0.2435 -0.3771 -0.2075
19368TIP3   OH279518   2.398   3.567   1.811 -0.0433  0.1077  0.2319
19368TIP3    H179519   2.485   3.544   1.842  0.0912 -0.1504 -0.3402
19368TIP3    H279520   2.355   3.483   1.796 -0.6289  0.2265  1.1565
19369TIP3   OH279521   0.211   1.728   5.083 -0.2883  1.2425 -0.3449
19369TIP3    H179522   0.129   1.717   5.132  0.0371 -0.0357 -0.0832
19369TIP3    H279523   0.193   1.690   4.997  0.0125  1.0261 -0.3108
19370TIP3   OH279524   2.790   1.423   2.378 -0.6391  0.1031  0.1695
19370TIP3    H179525   2.764   1.337   2.344 -0.7095  0.1477  0.1104
19370TIP3    H279526   2.754   1.486   2.314 -0.2613  0.1569  0.0086
19371TIP3   OH279527   3.646   0.665  15.433 -0.2276 -0.2068  0.1847
19371TIP3    H179528   3.672   0.577  15.461  0.4227 -0.2415 -0.5065
19371TIP3    H279529   3.686   0.676  15.347  1.8749  1.7528  1.3570
19372TIP3   OH279530   0.405   6.503  10.858  0.1066 -0.2870 -0.0675
19372TIP3    H179531   0.331   6.459  10.816  1.2983 -2.7466  0.3130
19372TIP3    H279532   0.423   6.578  10.801 -2.0899 -0.1577 -0.6477
19373TIP3   OH279533   2.627   5.039   6.939  0.0057  0.0343 -0.8860
19373TIP3    H179534   2.674   5.114   6.975  2.4442 -2.0272  0.4689
19373TIP3    H279535   2.678   5.013   6.862 -0.3277 -0.7171 -0.8631
19374TIP3   OH279536   2.589   0.100   3.508 -0.1191 -0.4114  0.6426
19374TIP3    H179537   2.637   0.033   3.460 -2.2490 -0.9581 -0.8306
19374TIP3    H279538   2.594   0.073   3.599 -0.5999 -2.3816  0.1112
19375TIP3   OH279539   0.193   6.472  13.843  0.2561 -0.1901 -0.4823
19375TIP3    H179540   0.199   6.567  13.854 -0.3211 -0.3304  1.1161
19375TIP3    H279541   0.121   6.445  13.900  1.9576 -1.8766  0.9490
19376TIP3   OH279542   0.556   5.347  11.218 -0.1537 -0.4510 -0.0378
19376TIP3    H179543   0.502   5.334  11.296 -0.8724 -0.6877 -0.5666
19376TIP3    H279544   0.535   5.273  11.161  0.9312 -0.6940 -0.1424
19377TIP3   OH279545   0.312   3.012   5.769  0.3989  0.5099  0.6913
19377TIP3    H179546   0.281   3.096   5.737  1.5514  0.5325 -0.3787
19377TIP3    H279547   0.365   3.033   5.846  1.9081  0.9122 -0.4326
19378TIP3   OH279548   3.184   4.363   2.242  0.2265 -0.2066 -0.1322
19378TIP3    H179549   3.252   4.296   2.250 -0.6212 -1.0372  0.2497
19378TIP3    H279550   3.107   4.323   2.282 -0.7677  0.3113 -1.4862
19379TIP3   OH279551   6.192   2.000  16.370  0.4374  0.2751  0.2231
19379TIP3    H179552   6.272   1.985  16.319  1.2219  1.1682  1.1779
19379TIP3    H279553   6.151   1.914  16.376  1.4751 -0.2430 -0.0275
19380TIP3   OH279554   0.253   3.719  17.232  0.3583  0.2360 -0.5878
19380TIP3    H179555   0.178   3.695  17.286  0.6620 -1.5087 -0.9122
19380TIP3    H279556   0.256   3.814  17.236 -1.6120  0.2987 -0.2232
19381TIP3   OH279557   4.914   3.364   2.542  0.2097 -0.0042  0.4987
19381TIP3    H179558   4.897   3.438   2.483 -1.1319  0.0283  0.9184
19381TIP3    H279559   4.851   3.375   2.613  0.8212 -0.8817  1.1832
19382TIP3   OH279560   4.842   0.817  12.810  0.4334  0.6958 -0.2968
19382TIP3    H179561   4.898   0.812  12.887  0.8198  2.4302 -0.4375
19382TIP3    H279562   4.772   0.754  12.826  0.2618  1.3761  1.6721
19383TIP3   OH279563   6.748   3.253  16.655  0.2466 -0.3935  0.4494
19383TIP3    H179564   6.699   3.206  16.587  0.6295 -0.4258  0.1929
19383TIP3    H279565   6.818   3.297  16.607 -1.4904  2.3708  0.3605
19384TIP3   OH279566   4.340   2.499   4.618  0.1473  0.4532  0.0720
19384TIP3    H179567   4.323   2.558   4.692  2.2438 -0.8141  1.6390
19384TIP3    H279568   4.359   2.414   4.659 -1.4374 -0.9783 -2.0789
19385TIP3   OH279569   0.287   4.743   3.254  0.1120 -0.1561  0.2098
19385TIP3    H179570   0.311   4.653   3.275  0.6920 -0.2177 -0.6797
19385TIP3    H279571   0.332   4.797   3.318  1.6068 -0.3562 -0.6545
19386TIP3   OH279572   2.892   3.183   2.639  0.1333  0.4564  0.1733
19386TIP3    H179573   2.907   3.200   2.732 -0.1588 -0.9925  0.5029
19386TIP3    H279574   2.798   3.198   2.628  0.4330  2.1706 -0.2518
19387TIP3   OH279575   4.885   1.241  11.104  0.1479  0.4692  0.0778
19387TIP3    H179576   4.835   1.241  11.023  0.3930 -0.9709 -0.0963
19387TIP3    H279577   4.961   1.295  11.086  1.5387 -1.9370 -1.5346
19388TIP3   OH279578   5.521   1.794   3.173  0.4616 -0.3111 -0.1184
19388TIP3    H179579   5.568   1.855   3.230  0.5946  0.0423 -0.6096
19388TIP3    H279580   5.583   1.776   3.102  0.3233 -0.8101 -0.1134
19389TIP3   OH279581   1.643   4.232  16.773  0.5817 -0.1461 -0.0344
19389TIP3    H179582   1.571   4.238  16.835 -1.1145  0.5350 -2.0207
19389TIP3    H279583   1.671   4.140  16.776  0.3633 -0.1671  1.5278
19390TIP3   OH279584   1.244   2.471  14.447  0.2543 -0.1482 -0.0114
19390TIP3    H179585   1.305   2.401  14.424  1.3370  0.8810 -0.3322
19390TIP3    H279586   1.295   2.551  14.437 -1.0948  0.7189 -0.0684
19391TIP3   OH279587   1.955   0.938  10.468 -0.3615 -0.1169  0.0364
19391TIP3    H179588   1.899   0.867  10.437 -3.3092  2.6203 -1.1692
19391TIP3    H279589   1.929   0.952  10.558 -0.8610  0.4273 -0.1896
19392TIP3   OH279590   1.639   2.787  14.941 -0.3956 -0.1923  0.5268
19392TIP3    H179591   1.620   2.793  15.034  1.2196 -0.2208  0.8717
19392TIP3    H279592   1.728   2.822  14.932 -1.3486  1.9333 -1.3091
19393TIP3   OH279593   3.043   6.280  13.336  0.2759  0.7649  0.0740
19393TIP3    H179594   2.989   6.288  13.257  1.3476  1.4835 -0.6099
19393TIP3    H279595   3.071   6.189  13.336 -1.2310  0.2918  0.6386
19394TIP3   OH279596   3.734   2.319   0.644  0.1649 -0.0967  0.1740
19394TIP3    H179597   3.663   2.312   0.580 -0.8699  0.4362  1.2458
19394TIP3    H279598   3.772   2.231   0.646 -0.2131 -0.2878 -0.6946
19395TIP3   OH279599   2.452   3.065  12.601 -0.2586  0.0550 -0.2194
19395TIP3    H179600   2.454   3.129  12.673 -0.5499  2.3555 -2.1935
19395TIP3    H279601   2.527   3.089  12.546 -0.3948 -1.2950 -1.0058
19396TIP3   OH279602   4.986   0.681   3.185  0.0779  0.1614  0.1811
19396TIP3    H179603   5.061   0.626   3.167  0.0055  0.3805 -0.8403
19396TIP3    H279604   5.022   0.759   3.228  0.1596 -0.7298  1.7570
19397TIP3   OH279605   3.310   2.578   4.194  0.0510  0.1598  0.1109
19397TIP3    H179606   3.313   2.483   4.189  0.0777  0.1884 -0.4975
19397TIP3    H279607   3.381   2.601   4.254  0.7916 -0.1419 -0.6378
19398TIP3   OH279608   2.889   4.166   3.716  0.4559 -0.1002  0.3060
19398TIP3    H179609   2.915   4.201   3.631 -1.6218  1.6890  0.3599
19398TIP3    H279610   2.920   4.075   3.715  0.8728  0.0270 -2.1554
19399TIP3   OH279611   5.584   4.608   2.342 -0.0826 -0.0263  0.4207
19399TIP3    H179612   5.533   4.650   2.411  2.2790  1.4210  1.3303
19399TIP3    H279613   5.619   4.681   2.291 -0.1732 -1.0456 -1.1312
19400TIP3   OH279614   3.447   0.195  15.634  0.0229 -0.2366  0.4619
19400TIP3    H179615   3.351   0.186  15.636 -0.0558  0.4166 -0.4045
19400TIP3    H279616   3.472   0.202  15.726 -0.8778  0.7782  0.6394
19401TIP3   OH279617   5.596   2.436  17.007  0.2276 -0.0252  0.7722
19401TIP3    H179618   5.648   2.503  17.051  0.1284  0.9439 -0.5462
19401TIP3    H279619   5.655   2.398  16.941 -1.1463  2.3071 -1.9528
19402TIP3   OH279620   4.702   6.295   3.303  0.5991 -0.5356  0.1320
19402TIP3    H179621   4.672   6.269   3.216  1.2134 -2.0128  0.3301
19402TIP3    H279622   4.780   6.241   3.318 -0.3282 -1.3746  2.1820
19403TIP3   OH279623   5.125   1.766   0.419  0.0489  0.5600 -0.1197
19403TIP3    H179624   5.154   1.679   0.390  1.8715  0.9807  0.3878
19403TIP3    H279625   5.142   1.823   0.343  1.9453  1.0747  0.6539
19404TIP3   OH279626   5.875   5.768  12.087 -0.3001  0.5372  0.3632
19404TIP3    H179627   5.860   5.691  12.142 -0.4460  1.4292  1.5960
19404TIP3    H279628   5.951   5.745  12.033  0.0973 -0.2112  1.2263
19405TIP3   OH279629   2.832   5.749  12.411  0.4978 -0.7009  0.4996
19405TIP3    H179630   2.839   5.668  12.360  0.2708 -1.0307  0.9836
19405TIP3    H279631   2.911   5.798  12.391  0.6481 -1.0598  0.2201
19406TIP3   OH279632   5.866   4.781  15.164 -0.0157 -0.1554 -0.0128
19406TIP3    H179633   5.790   4.836  15.148  0.5273  0.6649  0.1667
19406TIP3    H279634   5.936   4.822  15.113  0.7421  0.1653  1.2522
19407TIP3   OH279635   4.297   3.014  13.080  0.4747  0.2201  1.0461
19407TIP3    H179636   4.371   3.032  13.022 -0.7125 -0.6949 -0.8060
19407TIP3    H279637   4.315   3.066  13.159  2.0690  1.5723 -0.1663
19408TIP3   OH279638   2.596   4.324   5.285  0.1275 -0.2305  0.4638
19408TIP3    H179639   2.522   4.278   5.246 -0.9753  1.2352  0.7692
19408TIP3    H279640   2.674   4.280   5.249 -0.8739 -0.7446 -1.1381
19409TIP3   OH279641   5.264   3.426   6.844  0.1202  0.1857  0.3527
19409TIP3    H179642   5.176   3.387   6.845  0.7128 -1.2484 -1.1507
19409TIP3    H279643   5.249   3.518   6.822 -1.0825  0.2157  1.2075
19410TIP3   OH279644   0.277   1.453   5.121  0.0318 -0.0917 -0.0159
19410TIP3    H179645   0.296   1.474   5.030  1.7712  0.5334  0.4748
19410TIP3    H279646   0.266   1.539   5.163 -0.5704 -0.3736  0.4061
19411TIP3   OH279647   2.088   5.450   1.898 -0.4108  0.3266 -0.2723
19411TIP3    H179648   2.167   5.397   1.886  0.8021  1.7624  1.0669
19411TIP3    H279649   2.017   5.393   1.869  1.1694 -0.6979 -2.3053
19412TIP3   OH279650   4.031   1.729  14.717 -0.2596 -0.1910 -0.2596
19412TIP3    H179651   4.033   1.817  14.753  1.9336 -0.6714  0.8825
19412TIP3    H279652   3.940   1.715  14.692 -0.2375  3.1462 -2.4326
19413TIP3   OH279653   6.000   1.958   5.032  0.0780 -0.0627  0.3580
19413TIP3    H179654   6.027   1.913   5.112  1.8313  0.9961  0.4040
19413TIP3    H279655   6.064   2.029   5.022  1.6594 -1.9134 -3.5196
19414TIP3   OH279656   3.610   6.642   2.402 -0.4701 -0.1362 -0.1747
19414TIP3    H179657   3.696   6.643   2.445  0.4118  0.1829 -1.9281
19414TIP3    H279658   3.551   6.683   2.466  0.5727 -0.8493  1.2566
19415TIP3   OH279659   4.066   5.788  16.034 -0.4469 -0.0392  0.0093
19415TIP3    H179660   4.115   5.742  15.966  1.2800 -1.1351  1.9512
19415TIP3    H279661   4.029   5.864  15.989  2.6868  0.6092 -1.6165
19416TIP3   OH279662   3.147   1.565  16.587 -0.3728  0.9222  0.1073
19416TIP3    H179663   3.211   1.548  16.656 -0.9372  0.9763  0.6455
19416TIP3    H279664   3.199   1.567  16.506  0.0989 -0.5015  0.3663
19417TIP3   OH279665   6.498   2.472  13.282  0.4179 -0.2584 -0.4719
19417TIP3    H179666   6.448   2.487  13.202  0.6964 -1.9738 -0.9887
19417TIP3    H279667   6.514   2.378  13.283  2.8375  0.1283  0.1684
19418TIP3   OH279668   3.637   4.752  12.495  0.1417 -0.0080  0.3613
19418TIP3    H179669   3.604   4.716  12.413  0.3149 -0.4222  0.4725
19418TIP3    H279670   3.673   4.837  12.471  2.3903 -1.1465 -0.4482
19419TIP3   OH279671   2.991   6.422  11.253 -1.1329  0.6219  0.0891
19419TIP3    H179672   2.901   6.399  11.229 -1.3009  1.3955 -0.0192
19419TIP3    H279673   2.986   6.446  11.345 -0.7950 -0.6391  0.4438
19420TIP3   OH279674   1.558   3.888   0.867 -0.1371  0.2775 -0.5049
19420TIP3    H179675   1.485   3.826   0.859 -1.2088  1.6580 -1.6071
19420TIP3    H279676   1.592   3.873   0.955 -1.4759 -0.6869 -0.1358
19421TIP3   OH279677   4.265   5.885   2.948 -0.0975 -0.1997  0.4222
19421TIP3    H179678   4.227   5.934   3.022  0.1317  0.7014 -0.0466
19421TIP3    H279679   4.212   5.806   2.942 -0.4391 -0.0393  1.2358
19422TIP3   OH279680   5.626   2.485   2.933 -0.3173  0.0150 -0.2373
19422TIP3    H179681   5.636   2.415   2.997  1.2497  0.4189 -0.0301
19422TIP3    H279682   5.659   2.448   2.851 -0.7194  0.0723 -0.4265
19423TIP3   OH279683   5.590   2.619  10.675  0.3744  0.8244 -0.2835
19423TIP3    H179684   5.545   2.690  10.720  0.7457  0.0327  1.3775
19423TIP3    H279685   5.519   2.569  10.634  0.0064  1.3843 -0.3424
19424TIP3   OH279686   1.516   4.883  16.585 -0.1798 -0.4972  0.3344
19424TIP3    H179687   1.592   4.864  16.530 -0.0980  1.3482 -0.2451
19424TIP3    H279688   1.441   4.851  16.536  0.1909 -2.0255  0.7560
19425TIP3   OH279689   2.125   3.661   1.471 -0.4709 -0.0213 -0.3892
19425TIP3    H179690   2.181   3.705   1.535  0.9180 -1.9977 -0.1909
19425TIP3    H279691   2.117   3.723   1.399  1.6361  0.4800 -0.2279
19426TIP3   OH279692   6.555   2.255   3.725  0.5143 -0.6511 -0.3298
19426TIP3    H179693   6.593   2.292   3.805 -2.2109 -0.5172  0.9456
19426TIP3    H279694   6.487   2.318   3.699 -0.0499 -1.7503 -1.5580
19427TIP3   OH279695   1.431   4.895  12.097  0.1676 -0.3710  0.0627
19427TIP3    H179696   1.517   4.894  12.139 -0.2516  0.0431  0.9492
19427TIP3    H279697   1.389   4.813  12.123  0.3653 -0.6711 -0.5413
19428TIP3   OH279698   0.698   2.817  12.886  0.1027 -0.5386 -0.3458
19428TIP3    H179699   0.610   2.848  12.865 -0.9455 -2.2853  1.2909
19428TIP3    H279700   0.753   2.895  12.881 -1.5135  0.5565 -1.4511
19429TIP3   OH279701   1.930   2.645  11.279 -0.3945  0.3047 -0.0529
19429TIP3    H179702   1.925   2.642  11.184  1.8824 -0.1023 -0.1707
19429TIP3    H279703   1.839   2.632  11.308 -0.8738 -1.1533 -2.1131
19430TIP3   OH279704   2.405   5.138   0.386 -0.1812  0.3196  0.0627
19430TIP3    H179705   2.394   5.187   0.467  0.0967 -0.0524  0.3280
19430TIP3    H279706   2.322   5.090   0.375  0.2234 -0.5559  0.7564
19431TIP3   OH279707   3.572   5.247  14.728 -0.2299  0.3222  0.8729
19431TIP3    H179708   3.499   5.309  14.721  1.3128  2.0137 -0.7153
19431TIP3    H279709   3.531   5.161  14.719 -2.0217  1.2592 -0.1537
19432TIP3   OH279710   4.123   1.500  15.263 -0.0215 -0.6819  0.3695
19432TIP3    H179711   4.193   1.566  15.254  0.4141 -1.1211  0.4886
19432TIP3    H279712   4.152   1.445  15.336 -0.6202 -0.7167  0.5797
19433TIP3   OH279713   1.954   6.770  14.229 -0.0719 -0.3149  0.7010
19433TIP3    H179714   2.032   6.768  14.173 -0.8277  0.0393 -0.3948
19433TIP3    H279715   1.983   6.734  14.312  1.1655 -0.5578  0.1790
19434TIP3   OH279716   0.900   2.638  16.586  0.0657  0.0509  0.3408
19434TIP3    H179717   0.909   2.699  16.513 -0.9050 -0.9577 -0.6335
19434TIP3    H279718   0.920   2.552  16.548  4.1999  0.0522  2.3165
19435TIP3   OH279719   2.422   0.046   0.226 -0.6174 -0.6195  0.0275
19435TIP3    H179720   2.393  -0.045   0.224 -1.5430 -0.3909  2.1641
19435TIP3    H279721   2.442   0.063   0.319  3.2465  0.1964 -0.8561
19436TIP3   OH279722   3.994   3.157   5.571 -0.3278 -0.1892  0.9624
19436TIP3    H179723   4.005   3.160   5.476  1.8132 -0.7997  1.1592
19436TIP3    H279724   3.915   3.105   5.585  0.2819 -1.5373 -0.4645
19437TIP3   OH279725   3.737   4.726  16.148  0.2685  0.2749  0.3558
19437TIP3    H179726   3.718   4.670  16.072  0.6262 -1.3177  1.4178
19437TIP3    H279727   3.731   4.667  16.223  0.1145  1.7980  1.5536
19438TIP3   OH279728   2.461   3.386   0.385  0.2796  0.1582  0.0987
19438TIP3    H179729   2.465   3.292   0.401 -0.7032  0.1748  0.4650
19438TIP3    H279730   2.520   3.401   0.311 -1.7750 -1.1461 -1.8452
19439TIP3   OH279731   3.862   0.818  11.052  0.3699 -0.3200  0.1133
19439TIP3    H179732   3.786   0.793  10.999  1.9939  0.9576 -2.9139
19439TIP3    H279733   3.832   0.894  11.101 -0.0867  0.6840 -1.6862
19440TIP3   OH279734   2.592   0.997  16.800 -0.2622  0.7890  0.0536
19440TIP3    H179735   2.503   0.962  16.789  0.0851  0.2364 -1.0390
19440TIP3    H279736   2.600   1.013  16.894 -0.2833 -2.5043  0.6786
19441TIP3   OH279737   4.347   5.325  14.536  0.1117  0.3760  0.1896
19441TIP3    H179738   4.340   5.321  14.632  2.2504  0.5516  0.3738
19441TIP3    H279739   4.310   5.242  14.506  0.8666 -0.3643  1.2688
19442TIP3   OH279740   5.683   4.965   5.992 -0.5719  0.3183  0.4686
19442TIP3    H179741   5.603   4.994   6.036  0.4826  0.7106  2.1984
19442TIP3    H279742   5.749   5.031   6.015 -0.2225  1.1530 -2.6709
19443TIP3   OH279743   1.440   6.504   1.335  0.4970 -0.0480 -0.2640
19443TIP3    H179744   1.383   6.535   1.405  0.1615 -0.2440 -0.4490
19443TIP3    H279745   1.528   6.530   1.362  0.2333  0.9444 -0.3463
19444TIP3   OH279746   1.359   1.628  12.606 -0.2473  0.2657 -0.5492
19444TIP3    H179747   1.411   1.686  12.551 -0.6615  0.7807 -0.3939
19444TIP3    H279748   1.418   1.555  12.625 -0.5215 -0.5921 -2.7906
19445TIP3   OH279749   3.926   5.661  10.749  0.2169  0.3873  0.6376
19445TIP3    H179750   3.878   5.678  10.669 -1.9396  0.2899  1.8836
19445TIP3    H279751   4.015   5.640  10.720 -0.6893 -0.2521 -1.7374
19446TIP3   OH279752   2.613   5.377   5.964 -0.5064 -0.2704 -0.1165
19446TIP3    H179753   2.532   5.356   6.010  1.7200 -4.2029  2.2160
19446TIP3    H279754   2.683   5.338   6.017  2.8960  2.2191 -2.5081
19447TIP3   OH279755   6.473   5.781  13.893 -0.4599  0.2904 -0.0788
19447TIP3    H179756   6.396   5.817  13.848  0.4426  0.6229 -1.3724
19447TIP3    H279757   6.476   5.690  13.865 -0.3768  0.2748 -0.0189
19448TIP3   OH279758   2.118   5.487  16.445  0.5020  0.0956 -0.5222
19448TIP3    H179759   2.064   5.566  16.437  1.8369  0.9913 -0.8148
19448TIP3    H279760   2.173   5.503  16.522  1.4680 -0.1135 -1.1616
19449TIP3   OH279761   6.244   2.000  12.880 -0.0841  0.3070 -0.1862
19449TIP3    H179762   6.220   1.975  12.969 -1.0313 -1.9078 -1.0226
19449TIP3    H279763   6.193   1.941  12.824  2.7907 -0.4534 -2.1312
19450TIP3   OH279764   0.375   0.290  10.634  0.3916 -0.0756  0.0574
19450TIP3    H179765   0.322   0.228  10.584  0.7384 -1.3179  1.1873
19450TIP3    H279766   0.324   0.371  10.634 -1.5155 -1.2320  1.0810
19451TIP3   OH279767   5.124   4.587  16.996 -0.5729 -0.0685  0.1943
19451TIP3    H179768   5.036   4.599  16.962  0.0434  2.0510 -0.7530
19451TIP3    H279769   5.116   4.518  17.062 -2.4537 -1.6591 -1.6673
19452TIP3   OH279770   6.335   4.308  15.381 -0.1692  0.0455  0.1054
19452TIP3    H179771   6.414   4.290  15.432 -0.1936  0.9297  0.4546
19452TIP3    H279772   6.269   4.331  15.446 -0.3082  0.7888 -0.2938
19453TIP3   OH279773   4.744   3.443  14.200  0.1989 -0.0774 -0.1605
19453TIP3    H179774   4.746   3.371  14.262  0.3211  0.8551  0.9257
19453TIP3    H279775   4.814   3.502  14.228  0.2756  0.3461 -1.1921
19454TIP3   OH279776   5.085   0.918   3.283 -0.1037  0.5288  0.0307
19454TIP3    H179777   5.064   0.912   3.376 -0.2845 -0.2153 -0.0548
19454TIP3    H279778   5.177   0.943   3.281  0.3102 -0.9188  0.4179
19455TIP3   OH279779   0.750   1.905  16.767 -0.8514 -0.4610  0.2519
19455TIP3    H179780   0.770   1.952  16.686  0.9940 -1.0752  0.3476
19455TIP3    H279781   0.719   1.820  16.738 -1.3647 -0.2465  0.1652
19456TIP3   OH279782   6.643   3.901   0.845  0.4477 -0.3973  0.1723
19456TIP3    H179783   6.699   3.944   0.781  0.4909  0.1684  0.5911
19456TIP3    H279784   6.588   3.971   0.881 -0.8881 -1.0231 -0.5969
19457TIP3   OH279785   1.190   5.912  13.544 -0.5292  0.3005  0.2441
19457TIP3    H179786   1.265   5.890  13.489 -1.2184  0.1832 -0.6576
19457TIP3    H279787   1.213   5.876  13.630  0.6900  0.7722  0.1267
19458TIP3   OH279788   6.774   3.918   3.556 -0.3446 -0.0083  0.1513
19458TIP3    H179789   6.812   3.922   3.468  1.0915  1.0938  0.8064
19458TIP3    H279790   6.777   3.825   3.579 -3.4167 -0.7534 -2.0828
19459TIP3   OH279791   0.038   4.695  12.854  0.3219 -0.2295  0.2417
19459TIP3    H179792   0.038   4.776  12.803  2.1276 -0.1855  0.2635
19459TIP3    H279793   0.052   4.723  12.944 -0.6636 -0.4565  0.4656
19460TIP3   OH279794   3.005   2.502  13.216  0.4468  0.1542  0.4719
19460TIP3    H179795   3.060   2.529  13.289 -1.0894 -0.7586  1.9988
19460TIP3    H279796   3.059   2.440  13.167  0.7370 -0.8862  2.0600
19461TIP3   OH279797   0.689   3.834  10.604  0.0237 -0.2594  0.2616
19461TIP3    H179798   0.644   3.752  10.584 -0.1852  0.0657 -0.6004
19461TIP3    H279799   0.781   3.816  10.584 -0.1475 -0.0144 -0.7743
19462TIP3   OH279800   3.549   0.362   3.216  0.2267 -0.1044  0.0581
19462TIP3    H179801   3.455   0.375   3.226  0.1873 -0.0317 -0.3849
19462TIP3    H279802   3.562   0.354   3.121  0.7682  0.7399  0.0494
19463TIP3   OH279803   4.889   3.143   1.301 -0.6323 -0.1858 -0.1730
19463TIP3    H179804   4.795   3.125   1.309 -0.6676 -0.6485 -1.6528
19463TIP3    H279805   4.899   3.184   1.215  0.6768 -1.0691 -0.4534
19464TIP3   OH279806   5.351   2.823  10.943  0.4877  0.4126 -0.2473
19464TIP3    H179807   5.424   2.877  10.914 -0.0942  1.2618 -0.1540
19464TIP3    H279808   5.387   2.735  10.951  1.7725  1.0185  0.8244
19465TIP3   OH279809   3.886   2.225   1.641  0.0069  0.0865  0.1700
19465TIP3    H179810   3.884   2.312   1.600 -0.7637 -0.4872 -1.0484
19465TIP3    H279811   3.967   2.224   1.693  0.4200  1.2396 -0.4415
19466TIP3   OH279812   6.758   1.991   0.178  0.6002  0.2224 -0.4936
19466TIP3    H179813   6.707   2.016   0.255  0.8033  0.7130 -0.5192
19466TIP3    H279814   6.692   1.974   0.110  0.3424 -1.5537  0.1593
19467TIP3   OH279815   6.120   2.581   5.107 -0.4260 -0.8456 -0.1523
19467TIP3    H179816   6.118   2.486   5.116  0.4331 -0.9792 -1.1571
19467TIP3    H279817   6.212   2.601   5.089  0.0607  0.5156  3.4080
19468TIP3   OH279818   5.584   0.629   4.560 -0.1120  0.2566  0.2705
19468TIP3    H179819   5.492   0.655   4.547  0.4525  2.3718  0.3621
19468TIP3    H279820   5.612   0.598   4.474 -1.2800 -1.6603  0.5536
19469TIP3   OH279821   3.530   4.688   3.240  0.0618 -0.0834 -0.0265
19469TIP3    H179822   3.618   4.726   3.240  0.3600 -0.7387  1.6291
19469TIP3    H279823   3.472   4.760   3.216  0.8124  0.9463  1.2507
19470TIP3   OH279824   4.243   3.500  14.071  0.1354  0.6673  0.3235
19470TIP3    H179825   4.331   3.510  14.106  0.2989  1.1173 -0.1925
19470TIP3    H279826   4.256   3.494  13.976 -0.2230 -1.4716  0.3883
19471TIP3   OH279827   4.417   0.458   3.497 -0.0640 -0.7681  0.1681
19471TIP3    H179828   4.440   0.490   3.409 -0.3703 -0.2891  0.2572
19471TIP3    H279829   4.321   0.450   3.495 -0.2830  1.2328  1.1003
19472TIP3   OH279830   2.652   5.481  13.821  0.7185  0.3111  0.4987
19472TIP3    H179831   2.558   5.474  13.808  0.6261  0.9531  0.7833
19472TIP3    H279832   2.676   5.400  13.868 -0.1472  1.3464  2.8258
19473TIP3   OH279833   5.958   2.566   0.839 -0.2719 -0.3047  0.0083
19473TIP3    H179834   6.032   2.514   0.807 -0.2129  0.4049 -1.0372
19473TIP3    H279835   5.894   2.502   0.870  0.8869 -0.9267  1.1895
19474TIP3   OH279836   1.130   0.031   1.250 -0.1686  0.1301  0.0112
19474TIP3    H179837   1.209  -0.021   1.234 -0.3317  0.1731 -0.9857
19474TIP3    H279838   1.163   0.115   1.283  0.1202 -0.4136  1.1145
19475TIP3   OH279839   2.645   4.688   3.510 -0.3778  0.3061 -0.2676
19475TIP3    H179840   2.613   4.604   3.541  0.6446  0.4773  1.2597
19475TIP3    H279841   2.692   4.667   3.429 -0.0908 -0.5856  0.1278
19476TIP3   OH279842   4.545   1.088  14.216  0.5433 -0.0254 -0.1901
19476TIP3    H179843   4.560   1.031  14.292  1.1157  0.4330  0.0486
19476TIP3    H279844   4.451   1.104  14.216  0.7266  1.1620  1.2981
19477TIP3   OH279845   4.091   3.105   4.344 -0.2118 -0.0124  0.1406
19477TIP3    H179846   4.032   3.169   4.382 -0.5215  0.4534 -1.0957
19477TIP3    H279847   4.148   3.078   4.416  0.8084  2.6386  0.3735
19478TIP3   OH279848   5.153   4.726   1.863  0.6101 -0.0028  0.4341
19478TIP3    H179849   5.211   4.766   1.928 -0.3983  0.3870  1.1172
19478TIP3    H279850   5.209   4.666   1.813  1.9743  1.6242 -0.0441
19479TIP3   OH279851   3.789   1.634  14.624  0.1825  0.2065  0.0520
19479TIP3    H179852   3.863   1.574  14.625  1.3122  1.5607 -0.6017
19479TIP3    H279853   3.766   1.644  14.531  1.4561  2.4975 -0.0567
19480TIP3   OH279854   3.291   5.866   4.248 -0.0338 -0.0722 -0.0842
19480TIP3    H179855   3.221   5.842   4.188 -0.4025 -0.8709  0.6568
19480TIP3    H279856   3.368   5.819   4.216 -0.2699 -0.6294  0.1684
19481TIP3   OH279857   4.920   0.442  13.199  0.3768  0.3483  0.4379
19481TIP3    H179858   4.959   0.515  13.151  3.1714  0.5293  2.8804
19481TIP3    H279859   4.922   0.369  13.137  0.1862  1.5834 -1.0640
19482TIP3   OH279860   5.517   2.562   1.996 -0.0055 -0.0275 -0.3831
19482TIP3    H179861   5.453   2.626   2.024  0.3809  0.0689  0.2757
19482TIP3    H279862   5.477   2.477   2.016 -0.0897  0.0247 -0.3331
19483TIP3   OH279863   3.426   5.940  12.359  0.4134  0.1685  0.2543
19483TIP3    H179864   3.362   5.874  12.386  2.5130 -2.1450 -0.1870
19483TIP3    H279865   3.379   6.023  12.362 -1.9210 -1.1801  2.1626
19484TIP3   OH279866   3.848   4.718  13.581  0.0438  0.5360 -0.5989
19484TIP3    H179867   3.873   4.811  13.580  3.0853 -0.2299 -0.4673
19484TIP3    H279868   3.925   4.673  13.616 -1.2428 -2.1048 -1.0458
19485TIP3   OH279869   5.040   4.404   6.198  0.2459  0.1828 -0.1182
19485TIP3    H179870   5.099   4.479   6.188 -0.5204  0.6927 -0.9048
19485TIP3    H279871   5.092   4.329   6.167  0.4303  0.6578 -0.9999
19486TIP3   OH279872   6.048   3.624   6.561  0.4905 -0.1311  0.2052
19486TIP3    H179873   6.036   3.548   6.619  0.3176 -1.9871 -2.1726
19486TIP3    H279874   6.142   3.641   6.562  0.4796 -0.1126  1.0672
19487TIP3   OH279875   0.633   5.018  11.689  0.0941 -0.1835  0.0222
19487TIP3    H179876   0.652   5.105  11.723  0.8028 -1.0373  1.8923
19487TIP3    H279877   0.664   5.020  11.598  3.1668  0.5146  1.0277
19488TIP3   OH279878   3.950   4.953  16.832 -0.2406 -0.2145  0.0745
19488TIP3    H179879   3.992   4.887  16.887  0.7937  0.3027 -0.0859
19488TIP3    H279880   3.860   4.957  16.863 -0.4352 -2.0485 -0.2429
19489TIP3   OH279881   1.664   2.833  14.192  0.0179  0.0327  0.8886
19489TIP3    H179882   1.759   2.818  14.193 -0.0302 -0.2836  2.0374
19489TIP3    H279883   1.633   2.793  14.274 -0.7628  2.2866  1.7240
19490TIP3   OH279884   4.480   0.443   2.923  0.3893 -0.0658  0.1596
19490TIP3    H179885   4.418   0.516   2.922 -0.9478 -1.1712  1.0163
19490TIP3    H279886   4.452   0.388   2.850 -1.3204 -1.9069  2.1263
19491TIP3   OH279887   0.367   2.068  16.831  0.4361  0.0795  0.4337
19491TIP3    H179888   0.342   2.098  16.743  0.6999  0.3185  0.4383
19491TIP3    H279889   0.463   2.073  16.832  0.4622 -0.4357  0.5537
19492TIP3   OH279890   6.728   4.810  16.335 -0.1918 -0.4070 -0.1173
19492TIP3    H179891   6.660   4.747  16.356 -0.4786 -0.2810 -0.6435
19492TIP3    H279892   6.725   4.874  16.406  0.1713 -1.0344  0.4691
19493TIP3   OH279893   1.057   0.664  12.867 -0.4569 -0.4934 -0.7509
19493TIP3    H179894   1.067   0.579  12.824  3.4069  0.3415 -1.6914
19493TIP3    H279895   1.066   0.646  12.960  2.5350 -0.9072 -1.0793
19494TIP3   OH279896   3.290   0.985   0.418  0.3842  0.3735  0.1277
19494TIP3    H179897   3.330   0.916   0.366  0.1336  0.3207  0.0089
19494TIP3    H279898   3.349   0.995   0.493  0.7798  0.4962 -0.1972
19495TIP3   OH279899   5.531   1.528   1.529  0.0540 -0.7089 -0.5615
19495TIP3    H179900   5.582   1.456   1.492 -0.5882 -2.0755  1.0967
19495TIP3    H279901   5.583   1.559   1.603  0.2765  0.4761 -1.2092
19496TIP3   OH279902   6.349   4.636  16.727  0.0762  0.7332  0.0529
19496TIP3    H179903   6.360   4.683  16.644 -0.1620 -0.4512 -0.6586
19496TIP3    H279904   6.285   4.688  16.775  0.0311  1.3009 -0.6046
19497TIP3   OH279905   5.319   2.230   6.340  0.1983 -0.0500  0.2696
19497TIP3    H179906   5.295   2.199   6.253  0.8913 -0.4480  0.2184
19497TIP3    H279907   5.292   2.322   6.341 -0.0228 -0.1083 -0.2834
19498TIP3   OH279908   2.013   6.785   2.892 -0.6206 -0.2438  0.5191
19498TIP3    H179909   1.980   6.735   2.817 -0.1536  0.4341 -0.1455
19498TIP3    H279910   2.092   6.738   2.919 -2.4403 -2.2456  2.5226
19499TIP3   OH279911   5.817   1.049  15.678  0.3721  0.2759  0.1016
19499TIP3    H179912   5.821   1.113  15.750 -1.7119 -0.5120  0.9470
19499TIP3    H279913   5.735   1.068  15.633 -0.2390 -1.7288  0.3198
19500TIP3   OH279914   1.752   0.275   4.619 -0.4910 -0.6392 -0.3730
19500TIP3    H179915   1.739   0.285   4.525  0.6840  0.7396 -0.3996
19500TIP3    H279916   1.781   0.184   4.630 -0.3392 -0.7121 -1.3784
19501TIP3   OH279917   5.648   4.248  12.397  0.0933 -0.0410  0.5129
19501TIP3    H179918   5.610   4.186  12.334 -1.6665  1.3264  0.1818
19501TIP3    H279919   5.689   4.193  12.463 -1.7112 -1.5973  0.3841
19502TIP3   OH279920   5.574   1.065   3.405  0.2174 -0.1624  0.0707
19502TIP3    H179921   5.556   1.155   3.379 -1.7964 -0.5674  0.0274
19502TIP3    H279922   5.665   1.051   3.378  0.5575  1.8445  0.0787
19503TIP3   OH279923   1.892   3.638  11.851 -0.8286  0.7549  0.2801
19503TIP3    H179924   1.861   3.650  11.761 -0.7108 -0.4330  0.0713
19503TIP3    H279925   1.986   3.622  11.841 -0.4252  2.6496  0.7802
19504TIP3   OH279926   6.139   6.761  14.734 -0.2180 -0.0375 -0.3304
19504TIP3    H179927   6.073   6.718  14.680 -0.1485  0.5466 -0.8911
19504TIP3    H279928   6.208   6.696  14.745 -0.7421 -0.5386 -0.0160
19505TIP3   OH279929   2.676   1.587   2.147 -0.3030 -0.2424 -0.0435
19505TIP3    H179930   2.594   1.551   2.116 -0.1469 -0.8397  0.2233
19505TIP3    H279931   2.729   1.599   2.068 -0.9486  0.9556 -0.3146
19506TIP3   OH279932   2.214   2.180   6.798 -1.0677 -0.6200  0.1909
19506TIP3    H179933   2.309   2.170   6.805 -1.0600 -0.7581 -0.1283
19506TIP3    H279934   2.185   2.105   6.746 -1.1579  0.3273 -1.1507
19507TIP3   OH279935   6.177   3.419  12.052  0.0233  0.3455 -0.8256
19507TIP3    H179936   6.185   3.364  12.130 -1.7901 -0.4020 -1.1406
19507TIP3    H279937   6.208   3.505  12.080  3.8367 -1.0126 -0.5922
19508TIP3   OH279938   1.586   5.661   5.164  0.7830  0.0921  0.1668
19508TIP3    H179939   1.556   5.595   5.228  4.3354 -1.0796  0.7338
19508TIP3    H279940   1.562   5.745   5.204 -0.8830 -0.7457  0.9968
19509TIP3   OH279941   0.518   2.440  11.840 -0.4145 -0.9953 -0.5416
19509TIP3    H179942   0.439   2.386  11.831 -0.7141 -0.4066 -1.5373
19509TIP3    H279943   0.538   2.468  11.751  0.2907 -0.2440 -0.1503
19510TIP3   OH279944   5.881   2.792   1.795  0.0486  0.1085 -0.4965
19510TIP3    H179945   5.839   2.756   1.873  0.9687 -0.4014 -0.2300
19510TIP3    H279946   5.821   2.860   1.765 -0.5899 -0.0841  0.3265
19511TIP3   OH279947   3.253   4.040  16.432 -0.4842  0.6827 -0.2976
19511TIP3    H179948   3.174   4.084  16.400  0.1723 -0.0372 -2.9814
19511TIP3    H279949   3.223   3.990  16.508 -2.7309 -0.0678 -1.6377
19512TIP3   OH279950   0.973   6.179   0.333 -0.0989  0.6182  0.0806
19512TIP3    H179951   0.976   6.254   0.274 -1.3967  0.8942  0.3347
19512TIP3    H279952   0.947   6.216   0.417  3.1729  0.4352  1.2008
19513TIP3   OH279953   2.565   4.902   4.508 -0.1368  0.1767  0.2221
19513TIP3    H179954   2.559   4.914   4.602 -0.7010  0.2350  0.1772
19513TIP3    H279955   2.610   4.817   4.497  0.0337  0.2282  0.5379
19514TIP3   OH279956   6.208   2.668   5.563 -0.1445  0.0715 -0.6291
19514TIP3    H179957   6.263   2.701   5.492 -0.4664  0.8306 -0.5346
19514TIP3    H279958   6.118   2.682   5.533 -0.2854  0.7600  0.0731
19515TIP3   OH279959   4.094   5.760   0.464 -0.0391  0.4151 -0.3863
19515TIP3    H179960   4.166   5.817   0.436  0.7930 -0.8279 -0.8401
19515TIP3    H279961   4.112   5.741   0.556 -0.0805  0.5543 -0.3507
19516TIP3   OH279962   0.297   4.636   6.240 -0.0412  0.2643 -0.2922
19516TIP3    H179963   0.339   4.708   6.194 -0.7268  0.3288 -0.8219
19516TIP3    H279964   0.273   4.673   6.325 -0.6161  0.7373 -0.6556
19517TIP3   OH279965   6.565   5.794  10.443 -0.2877 -0.4070 -0.5312
19517TIP3    H179966   6.527   5.817  10.527  0.9432  0.7188 -0.2694
19517TIP3    H279967   6.605   5.875  10.411 -0.1854 -0.9746 -1.8942
19518TIP3   OH279968   5.066   6.724  14.748  0.3798  0.0824 -0.6319
19518TIP3    H179969   5.118   6.690  14.675 -0.4224  0.5136 -1.4082
19518TIP3    H279970   5.124   6.787  14.792  1.6699 -1.8487  0.4741
19519TIP3   OH279971   1.282   6.613  13.361 -0.6350  0.4757 -0.2801
19519TIP3    H179972   1.301   6.629  13.454 -1.3345 -0.3598  0.0111
19519TIP3    H279973   1.251   6.698  13.328  1.5347  1.3078 -0.2537
19520TIP3   OH279974   2.963   0.739  10.293 -0.1662 -0.1745 -0.3650
19520TIP3    H179975   2.967   0.648  10.323  0.8568 -0.2448 -0.6992
19520TIP3    H279976   2.943   0.733  10.199 -1.1298 -0.0224 -0.1727
19521TIP3   OH279977   5.414   0.982   4.156 -0.2154 -0.2033 -0.8901
19521TIP3    H179978   5.473   0.936   4.217 -0.3450 -1.1854 -1.4991
19521TIP3    H279979   5.392   0.916   4.090 -1.8144  0.2263 -0.8000
19522TIP3   OH279980   3.574   1.812  14.610  0.0849  0.0361  0.2541
19522TIP3    H179981   3.664   1.779  14.611  0.1563  0.2551  0.8273
19522TIP3    H279982   3.584   1.907  14.598 -0.0097  0.3066  2.2676
19523TIP3   OH279983   4.527   1.959  15.904 -0.6364  0.0345 -0.1894
19523TIP3    H179984   4.449   1.957  15.849  0.0998 -1.2803 -1.1938
19523TIP3    H279985   4.591   2.007  15.852 -0.3717 -0.0053  0.1005
19524TIP3   OH279986   4.708   2.557  15.196 -0.1047  0.2963 -0.0537
19524TIP3    H179987   4.718   2.504  15.275 -0.0267  1.2053  0.5523
19524TIP3    H279988   4.723   2.647  15.226  0.2839  0.6048 -1.1769
19525TIP3   OH279989   1.378   3.850   1.913 -0.2412 -0.2329 -0.2699
19525TIP3    H179990   1.323   3.834   1.990 -0.3553 -1.3250 -0.5705
19525TIP3    H279991   1.441   3.915   1.943 -0.4338 -0.4663  0.6884
19526TIP3   OH279992   1.670   3.265  14.655 -0.0533 -0.0192  0.6092
19526TIP3    H179993   1.764   3.266  14.670  0.1879  1.7102 -0.7913
19526TIP3    H279994   1.660   3.301  14.567 -2.0021 -0.4173  0.6515
19527TIP3   OH279995   1.314   0.035   5.502  0.1142  0.3447  0.5392
19527TIP3    H179996   1.218   0.033   5.500  0.1220 -0.5627  0.9326
19527TIP3    H279997   1.336   0.126   5.482 -0.8424  0.6689  0.9169
19528TIP3   OH279998   6.108   4.043   4.294 -0.2281  0.3090 -0.2980
19528TIP3    H179999   6.132   4.025   4.203  0.8213  0.5935 -0.0830
19528TIP3    H280000   6.032   3.986   4.310  0.5206 -0.8704 -0.8825
19529TIP3   OH280001   2.122   5.983   3.700  0.0529  0.4325  0.4102
19529TIP3    H180002   2.109   6.010   3.791 -1.0817  0.5551  0.2216
19529TIP3    H280003   2.095   6.059   3.649 -0.2768  0.0097 -0.0497
19530TIP3   OH280004   4.676   0.796   1.646  0.1954 -0.6581 -0.3778
19530TIP3    H180005   4.659   0.793   1.741 -0.4007 -0.2129 -0.4706
19530TIP3    H280006   4.766   0.830   1.639  1.0363 -2.7100  0.0994
19531TIP3   OH280007   5.323   1.104  11.152 -0.1053 -0.9448 -0.0877
19531TIP3    H180008   5.303   1.164  11.224  1.0075 -0.7172  0.0416
19531TIP3    H280009   5.341   1.021  11.195  1.9483 -0.4693  0.0311
19532TIP3   OH280010   3.003   6.553  15.003  0.2055  0.1665 -0.1366
19532TIP3    H180011   3.014   6.539  15.097  1.2002 -1.1202 -0.4278
19532TIP3    H280012   2.946   6.482  14.974 -0.5361  0.8747 -0.4158
19533TIP3   OH280013   4.432   0.473   0.817 -0.1818  0.0105 -0.2847
19533TIP3    H180014   4.393   0.387   0.801  0.6366  0.2665 -3.9804
19533TIP3    H280015   4.356   0.530   0.833 -0.8070 -1.1171  0.8403
19534TIP3   OH280016   6.292   1.304  15.199 -0.3136 -0.7261  0.5290
19534TIP3    H180017   6.345   1.361  15.255  0.9403  0.3731 -1.6956
19534TIP3    H280018   6.355   1.242  15.163 -0.5857  0.3213 -1.8174
19535TIP3   OH280019   2.916   1.646  12.848 -0.9105  0.2164  0.1314
19535TIP3    H180020   2.963   1.595  12.782 -2.2155 -1.9382  0.8232
19535TIP3    H280021   2.984   1.700  12.889  0.2290  0.1879 -1.6587
19536TIP3   OH280022   6.344   4.295   4.538 -0.7851  0.0624 -0.3299
19536TIP3    H180023   6.420   4.312   4.594  0.1407 -0.8231 -1.2850
19536TIP3    H280024   6.322   4.204   4.554  0.2464 -0.5513 -2.2856
19537TIP3   OH280025   0.441   5.427   3.507  0.6198 -0.1276  0.0828
19537TIP3    H180026   0.501   5.497   3.482  0.9417 -0.2154  0.6086
19537TIP3    H280027   0.494   5.367   3.559  0.0982 -0.2509  0.4773
19538TIP3   OH280028   4.212   6.649   4.111  0.2680 -0.0150 -0.5936
19538TIP3    H180029   4.290   6.641   4.056 -0.1319 -1.0076 -1.0302
19538TIP3    H280030   4.202   6.562   4.150  0.9719  0.8779  1.6410
19539TIP3   OH280031   3.391   0.948  11.671 -0.6382 -0.3915 -0.7272
19539TIP3    H180032   3.342   0.940  11.753 -0.8775 -0.8044 -0.9122
19539TIP3    H280033   3.350   0.886  11.612  0.1512 -0.7794 -0.8685
19540TIP3   OH280034   5.478   4.094  16.921  0.1400 -0.4624  0.0225
19540TIP3    H180035   5.483   3.999  16.932 -0.5498 -0.9533 -3.2264
19540TIP3    H280036   5.557   4.116  16.870  0.8801  0.8936  1.7071
19541TIP3   OH280037   6.082   0.099  14.969  0.1255  0.6843  0.1719
19541TIP3    H180038   6.010   0.132  14.916  0.4628 -0.7029 -1.1722
19541TIP3    H280039   6.133   0.043  14.910  3.0556  2.6444  0.7334
19542TIP3   OH280040   2.914   1.698  15.345  0.0759 -0.5991  0.2057
19542TIP3    H180041   2.835   1.675  15.296  2.4394 -0.7571 -3.6551
19542TIP3    H280042   2.913   1.793  15.351  0.1250 -0.5362 -0.7764
19543TIP3   OH280043   4.505   1.595   1.874 -0.1968 -0.3606 -0.4510
19543TIP3    H180044   4.597   1.570   1.862 -0.2706 -0.1017 -1.5819
19543TIP3    H280045   4.459   1.512   1.885 -0.1460 -0.6126 -2.1187
19544TIP3   OH280046   6.279   4.079  16.829 -0.1156  0.3696 -0.2180
19544TIP3    H180047   6.189   4.051  16.816  0.0107  0.4397 -1.3829
19544TIP3    H280048   6.273   4.172  16.851 -0.2492  0.9598 -2.5217
19545TIP3   OH280049   0.165   5.850   4.641 -0.2107  0.1004 -0.0919
19545TIP3    H180050   0.193   5.938   4.618  0.6777 -0.2833 -0.4813
19545TIP3    H280051   0.094   5.831   4.579 -0.3986  0.5261 -0.0130
19546TIP3   OH280052   2.398   1.239  13.645  0.0900 -1.1748 -0.2429
19546TIP3    H180053   2.318   1.187  13.634  0.0007 -0.8873 -0.9934
19546TIP3    H280054   2.467   1.174  13.656 -0.1403 -1.4353 -0.3265
19547TIP3   OH280055   0.565   2.633   5.236  0.5182  0.2672  0.1202
19547TIP3    H180056   0.627   2.559   5.237  0.9152  0.6003  0.0560
19547TIP3    H280057   0.502   2.612   5.306  0.5071 -0.2340 -0.0343
19548TIP3   OH280058   3.556   3.406  10.639  0.8051  0.4471  0.1996
19548TIP3    H180059   3.582   3.369  10.724 -0.3044 -0.1795  0.2708
19548TIP3    H280060   3.621   3.475  10.623  1.0606  0.5419  1.5313
19549TIP3   OH280061   4.767   6.429  14.951 -0.4780  0.4662 -0.3252
19549TIP3    H180062   4.859   6.452  14.960  0.1407 -2.5670  1.5576
19549TIP3    H280063   4.751   6.431  14.856  2.2976 -1.7742 -0.8945
19550TIP3   OH280064   4.461   6.694   4.410 -0.2832 -0.1251 -0.3559
19550TIP3    H180065   4.434   6.778   4.371 -0.3264  0.1853  0.3335
19550TIP3    H280066   4.535   6.666   4.357 -0.8498 -0.1081 -1.1680
19551TIP3   OH280067   0.236   6.320  11.187  0.3583 -0.0395 -0.2654
19551TIP3    H180068   0.291   6.255  11.230  1.1420 -0.8284 -2.3808
19551TIP3    H280069   0.284   6.402  11.195  1.3422 -0.5191 -1.1455
19552TIP3   OH280070   2.573   2.860  10.945  0.1258  0.6572 -0.3676
19552TIP3    H180071   2.657   2.829  10.979 -0.4021 -0.0202  0.3203
19552TIP3    H280072   2.549   2.795  10.879 -2.7126 -2.4942  3.5254
19553TIP3   OH280073   1.617   5.835   0.698  0.3799 -0.0750  0.4780
19553TIP3    H180074   1.712   5.849   0.700  0.1384  1.7042  0.6398
19553TIP3    H280075   1.587   5.889   0.625 -0.6043  0.0677  0.9822
19554TIP3   OH280076   3.857   0.440  12.829  0.3358 -0.6470  0.4053
19554TIP3    H180077   3.779   0.405  12.872 -0.0322  0.4736  0.6724
19554TIP3    H280078   3.837   0.436  12.735  0.8740 -2.4757  0.3637
19555TIP3   OH280079   2.201   3.349  12.738  0.0348  0.1243 -0.2721
19555TIP3    H180080   2.200   3.408  12.814 -0.4342 -0.7790  0.4453
19555TIP3    H280081   2.275   3.377  12.686  0.5234  0.5941  0.6658
19556TIP3   OH280082   0.125   3.750   5.417 -0.1632 -0.5343  0.1366
19556TIP3    H180083   0.040   3.709   5.430  0.5645 -2.0424  0.2204
19556TIP3    H280084   0.182   3.710   5.483  0.2278  1.6761  1.2084
19557TIP3   OH280085   5.825   2.603  17.087 -0.2668 -0.3764  0.1281
19557TIP3    H180086   5.917   2.607  17.115 -0.3184 -0.2464  0.2798
19557TIP3    H280087   5.797   2.695  17.085 -0.0752 -0.3294 -0.9762
19558TIP3   OH280088   4.009   6.712   3.544 -0.0421 -0.2050  0.2154
19558TIP3    H180089   4.008   6.796   3.497  0.0726 -0.4990 -0.3099
19558TIP3    H280090   3.959   6.730   3.624 -1.5132 -0.1026 -0.7025
19559TIP3   OH280091   1.654   3.444  15.878 -0.3054 -0.1412  0.1381
19559TIP3    H180092   1.745   3.444  15.846 -0.1018 -0.1021  0.7142
19559TIP3    H280093   1.620   3.530  15.852 -0.5669 -0.6312 -1.1683
19560TIP3   OH280094   3.884   2.939  11.974  0.0961 -0.7543  0.8266
19560TIP3    H180095   3.887   2.891  12.056 -1.0619 -1.7001  0.3421
19560TIP3    H280096   3.798   2.918  11.937  0.2714  0.3082 -0.2293
19561TIP3   OH280097   0.647   3.654   3.537 -0.0797 -0.4335  0.0620
19561TIP3    H180098   0.593   3.701   3.601  0.2477 -0.2508  0.2064
19561TIP3    H280099   0.605   3.672   3.453  0.7736  1.1910 -0.0399
19562TIP3   OH280100   3.435   2.241  12.843  0.2137 -0.6088 -0.2479
19562TIP3    H180101   3.377   2.316  12.859  1.2292  0.0162  0.5495
19562TIP3    H280102   3.415   2.214  12.753 -1.7283 -0.7738  0.1998
19563TIP3   OH280103   1.976   2.278  13.623 -0.8074 -0.7913 -0.6447
19563TIP3    H180104   2.071   2.293  13.617 -0.9374  0.6630  0.5277
19563TIP3    H280105   1.967   2.209  13.689 -0.6171  0.0946  0.3293
19564TIP3   OH280106   2.463   4.885  14.139 -0.1356 -0.1840  0.7436
19564TIP3    H180107   2.492   4.797  14.161 -0.1075  0.0821  1.7683
19564TIP3    H280108   2.458   4.885  14.043 -0.5229 -1.4165  0.7581
19565TIP3   OH280109   1.078   0.632  16.388  0.1388 -0.8226 -0.0505
19565TIP3    H180110   1.073   0.631  16.484  1.7504  1.0705  0.0814
19565TIP3    H280111   1.130   0.555  16.366  0.5332 -0.7688  0.6571
19566TIP3   OH280112   4.295   1.855  10.605 -0.0552 -0.5873 -0.0668
19566TIP3    H180113   4.215   1.834  10.655 -0.4111  3.6109  1.3055
19566TIP3    H280114   4.366   1.826  10.662 -0.5384 -0.4572  0.6114
19567TIP3   OH280115   3.155   6.229   2.277 -0.2089  0.1358 -0.1732
19567TIP3    H180116   3.084   6.260   2.333 -0.5580 -0.4605 -0.2926
19567TIP3    H280117   3.165   6.137   2.299 -1.8579 -0.7061 -2.6823
19568TIP3   OH280118   2.107   5.982   0.212 -0.3949  0.0909  0.0439
19568TIP3    H180119   2.190   6.028   0.199 -0.2360  0.4195  2.0591
19568TIP3    H280120   2.119   5.899   0.167  1.0390  0.1426  0.3051
19569TIP3   OH280121   5.978   3.241   0.953 -0.1242  0.0856  0.4867
19569TIP3    H180122   6.070   3.256   0.976 -0.2431 -2.0051  2.5860
19569TIP3    H280123   5.977   3.153   0.915 -1.4503 -0.6202  2.0719
19570TIP3   OH280124   3.953   2.859  15.540  0.1464 -0.1347  0.0749
19570TIP3    H180125   4.032   2.870  15.592 -0.7936 -0.5553  1.6466
19570TIP3    H280126   3.983   2.851  15.450  1.8402  0.2347  0.6018
19571TIP3   OH280127   5.391   6.258  12.862 -0.6051  0.0412 -0.9700
19571TIP3    H180128   5.300   6.231  12.862 -1.1191  1.6772  0.7185
19571TIP3    H280129   5.436   6.190  12.912 -1.5006  1.0257  1.2386
19572TIP3   OH280130   2.691   1.551   3.262 -0.2371  0.9699  0.0778
19572TIP3    H180131   2.698   1.576   3.354  0.8776 -0.7978  0.4940
19572TIP3    H280132   2.605   1.583   3.235 -0.5677  1.5200  1.7259
19573TIP3   OH280133   2.800   0.553   4.711  0.2651 -0.4116 -0.7756
19573TIP3    H180134   2.797   0.474   4.656  0.5684 -1.3689  0.5596
19573TIP3    H280135   2.749   0.530   4.788  1.1674  0.3530  0.0604
19574TIP3   OH280136   4.103   0.317  13.559  0.5293  0.3251 -0.4607
19574TIP3    H180137   4.113   0.340  13.467  0.5090 -0.2690 -0.6160
19574TIP3    H280138   4.115   0.222  13.561 -2.8031 -0.1367 -0.3292
19575TIP3   OH280139   3.323   5.535  13.388  0.1849 -0.0409 -0.3635
19575TIP3    H180140   3.330   5.560  13.296  1.1598  0.4097 -0.1805
19575TIP3    H280141   3.414   5.524  13.416 -0.1188 -0.5047  0.4566
19576TIP3   OH280142   6.031   1.730   3.932  0.0792 -0.3684  0.1565
19576TIP3    H180143   6.005   1.652   3.884  0.6431 -0.0427 -0.6764
19576TIP3    H280144   5.990   1.720   4.018 -1.7749 -0.4603 -0.7278
19577TIP3   OH280145   1.758   4.124  12.267  0.4658  0.5249 -1.0267
19577TIP3    H180146   1.799   4.048  12.226 -1.2541 -1.0136  0.0564
19577TIP3    H280147   1.793   4.199  12.218  1.1176 -1.0408 -3.0155
19578TIP3   OH280148   1.754   6.199  16.650 -0.1732 -0.1431  0.0272
19578TIP3    H180149   1.741   6.290  16.623  0.8738  0.8315  2.6291
19578TIP3    H280150   1.691   6.187  16.721  0.3218 -1.1832  0.2892
19579TIP3   OH280151   3.314   4.782  11.568 -0.1054  0.4364  0.5599
19579TIP3    H180152   3.408   4.798  11.576 -0.2062  1.3276 -0.1093
19579TIP3    H280153   3.306   4.723  11.493  0.0514 -0.8962  1.5730
19580TIP3   OH280154   5.385   3.014   1.130  0.1606 -0.6936  0.7165
19580TIP3    H180155   5.324   3.083   1.156 -0.6542 -1.1262 -0.0224
19580TIP3    H280156   5.359   2.937   1.180  1.8487 -0.1573  2.4668
19581TIP3   OH280157   2.982   3.813   0.269 -0.1981  0.5192  0.0092
19581TIP3    H180158   2.892   3.825   0.297 -0.4615 -0.3102 -0.4833
19581TIP3    H280159   3.025   3.897   0.289 -0.8401  0.5869  1.1292
19582TIP3   OH280160   5.865   4.552   1.032  0.3041 -0.0667  0.2677
19582TIP3    H180161   5.835   4.478   1.086 -0.5044  0.3593  0.4236
19582TIP3    H280162   5.788   4.610   1.027  0.1354 -0.4455 -1.9645
19583TIP3   OH280163   2.159   0.605  16.830 -0.1074 -0.1964  0.2520
19583TIP3    H180164   2.121   0.538  16.886  1.1895 -0.0610  1.3302
19583TIP3    H280165   2.089   0.628  16.768 -1.7783  0.0864  2.1970
19584TIP3   OH280166   3.695   2.833  15.711  0.5799  0.3055  0.9225
19584TIP3    H180167   3.658   2.754  15.670  0.4656  0.6824  0.2979
19584TIP3    H280168   3.626   2.863  15.770 -0.1187  0.9719 -0.1979
19585TIP3   OH280169   4.527   6.339   4.764  0.1312 -0.2059 -0.0952
19585TIP3    H180170   4.589   6.340   4.837  0.8666 -0.6463 -0.6948
19585TIP3    H280171   4.517   6.431   4.740 -0.3413 -0.0352  0.7426
19586TIP3   OH280172   6.607   4.535   6.518  0.3203 -0.3141 -0.5642
19586TIP3    H180173   6.647   4.461   6.471  0.3973 -0.6577  0.0376
19586TIP3    H280174   6.681   4.581   6.557  0.2476 -0.0706 -0.7117
19587TIP3   OH280175   5.030   1.634   1.392  0.9802 -0.4285 -0.2323
19587TIP3    H180176   5.122   1.629   1.419  0.4957 -1.6879  1.2605
19587TIP3    H280177   4.981   1.609   1.470 -0.7352  2.4274 -0.2871
19588TIP3   OH280178   6.295   6.097   0.392  0.0519  0.8540 -0.0934
19588TIP3    H180179   6.249   6.167   0.438 -1.3165 -1.3652  2.0103
19588TIP3    H280180   6.225   6.044   0.353  0.9795 -0.5139  0.0878
19589TIP3   OH280181   3.320   2.684   1.448 -0.1632 -0.5443  0.2856
19589TIP3    H180182   3.314   2.768   1.493 -0.0329  0.2477 -1.1229
19589TIP3    H280183   3.302   2.705   1.356  1.9465 -1.6963 -0.4339
19590TIP3   OH280184   0.270   3.902   4.377 -0.3902  0.3848 -0.7688
19590TIP3    H180185   0.314   3.842   4.316  0.1789  1.6558 -1.6100
19590TIP3    H280186   0.183   3.914   4.339 -1.2517 -1.5244  0.4967
19591TIP3   OH280187   1.288   5.550  15.132  0.2000 -0.1689  0.0168
19591TIP3    H180188   1.295   5.501  15.050 -0.2807 -0.2911  0.0479
19591TIP3    H280189   1.283   5.483  15.200  2.4422 -0.0799  0.3198
19592TIP3   OH280190   2.339   2.002  13.900 -0.4438 -0.7306  0.3203
19592TIP3    H180191   2.291   2.011  13.817 -0.1280 -1.7959  0.0216
19592TIP3    H280192   2.319   1.913  13.930 -0.7507 -0.2699  1.5138
19593TIP3   OH280193   1.359   1.175  17.071  0.0580 -0.2393 -0.0881
19593TIP3    H180194   1.402   1.103  17.026  1.6024 -0.8541  2.2624
19593TIP3    H280195   1.392   1.254  17.027  0.9340 -0.8412 -0.5256
19594TIP3   OH280196   0.629   1.972  12.473 -0.0712  0.1908 -0.2921
19594TIP3    H180197   0.685   1.957  12.397  0.2745  0.6196 -0.1221
19594TIP3    H280198   0.580   2.051  12.451  0.2389  0.4802  0.0530
19595TIP3   OH280199   1.875   1.527   2.905  0.1319  0.1494 -0.2650
19595TIP3    H180200   1.813   1.546   2.976 -0.1941 -0.0251 -0.5050
19595TIP3    H280201   1.961   1.532   2.947 -0.0084  0.9735 -0.0611
19596TIP3   OH280202   1.887   1.685  11.408 -0.4310  0.3359  0.5690
19596TIP3    H180203   1.859   1.748  11.475 -0.7263  0.1200  0.6461
19596TIP3    H280204   1.809   1.667  11.357  0.4619  2.8543 -1.7804
19597TIP3   OH280205   2.596   2.606   0.664 -0.2633 -0.2305  0.3254
19597TIP3    H180206   2.626   2.579   0.750 -1.3416 -2.3269  0.0634
19597TIP3    H280207   2.645   2.552   0.602 -0.3108  0.4632 -0.3326
19598TIP3   OH280208   6.427   2.876   5.097 -0.3995 -0.1670 -0.1351
19598TIP3    H180209   6.416   2.782   5.083 -3.4800 -0.3422  2.8774
19598TIP3    H280210   6.515   2.885   5.134  0.0606 -1.7829 -0.7874
19599TIP3   OH280211   2.089   1.777  14.438 -0.4579 -0.1426 -0.5094
19599TIP3    H180212   2.104   1.772  14.533  0.1446  0.5256 -0.5567
19599TIP3    H280213   2.031   1.853  14.428  1.6179  1.4666 -0.8674
19600TIP3   OH280214   3.623   5.745  13.766  0.5668 -0.2942 -0.0534
19600TIP3    H180215   3.677   5.707  13.696  0.2065 -1.0256  0.0609
19600TIP3    H280216   3.546   5.780  13.721  0.3777 -0.6841 -0.0311
19601TIP3   OH280217   2.741   3.390   2.356  0.1854  0.0558  1.0521
19601TIP3    H180218   2.700   3.413   2.439 -2.0337  1.4322 -0.3612
19601TIP3    H280219   2.742   3.472   2.306  2.2745 -0.5524  0.0293
19602TIP3   OH280220   3.755   1.420  16.062 -0.0379 -0.6369 -0.2292
19602TIP3    H180221   3.760   1.508  16.099  0.1293 -0.3290 -0.9718
19602TIP3    H280222   3.662   1.398  16.063 -0.1251 -0.2712 -0.4541
19603TIP3   OH280223   4.599   4.619  15.971 -0.2859 -0.5131  0.1229
19603TIP3    H180224   4.561   4.700  16.006 -1.2246 -1.0879  0.4554
19603TIP3    H280225   4.668   4.648  15.911  0.4758  0.5063  1.4756
19604TIP3   OH280226   1.779   2.945   6.663  0.4539  0.2391  0.2361
19604TIP3    H180227   1.856   2.888   6.672 -0.2125 -0.5560  0.9344
19604TIP3    H280228   1.729   2.907   6.591  0.2419  0.2034  0.4011
19605TIP3   OH280229   3.826   5.944   6.594  0.2146  0.6025  0.3610
19605TIP3    H180230   3.788   5.864   6.559  0.5124  0.3891  0.5255
19605TIP3    H280231   3.898   5.914   6.650  0.8574  1.0185 -0.2321
19606TIP3   OH280232   5.283   4.946   3.742 -0.2579  0.6794 -0.0847
19606TIP3    H180233   5.204   4.973   3.789  1.0981 -1.2101  3.4642
19606TIP3    H280234   5.342   5.022   3.748 -0.2996  0.6417  0.8382
19607TIP3   OH280235   0.355   5.748  10.605  0.2820 -0.0604  0.4122
19607TIP3    H180236   0.360   5.654  10.624  1.1334  0.2096  1.5384
19607TIP3    H280237   0.430   5.786  10.651 -0.0226  1.1667 -0.0911
19608TIP3   OH280238   5.962   5.911  11.446 -0.1184 -0.2365 -0.4493
19608TIP3    H180239   5.998   5.895  11.533 -1.6660 -0.1782  0.2252
19608TIP3    H280240   5.928   5.825  11.418 -0.6795 -0.0071 -0.4867
19609TIP3   OH280241   6.651   0.930  13.854 -0.5935  0.2536 -0.2256
19609TIP3    H180242   6.557   0.945  13.849 -0.5321  0.3976 -1.0072
19609TIP3    H280243   6.688   0.988  13.788  0.0059 -0.1449 -0.2461
19610TIP3   OH280244   3.724   0.664   0.077  0.2444 -0.6188  0.2752
19610TIP3    H180245   3.795   0.703   0.128  0.8502  0.5862 -1.4591
19610TIP3    H280246   3.763   0.587   0.035  0.8438  0.6164 -1.4945
19611TIP3   OH280247   4.644   0.884   0.798 -0.3728  0.7084 -0.0240
19611TIP3    H180248   4.665   0.793   0.777  1.3183  1.1488 -0.2854
19611TIP3    H280249   4.579   0.877   0.868 -1.3766 -0.6982 -1.0456
19612TIP3   OH280250   3.831   2.772   0.175 -0.3406 -0.1838  0.6065
19612TIP3    H180251   3.921   2.800   0.189 -0.0654  0.0325 -1.3678
19612TIP3    H280252   3.788   2.848   0.136 -0.6837 -1.1149 -0.8810
19613TIP3   OH280253   0.311   0.977   1.943 -0.3138  0.0593  0.2452
19613TIP3    H180254   0.386   1.010   1.893  0.2033 -1.0664  0.2616
19613TIP3    H280255   0.323   0.882   1.945 -2.0254 -0.1889 -0.1958
19614TIP3   OH280256   3.219   3.633  14.833 -0.9218  0.6852 -0.2179
19614TIP3    H180257   3.167   3.704  14.794 -1.3004  0.1491 -0.7035
19614TIP3    H280258   3.279   3.677  14.893 -1.5867  1.3682 -0.0361
19615TIP3   OH280259   4.760   4.402  11.880 -0.1027 -0.9320 -0.0023
19615TIP3    H180260   4.706   4.443  11.813 -0.3550  0.0827  0.7992
19615TIP3    H280261   4.782   4.474  11.940  0.1486 -1.8103  0.9724
19616TIP3   OH280262   2.326   5.600  16.987 -0.3201  0.1701  0.2997
19616TIP3    H180263   2.299   5.541  17.057 -1.1295  1.1994  0.8820
19616TIP3    H280264   2.418   5.580  16.972 -0.5585 -1.1364  0.5709
19617TIP3   OH280265   0.388   4.465  11.442 -0.2564  0.7476 -0.0655
19617TIP3    H180266   0.334   4.441  11.518 -0.9065 -0.8485 -1.0031
19617TIP3    H280267   0.473   4.487  11.479 -0.4859 -0.2857  1.1210
19618TIP3   OH280268   0.544   0.761   2.434  0.0948 -0.2369 -0.2555
19618TIP3    H180269   0.557   0.666   2.430 -0.1177 -0.2751 -0.0695
19618TIP3    H280270   0.547   0.782   2.527  1.1938  0.0953 -0.3578
19619TIP3   OH280271   5.433   5.488   0.748 -0.4085  0.2343 -0.0552
19619TIP3    H180272   5.525   5.512   0.760 -0.2700 -0.3418  0.0640
19619TIP3    H280273   5.389   5.520   0.827 -0.4718  1.2955 -0.5148
19620TIP3   OH280274   0.095   1.318   2.155  0.3626  0.2153  0.3710
19620TIP3    H180275   0.016   1.265   2.157 -0.2682  1.1763  2.5474
19620TIP3    H280276   0.166   1.254   2.165 -0.0540 -0.6955 -2.0365
19621TIP3   OH280277   3.268   4.773  12.932  0.1051 -0.6813  0.3556
19621TIP3    H180278   3.327   4.792  13.005 -1.2531  0.4645  1.1964
19621TIP3    H280279   3.297   4.689  12.898 -0.4495 -2.2159  3.4813
19622TIP3   OH280280   6.434   1.344  17.115 -0.6641 -0.0230  0.2178
19622TIP3    H180281   6.405   1.257  17.142  0.3431 -0.1884  0.7825
19622TIP3    H280282   6.529   1.343  17.127 -0.5859  0.9988 -0.2167
19623TIP3   OH280283   4.571   2.294   0.911  0.1189  0.2884 -0.5531
19623TIP3    H180284   4.600   2.203   0.916 -1.4454 -0.3626 -2.4327
19623TIP3    H280285   4.598   2.333   0.994  1.1924 -1.7764  0.0973
19624TIP3   OH280286   1.833   1.530  11.942  0.3372  0.0202 -0.3030
19624TIP3    H180287   1.847   1.607  11.886 -1.1230  0.5283  0.0026
19624TIP3    H280288   1.916   1.519  11.988  0.5935  1.3726 -0.4122
19625TIP3   OH280289   3.735   4.401  14.878 -0.5577 -0.2563 -0.3381
19625TIP3    H180290   3.648   4.362  14.868  0.4716 -2.3888 -1.2457
19625TIP3    H280291   3.769   4.364  14.959 -0.9678  1.5262  0.6601
19626TIP3   OH280292   3.594   6.681  12.666  0.5734  0.4645  0.4026
19626TIP3    H180293   3.665   6.623  12.639  1.5213  0.8125  2.0644
19626TIP3    H280294   3.637   6.749  12.718 -0.8265  1.3294  0.4502
19627TIP3   OH280295   1.029   1.170   5.183  0.1989 -0.1452  0.2372
19627TIP3    H180296   1.102   1.189   5.242 -1.2456  0.4488  1.8723
19627TIP3    H280297   1.004   1.255   5.147  0.4685 -0.3848 -0.5433
19628TIP3   OH280298   3.361   1.553  13.810  0.0467 -0.1998  0.0655
19628TIP3    H180299   3.315   1.575  13.891  1.9301 -2.3625  1.7901
19628TIP3    H280300   3.427   1.621  13.801  0.6140 -0.6066  1.0311
19629TIP3   OH280301   1.245   2.332   3.060 -0.4431 -0.0795  0.2745
19629TIP3    H180302   1.274   2.241   3.066  2.1950  0.6636 -0.8199
19629TIP3    H280303   1.268   2.370   3.145  1.0567  0.2823 -0.2812
19630TIP3   OH280304   4.832   2.772   5.143  0.0608 -0.4932  0.0919
19630TIP3    H180305   4.739   2.750   5.131  0.3940 -1.1522 -1.3601
19630TIP3    H280306   4.874   2.688   5.161  0.6973 -0.4913 -1.3666
19631TIP3   OH280307   1.762   4.601  12.115 -0.4564 -0.0316 -0.6521
19631TIP3    H180308   1.687   4.598  12.056 -0.3075  0.6788 -0.8875
19631TIP3    H280309   1.742   4.672  12.176 -0.5909 -0.7353  0.1286
19632TIP3   OH280310   1.329   2.935   1.415  0.1110 -0.6019 -0.3633
19632TIP3    H180311   1.307   2.844   1.433  0.3497 -0.5396  0.2379
19632TIP3    H280312   1.380   2.932   1.333 -0.0930 -0.9783 -0.4771
19633TIP3   OH280313   2.652   1.061   5.015 -0.2060 -0.0241  0.1056
19633TIP3    H180314   2.608   1.073   5.099 -0.2548  0.7845 -0.0288
19633TIP3    H280315   2.709   1.138   5.007 -0.0133 -0.2255 -0.4856
19634TIP3   OH280316   4.106   2.701   0.516  0.5387  0.2605 -0.1330
19634TIP3    H180317   4.181   2.759   0.533  0.0215  0.4239  1.7781
19634TIP3    H280318   4.116   2.631   0.580 -1.9413  1.2846  1.4600
19635TIP3   OH280319   3.920   1.349   3.076 -0.1203  0.3992  0.0051
19635TIP3    H180320   4.003   1.321   3.038 -0.7151 -0.2282 -0.8740
19635TIP3    H280321   3.882   1.407   3.010 -1.4522 -1.1934 -0.6659
19636TIP3   OH280322   0.965   2.268   1.528 -0.2228 -0.4832  0.1294
19636TIP3    H180323   0.973   2.258   1.623  0.4654 -2.8201 -0.1546
19636TIP3    H280324   0.918   2.190   1.500  1.1748 -0.6956 -1.6795
19637TIP3   OH280325   3.677   6.549  14.492  0.4256 -0.2803  0.5957
19637TIP3    H180326   3.601   6.601  14.516  2.0381  2.0926  0.6579
19637TIP3    H280327   3.640   6.467  14.458 -2.1811  1.3791 -0.6826
19638TIP3   OH280328   6.683   2.221  16.771 -0.3917  0.2774  0.6061
19638TIP3    H180329   6.615   2.285  16.752  0.0662  0.8201  0.7992
19638TIP3    H280330   6.763   2.260  16.738  0.2234  0.7049  2.5532
19639TIP3   OH280331   3.713   6.523  13.995  0.0647 -0.1268  0.2771
19639TIP3    H180332   3.652   6.493  14.062  0.1594 -3.1200 -0.8978
19639TIP3    H280333   3.658   6.573  13.934 -0.9632 -1.4339  0.0920
19640TIP3   OH280334   2.225   2.758   3.939  0.7429 -0.1869 -0.1865
19640TIP3    H180335   2.228   2.673   3.895  0.7643  0.5496 -1.6497
19640TIP3    H280336   2.267   2.743   4.023  1.5715 -1.4164 -0.7996
19641TIP3   OH280337   0.471   0.880   3.211 -0.3528  0.2453 -0.5479
19641TIP3    H180338   0.422   0.961   3.225 -1.5810  0.0043 -3.1773
19641TIP3    H280339   0.404   0.815   3.189  0.6732 -1.3608  0.9216
19642TIP3   OH280340   1.407   3.050   2.423  0.7366 -0.7883 -0.0152
19642TIP3    H180341   1.417   3.144   2.439 -1.6203  0.1683 -3.4393
19642TIP3    H280342   1.346   3.021   2.490  0.4613  0.4325  0.2851
19643TIP3   OH280343   4.845   6.031   3.277  0.4051  0.1516 -0.0147
19643TIP3    H180344   4.927   6.056   3.320  1.1261  0.6895 -1.6431
19643TIP3    H280345   4.831   5.940   3.302  1.4488  0.0893  0.3561
19644TIP3   OH280346   0.488   6.416  16.737 -0.2586 -0.4116 -0.5043
19644TIP3    H180347   0.520   6.415  16.646  1.5055  1.3096  0.0573
19644TIP3    H280348   0.566   6.397  16.789 -0.7513  0.9994  0.7715
19645TIP3   OH280349   6.329   1.492   5.072 -0.2418 -0.6671  0.3057
19645TIP3    H180350   6.402   1.431   5.089  1.0918  1.3335  1.9739
19645TIP3    H280351   6.322   1.493   4.977 -0.8111 -4.0010  0.2488
19646TIP3   OH280352   3.696   4.996   5.589 -0.4992 -0.0293  0.0922
19646TIP3    H180353   3.662   4.910   5.611 -0.2236 -0.0553  0.4238
19646TIP3    H280354   3.765   5.012   5.653 -0.6060  0.4729  0.0847
19647TIP3   OH280355   0.556   6.256  12.506 -0.0446 -0.0484  0.3227
19647TIP3    H180356   0.525   6.169  12.530 -1.4631  0.1737 -0.6747
19647TIP3    H280357   0.555   6.306  12.588 -2.8467  0.1094  0.2306
19648TIP3   OH280358   5.803   6.320  15.391  0.8308 -0.0557 -0.1856
19648TIP3    H180359   5.882   6.276  15.358  0.8364 -0.1072 -0.1049
19648TIP3    H280360   5.798   6.293  15.483  0.2543 -0.7217 -0.4095
19649TIP3   OH280361   2.085   4.895  14.504 -0.4889 -0.1402 -0.5905
19649TIP3    H180362   2.132   4.826  14.551 -1.0588 -0.6665 -0.7833
19649TIP3    H280363   2.112   4.885  14.412 -1.5703 -0.9581 -0.8361
19650TIP3   OH280364   2.123   2.841   5.564  0.0194  0.3307  0.0762
19650TIP3    H180365   2.161   2.859   5.650  1.9722  0.7285 -0.8486
19650TIP3    H280366   2.093   2.926   5.532  1.3974  0.5782 -0.6030
19651TIP3   OH280367   1.086   6.331   5.091 -0.0831  0.5803 -0.9076
19651TIP3    H180368   1.060   6.326   5.183  2.5538  0.9323 -0.0933
19651TIP3    H280369   1.073   6.242   5.058  2.6103 -0.5526  0.9013
19652TIP3   OH280370   3.700   1.178   4.780 -0.0214 -0.7545  0.8445
19652TIP3    H180371   3.696   1.248   4.715 -0.6768  1.3005  3.0429
19652TIP3    H280372   3.744   1.106   4.735  0.2515  0.8968 -1.6068
19653TIP3   OH280373   5.614   2.922  10.840  0.0421  0.4495  0.2643
19653TIP3    H180374   5.619   3.016  10.855  2.0024  0.7869 -2.2478
19653TIP3    H280375   5.575   2.913  10.753 -0.4836 -1.1029  0.6269
19654TIP3   OH280376   6.055   6.779   2.820 -0.1648 -0.5821 -0.3635
19654TIP3    H180377   6.097   6.864   2.819  1.7504 -1.5107 -2.5205
19654TIP3    H280378   5.971   6.793   2.776  0.9053 -0.1701 -2.3113
19655TIP3   OH280379   6.068   2.008   4.115  0.0762  0.1735 -0.1110
19655TIP3    H180380   6.142   1.952   4.090  0.9044  0.6312  1.3063
19655TIP3    H280381   6.097   2.097   4.096 -0.4353  0.2942 -0.3431
19656TIP3   OH280382   4.374   3.003   2.612 -0.3606  0.0967  0.8175
19656TIP3    H180383   4.345   3.094   2.616  1.3829  0.7928 -1.4531
19656TIP3    H280384   4.447   2.999   2.675 -0.0520  0.4333  0.4853
19657TIP3   OH280385   5.302   0.698  11.383  0.2004  0.1601  0.4201
19657TIP3    H180386   5.242   0.668  11.314 -0.0375  0.9727  0.2559
19657TIP3    H280387   5.372   0.742  11.335  0.6404 -0.3022  0.6415
19658TIP3   OH280388   0.671   4.621  15.784 -0.2153 -0.5206 -0.4498
19658TIP3    H180389   0.675   4.569  15.863 -2.4689 -1.0246 -0.6384
19658TIP3    H280390   0.596   4.586  15.735 -0.1561  1.1451 -1.8071
19659TIP3   OH280391   0.630   5.428   5.363  0.2135 -0.1726 -0.4869
19659TIP3    H180392   0.701   5.372   5.329  2.3180  1.9306  0.3408
19659TIP3    H280393   0.593   5.469   5.285  0.8350 -0.1969 -0.7999
19660TIP3   OH280394   6.139   6.464  14.218  0.0884 -0.1053 -0.1492
19660TIP3    H180395   6.205   6.529  14.195  1.0785 -0.6571  1.1265
19660TIP3    H280396   6.167   6.429  14.302 -0.4443 -2.1866 -0.8104
19661TIP3   OH280397   5.030   5.643  14.920 -0.1953  0.6128 -0.0888
19661TIP3    H180398   4.974   5.614  14.993 -0.1044 -0.5459 -0.4582
19661TIP3    H280399   5.003   5.588  14.847  0.1005  1.3965 -0.7865
19662TIP3   OH280400   6.166   2.470  13.986  0.0000  0.7310 -0.2317
19662TIP3    H180401   6.153   2.402  13.919 -1.7401  1.5947 -0.8058
19662TIP3    H280402   6.175   2.551  13.936  0.3030  1.1659  0.5230
19663TIP3   OH280403   3.537   3.718  14.373  0.1794 -0.1515 -0.3794
19663TIP3    H180404   3.449   3.696  14.404  0.2437  2.5751  1.8976
19663TIP3    H280405   3.524   3.788  14.310  0.8343  2.0823  1.8876
19664TIP3   OH280406   2.314   4.090   6.399 -0.3964 -0.6315 -0.6198
19664TIP3    H180407   2.291   3.998   6.412  1.4135 -1.3380 -2.0813
19664TIP3    H280408   2.404   4.097   6.432 -0.1912  0.3852 -1.3625
19665TIP3   OH280409   4.145   5.981   3.188  0.5822 -0.6432  0.0718
19665TIP3    H180410   4.084   6.054   3.199 -0.5568 -1.0858 -2.7194
19665TIP3    H280411   4.105   5.908   3.234 -0.1247 -0.4462 -0.2183
19666TIP3   OH280412   6.095   3.619   4.744  0.2039 -0.0867  0.8529
19666TIP3    H180413   6.087   3.678   4.819 -1.4669  0.1025  0.5419
19666TIP3    H280414   6.058   3.536   4.775 -0.6705  0.0508  0.1743
19667TIP3   OH280415   0.867   5.531  15.258  0.5902  0.2252 -0.3326
19667TIP3    H180416   0.884   5.473  15.332 -1.4731  0.6792  0.5310
19667TIP3    H280417   0.788   5.579  15.282 -0.5445 -0.1283 -3.1110
19668TIP3   OH280418   0.898   0.707   1.837  0.1046  0.3095 -0.1046
19668TIP3    H180419   0.891   0.685   1.744 -0.6831 -1.2812  0.3119
19668TIP3    H280420   0.990   0.690   1.858 -0.1269 -1.0945 -0.1752
19669TIP3   OH280421   5.013   5.912  12.961  0.5852  0.0392 -0.8401
19669TIP3    H180422   5.046   5.939  13.047  0.6871 -0.6922 -0.6392
19669TIP3    H280423   5.033   5.818  12.957 -1.3156 -0.3882 -0.7840
19670TIP3   OH280424   3.581   4.543  12.959  1.1294  0.0807 -0.1460
19670TIP3    H180425   3.580   4.600  13.036  0.3376  1.1693 -0.9493
19670TIP3    H280426   3.666   4.559  12.919  1.6222 -0.6316  0.6061
19671TIP3   OH280427   1.620   2.282   3.919 -0.0434 -0.5341 -0.7897
19671TIP3    H180428   1.662   2.199   3.897  0.3667 -0.0481 -1.8530
19671TIP3    H280429   1.569   2.262   3.998  2.1026 -1.1538  0.5031
19672TIP3   OH280430   5.272   5.126   4.564 -0.2638 -0.2066 -0.3095
19672TIP3    H180431   5.336   5.057   4.582 -0.4948 -0.5162 -0.6569
19672TIP3    H280432   5.190   5.092   4.601 -0.6733 -0.7091 -1.6628
19673TIP3   OH280433   4.603   4.442  16.668  0.1245  0.9350  0.4528
19673TIP3    H180434   4.526   4.386  16.669  0.1219  0.9391  2.1525
19673TIP3    H280435   4.575   4.523  16.711  1.0120  1.0044  0.9258
19674TIP3   OH280436   6.357   1.466  16.477 -0.4317 -0.8112 -0.2723
19674TIP3    H180437   6.376   1.504  16.391  1.0484  1.2412  0.9278
19674TIP3    H280438   6.433   1.411  16.497  1.0030  1.6617  1.3234
19675TIP3   OH280439   2.731   2.297  11.535  0.2224  0.9155 -0.4416
19675TIP3    H180440   2.810   2.304  11.589 -0.9819  2.0980  1.2247
19675TIP3    H280441   2.684   2.222  11.572 -0.6963  1.8461  0.3076
19676TIP3   OH280442   5.795   1.815   1.568  0.3002 -0.2105 -0.4416
19676TIP3    H180443   5.828   1.902   1.589  1.9545 -0.9270  0.0036
19676TIP3    H280444   5.823   1.800   1.478 -0.9528  0.1622 -0.8957
19677TIP3   OH280445   5.563   1.445  15.336 -0.2422 -0.0722 -0.1008
19677TIP3    H180446   5.533   1.360  15.367  0.4417 -0.7203 -1.1689
19677TIP3    H280447   5.640   1.425  15.282  0.2776  1.2713  0.1118
19678TIP3   OH280448   2.390   0.394   2.122  0.4674  0.0580 -0.2625
19678TIP3    H180449   2.392   0.487   2.142  0.6792 -0.1490  0.6996
19678TIP3    H280450   2.471   0.360   2.160 -0.3655 -0.7945  0.7450
19679TIP3   OH280451   2.842   1.588   0.787 -0.2535  0.4202  0.0210
19679TIP3    H180452   2.849   1.615   0.696  1.2926  0.5098  0.1501
19679TIP3    H280453   2.797   1.503   0.784 -1.6029  1.1557 -0.6871
19680TIP3   OH280454   2.434   6.084  16.329  0.1264 -0.2747  0.2985
19680TIP3    H180455   2.396   6.104  16.414  1.1038 -0.7738  0.8565
19680TIP3    H280456   2.423   6.165  16.278  0.5362  0.4000  1.2657
19681TIP3   OH280457   2.253   5.716  11.494 -0.3199  0.3232 -0.2354
19681TIP3    H180458   2.297   5.796  11.466 -0.4499  1.4979  2.6903
19681TIP3    H280459   2.161   5.732  11.476 -0.0750 -0.3317 -2.2181
19682TIP3   OH280460   5.213   4.508   5.469 -0.4896 -0.4350 -0.2819
19682TIP3    H180461   5.183   4.570   5.535  0.9763 -0.6350  0.5958
19682TIP3    H280462   5.162   4.429   5.486 -1.3164  0.0452 -0.4786
19683TIP3   OH280463   1.322   5.094  16.655  0.2219 -0.3075  0.7181
19683TIP3    H180464   1.400   5.039  16.660 -0.3798 -1.2885 -0.6414
19683TIP3    H280465   1.356   5.183  16.667  1.6592 -0.6515 -0.5516
19684TIP3   OH280466   4.438   1.026  16.027 -0.7857 -0.1101 -0.2716
19684TIP3    H180467   4.391   1.078  16.093  2.9525  1.5834  1.1718
19684TIP3    H280468   4.434   1.080  15.948  0.5946  1.0904  0.4532
19685TIP3   OH280469   5.216   1.572   2.041  0.1252 -0.3213 -0.4385
19685TIP3    H180470   5.206   1.593   1.948  1.7346 -0.1669 -0.5941
19685TIP3    H280471   5.173   1.486   2.050  0.7420 -0.7573 -1.5139
19686TIP3   OH280472   0.097   5.773   1.525  0.3642 -0.5638  0.3943
19686TIP3    H180473   0.098   5.818   1.440 -0.5633 -1.2539  0.0137
19686TIP3    H280474   0.011   5.793   1.562  0.4897 -0.8645  0.8508
19687TIP3   OH280475   2.926   5.284   5.029  0.1973 -0.0626  0.4551
19687TIP3    H180476   2.990   5.257   5.096  1.4340  2.2745  0.2772
19687TIP3    H280477   2.843   5.287   5.075  1.0128  1.3523  1.8618
19688TIP3   OH280478   1.064   3.338   3.741  0.6403 -0.3933 -0.1819
19688TIP3    H180479   1.119   3.416   3.750  1.1294 -0.7035 -0.4877
19688TIP3    H280480   1.067   3.297   3.828  0.2112  0.0352  0.0411
19689TIP3   OH280481   2.032   0.847  14.653  0.2984  0.2588  0.0181
19689TIP3    H180482   2.097   0.882  14.592 -0.0046  0.7324 -0.0365
19689TIP3    H280483   2.078   0.779  14.702  0.8428  0.6200  0.0031
19690TIP3   OH280484   6.719   0.370  13.366 -0.0818 -0.5777 -0.2055
19690TIP3    H180485   6.753   0.287  13.398 -1.4857 -1.3640 -0.7277
19690TIP3    H280486   6.624   0.357  13.359 -0.2282  0.7944 -1.0861
19691TIP3   OH280487   6.758   5.028   4.175 -0.5564  0.4967 -0.1743
19691TIP3    H180488   6.710   4.978   4.109  0.8952  0.0674 -0.9274
19691TIP3    H280489   6.691   5.061   4.234 -1.8885  0.7981 -1.8106
19692TIP3   OH280490   4.328   6.579   5.081  0.4637  0.2880 -0.3469
19692TIP3    H180491   4.390   6.652   5.084 -0.8526  1.3656  1.0360
19692TIP3    H280492   4.384   6.501   5.083  1.7699  1.2262  2.9294
19693TIP3   OH280493   5.547   5.378   0.437 -0.3500 -0.3997  0.7700
19693TIP3    H180494   5.467   5.380   0.384 -0.1635  1.9201  0.5410
19693TIP3    H280495   5.527   5.433   0.512  0.6886 -0.6708  1.2508
19694TIP3   OH280496   2.690   4.565   6.059 -0.0494 -0.0395  0.4833
19694TIP3    H180497   2.637   4.501   6.012 -1.3497  0.9071  0.6118
19694TIP3    H280498   2.691   4.534   6.149  0.0801 -0.3658  0.3695
19695TIP3   OH280499   1.228   1.886   0.064 -0.0768  0.7143  0.4827
19695TIP3    H180500   1.291   1.940   0.113 -0.2683  0.7936  0.6449
19695TIP3    H280501   1.265   1.798   0.064  0.1431  0.8081  0.3848
19696TIP3   OH280502   3.857   1.271   0.152  0.1180  0.0279  0.7389
19696TIP3    H180503   3.870   1.278   0.057 -2.1772  0.5739  0.4361
19696TIP3    H280504   3.936   1.310   0.190  0.8875  0.1456 -0.9376
19697TIP3   OH280505   3.171   2.594  16.455 -0.2903  0.1060 -0.4057
19697TIP3    H180506   3.182   2.688  16.467  0.0463  0.0398 -0.1875
19697TIP3    H280507   3.199   2.578  16.364  0.9337  0.0236 -0.0270
19698TIP3   OH280508   1.451   3.986  13.414  0.3255 -0.3395 -0.2167
19698TIP3    H180509   1.441   3.955  13.324  0.2925 -1.9044  0.3145
19698TIP3    H280510   1.545   3.982  13.430  0.1647 -1.8441  0.4248
19699TIP3   OH280511   3.619   2.617   3.451 -0.1044 -0.2749  0.4517
19699TIP3    H180512   3.528   2.595   3.473 -1.0592  0.3630 -2.6195
19699TIP3    H280513   3.620   2.712   3.445  1.0331 -0.2115  1.4810
19700TIP3   OH280514   0.717   0.956   1.881  0.6543  0.1712  0.5313
19700TIP3    H180515   0.734   0.865   1.857  2.2354  0.1896  1.5476
19700TIP3    H280516   0.749   0.964   1.971 -1.4375  1.1869  1.2142
19701TIP3   OH280517   6.138   2.048   3.281 -0.6421 -0.8326  0.0318
19701TIP3    H180518   6.172   2.069   3.194 -0.5338 -1.4568 -0.0831
19701TIP3    H280519   6.195   1.978   3.312 -1.4982 -1.5275  0.0511
19702TIP3   OH280520   3.701   0.118  11.652 -0.5203  0.8374 -0.6431
19702TIP3    H180521   3.667   0.037  11.690 -0.4754  1.2212  0.2116
19702TIP3    H280522   3.637   0.185  11.676  0.0768  1.2861 -0.2828
19703TIP3   OH280523   6.168   6.110   4.551 -0.0681  0.0449 -0.3938
19703TIP3    H180524   6.224   6.180   4.517  1.5051 -0.9372  0.1119
19703TIP3    H280525   6.228   6.053   4.600 -1.7469 -0.2786  1.3511
19704TIP3   OH280526   3.448   3.801   4.098  0.2003 -0.0712 -0.1544
19704TIP3    H180527   3.425   3.864   4.166 -0.5011 -0.4496 -0.0310
19704TIP3    H280528   3.418   3.842   4.016  0.5710  0.1531 -0.1797
19705TIP3   OH280529   4.018   5.683   1.271 -0.0740  0.5423  0.0689
19705TIP3    H180530   4.021   5.590   1.248  0.7342  0.4133  0.6834
19705TIP3    H280531   4.067   5.689   1.353 -1.1611  1.3251  0.6782
19706TIP3   OH280532   5.617   3.092  11.365  0.1168 -0.3855  0.4990
19706TIP3    H180533   5.655   3.151  11.301 -0.5553 -1.6699 -1.1059
19706TIP3    H280534   5.528   3.077  11.334  0.5358 -2.9025  0.4309
19707TIP3   OH280535   5.658   4.398   5.292  0.0311 -0.0933 -0.4569
19707TIP3    H180536   5.634   4.456   5.364  0.3301  0.5276 -0.8579
19707TIP3    H280537   5.587   4.333   5.289 -0.3130  0.2609 -0.0314
19708TIP3   OH280538   4.974   3.886  14.844 -0.1937 -0.4529  0.9121
19708TIP3    H180539   4.896   3.832  14.855  1.3146 -2.3638  2.7072
19708TIP3    H280540   5.041   3.826  14.811  0.4678  1.2234 -0.9146
19709TIP3   OH280541   3.369   5.190  17.058 -0.1401 -0.1923  0.7960
19709TIP3    H180542   3.446   5.220  17.105 -1.7473  1.4399  2.4977
19709TIP3    H280543   3.396   5.185  16.966  1.7346  1.1605  1.2519
19710TIP3   OH280544   0.269   0.848  16.952  0.0131 -0.3772  0.3638
19710TIP3    H180545   0.201   0.914  16.943  1.0016  0.4143 -1.8854
19710TIP3    H280546   0.269   0.824  17.044 -3.1021 -0.1949  0.4655
19711TIP3   OH280547   5.831   4.879  17.173  0.2673  0.2978 -0.1333
19711TIP3    H180548   5.925   4.862  17.172  0.3062  0.5392 -1.0100
19711TIP3    H280549   5.823   4.974  17.167 -0.0144  0.3641  1.2557
19712TIP3   OH280550   4.400   0.269  14.302  0.4726  0.4198  0.1918
19712TIP3    H180551   4.463   0.273  14.374  1.3158 -0.3787 -0.4885
19712TIP3    H280552   4.434   0.330  14.237 -0.0205  0.7726  0.2675
19713TIP3   OH280553   4.679   1.370  13.012 -0.3766  0.3794  0.4076
19713TIP3    H180554   4.642   1.396  12.928 -1.3703  0.1075  0.7541
19713TIP3    H280555   4.701   1.277  13.002 -0.0879  0.4577  0.3080
19714TIP3   OH280556   0.787   6.107  15.633 -0.4374 -0.4977 -0.3990
19714TIP3    H180557   0.737   6.095  15.713 -1.9746 -0.4730 -1.3298
19714TIP3    H280558   0.818   6.019  15.611 -0.0245 -0.5061  0.2102
19715TIP3   OH280559   2.237   4.484  15.779 -0.4903  0.2694  0.4308
19715TIP3    H180560   2.254   4.569  15.820  1.9590 -0.6139  1.3236
19715TIP3    H280561   2.242   4.421  15.851  1.5922 -1.0397 -0.7921
19716TIP3   OH280562   6.774   2.563   4.792  0.1831 -0.1496  0.1814
19716TIP3    H180563   6.687   2.570   4.751  0.3540  0.3197 -0.0996
19716TIP3    H280564   6.763   2.603   4.878 -0.2794 -1.4901  0.7696
19717TIP3   OH280565   6.379   6.111   2.891 -0.2105 -0.2451 -0.3033
19717TIP3    H180566   6.341   6.158   2.965 -2.1233 -2.0723 -0.0777
19717TIP3    H280567   6.382   6.176   2.820 -2.4749  0.3372  0.1013
19718TIP3   OH280568   2.486   6.756   1.974  0.5629  0.1971  0.3612
19718TIP3    H180569   2.440   6.673   1.967 -0.3831  0.6986  0.5887
19718TIP3    H280570   2.431   6.810   2.031 -0.2723  1.9664 -2.0381
19719TIP3   OH280571   3.237   4.921  12.134 -0.9734 -0.2270 -0.3730
19719TIP3    H180572   3.211   4.867  12.060 -0.0280  0.8437 -1.5188
19719TIP3    H280573   3.155   4.945  12.177 -1.3665 -2.9627  0.4588
19720TIP3   OH280574   0.144   0.272  10.422 -0.5033 -0.0113  0.4869
19720TIP3    H180575   0.057   0.235  10.403 -1.0087  1.0481  0.7163
19720TIP3    H280576   0.128   0.365  10.436  1.1347  0.8412 -2.7532
19721TIP3   OH280577   6.304   0.581  16.625  0.1018 -0.3819 -0.3450
19721TIP3    H180578   6.237   0.591  16.692  1.5112 -0.3601  1.1055
19721TIP3    H280579   6.302   0.663  16.576  0.2699  0.3382  0.8300
19722TIP3   OH280580   4.250   4.866  14.875  0.3522 -0.9401 -0.0053
19722TIP3    H180581   4.169   4.904  14.909  0.5572 -1.0649  0.6275
19722TIP3    H280582   4.232   4.772  14.871 -0.2565 -0.7588 -1.8425
19723TIP3   OH280583   3.832   6.749  13.025  0.6280 -0.3420 -0.3515
19723TIP3    H180584   3.839   6.794  13.109 -2.0847  1.7583 -1.1648
19723TIP3    H280585   3.754   6.695  13.032 -0.2770  0.7032 -1.8252
19724TIP3   OH280586   4.080   2.368   4.222  0.3667 -0.3460 -0.5024
19724TIP3    H180587   4.048   2.450   4.259 -0.7720 -1.0831  0.2032
19724TIP3    H280588   4.175   2.376   4.222  0.3216  0.2619  1.2119
19725TIP3   OH280589   5.832   2.668   2.236 -0.6302 -0.0459  0.1699
19725TIP3    H180590   5.801   2.728   2.169 -0.7307  0.6676  0.8505
19725TIP3    H280591   5.900   2.616   2.193 -1.5275 -0.4076 -0.8190
19726TIP3   OH280592   2.874   2.286   0.918 -0.0177  0.2163  0.3612
19726TIP3    H180593   2.897   2.194   0.923  0.0862  0.0771 -2.0796
19726TIP3    H280594   2.955   2.332   0.940  0.1343 -0.2869  0.8488
19727TIP3   OH280595   0.416   4.474   4.552 -0.2450 -0.4175 -0.2445
19727TIP3    H180596   0.493   4.521   4.583 -0.3755 -0.1667 -0.2981
19727TIP3    H280597   0.347   4.540   4.549 -0.7169 -0.8475  0.7452
19728TIP3   OH280598   3.081   0.118   0.995 -0.3402  0.3205 -0.4023
19728TIP3    H180599   3.072   0.206   0.958 -1.4994 -0.3542 -1.7949
19728TIP3    H280600   3.127   0.069   0.927 -0.1521 -0.2823  0.1588
19729TIP3   OH280601   0.687   3.031   2.491  0.3956  0.2478 -0.0588
19729TIP3    H180602   0.763   3.033   2.434 -0.7772 -0.6076 -1.7089
19729TIP3    H280603   0.715   3.075   2.571  2.0200  1.6466 -1.3736
19730TIP3   OH280604   3.781   0.285  13.525  0.5400 -0.1853  0.5890
19730TIP3    H180605   3.864   0.299  13.570  0.6282 -1.2417  0.7659
19730TIP3    H280606   3.719   0.265  13.596 -0.1787  1.9635  0.5945
19731TIP3   OH280607   6.491   6.032  11.514 -0.1249 -0.3211 -0.0025
19731TIP3    H180608   6.488   6.048  11.420 -0.7181 -0.7993 -0.0714
19731TIP3    H280609   6.517   6.116  11.552 -1.7773  0.4069 -0.4505
19732TIP3   OH280610   6.035   2.930  11.674  0.8804  0.0229 -0.0678
19732TIP3    H180611   5.945   2.927  11.640  0.6760 -0.1946  0.4758
19732TIP3    H280612   6.082   2.866  11.621  0.3728 -0.9084  0.5945
19733TIP3   OH280613   1.778   4.502  10.771  0.3713  0.1693  0.1438
19733TIP3    H180614   1.851   4.557  10.797  1.6968 -0.8271 -1.3711
19733TIP3    H280615   1.708   4.564  10.750  1.0443  1.1688  0.7999
19734TIP3   OH280616   0.467   3.259  14.683 -0.0167 -0.0679 -0.3487
19734TIP3    H180617   0.553   3.225  14.710 -0.4453 -0.7959  0.1360
19734TIP3    H280618   0.454   3.223  14.596 -0.0833 -0.4382 -0.1884
19735TIP3   OH280619   2.971   1.684   6.354  0.4039 -0.8093 -0.1605
19735TIP3    H180620   2.993   1.598   6.316  0.5010 -0.7089 -0.3336
19735TIP3    H280621   3.053   1.713   6.395  0.0845 -1.2679  0.8023
19736TIP3   OH280622   3.513   1.458  10.524  0.2102 -0.1289  0.3393
19736TIP3    H180623   3.579   1.410  10.573 -1.8264 -3.5842 -0.1026
19736TIP3    H280624   3.430   1.434  10.566 -1.1683  0.3013 -2.0312
19737TIP3   OH280625   4.201   6.765  16.550  0.1133 -0.4982  0.4177
19737TIP3    H180626   4.208   6.735  16.459  1.3526 -0.6388  0.5520
19737TIP3    H280627   4.290   6.794  16.572 -0.0339 -1.0627  1.7894
19738TIP3   OH280628   3.705   1.752   6.300  0.6930  0.0137  0.2605
19738TIP3    H180629   3.752   1.669   6.289 -1.7233 -1.4166  0.3936
19738TIP3    H280630   3.644   1.736   6.372 -1.4099  1.1332 -1.2074
19739TIP3   OH280631   5.173   4.942  11.037  0.4546 -0.1060 -0.2845
19739TIP3    H180632   5.079   4.923  11.040  0.7986 -1.7202  1.1915
19739TIP3    H280633   5.198   4.923  10.947 -0.0655 -2.7152  0.0762
19740TIP3   OH280634   2.515   3.444  11.856  0.2043  0.6791  0.3035
19740TIP3    H180635   2.480   3.515  11.803 -0.2424  0.9218  0.9278
19740TIP3    H280636   2.446   3.378  11.858  0.2143  0.6787  0.6101
19741TIP3   OH280637   5.353   4.944  12.673 -0.4151  0.6509  0.5161
19741TIP3    H180638   5.331   5.037  12.675 -1.2051  0.4764 -0.2105
19741TIP3    H280639   5.314   4.908  12.753  0.2944  1.0230  1.0396
19742TIP3   OH280640   1.709   5.229   4.907  0.3886 -0.7099 -0.2409
19742TIP3    H180641   1.792   5.243   4.953 -1.8270 -0.1963  3.7789
19742TIP3    H280642   1.699   5.306   4.851  1.6943  0.1749  0.7136
19743TIP3   OH280643   2.216   3.093   4.378  0.3908  0.2892 -0.1580
19743TIP3    H180644   2.271   3.153   4.327 -1.3318  0.9318 -1.3059
19743TIP3    H280645   2.238   3.006   4.344 -0.0653  0.6330 -1.3923
19744TIP3   OH280646   1.463   5.915  14.715 -0.5306  0.0473 -0.7236
19744TIP3    H180647   1.372   5.932  14.739 -0.0336 -1.1367  2.2752
19744TIP3    H280648   1.510   5.916  14.799  1.9114 -1.1728 -2.0250
19745TIP3   OH280649   3.450   3.003   2.768 -0.6281  0.0655  0.1660
19745TIP3    H180650   3.361   3.004   2.734 -0.4235 -0.1169 -0.3854
19745TIP3    H280651   3.477   2.911   2.763  0.3212  0.4140 -1.6133
19746TIP3   OH280652   1.613   3.659   1.993 -0.3657 -0.4065 -0.0839
19746TIP3    H180653   1.642   3.675   2.083  0.4711 -2.0682 -0.0331
19746TIP3    H280654   1.632   3.740   1.946  1.8836 -0.5302  0.5757
19747TIP3   OH280655   6.778   1.686   4.148 -0.2664 -0.2738  0.3602
19747TIP3    H180656   6.716   1.630   4.195  0.1498 -0.4607  0.6907
19747TIP3    H280657   6.861   1.639   4.153  0.4950  1.1909  2.1716
19748TIP3   OH280658   1.384   3.378   0.960 -0.5257 -0.1591  0.0582
19748TIP3    H180659   1.380   3.330   1.043  0.3099 -0.2024  0.0808
19748TIP3    H280660   1.300   3.359   0.917 -0.8092 -0.4380  0.7262
19749TIP3   OH280661   0.890   5.431  11.823  0.5874  0.0553  0.3428
19749TIP3    H180662   0.845   5.382  11.892  2.0658 -1.8026  0.0018
19749TIP3    H280663   0.976   5.391  11.816  0.9642  1.1301 -1.6378
19750TIP3   OH280664   5.781   0.475   0.058  0.6795 -0.0200  0.4947
19750TIP3    H180665   5.844   0.403   0.062  0.1553 -0.5683 -0.9817
19750TIP3    H280666   5.717   0.448  -0.008  0.0384  1.4536  0.4922
19751TIP3   OH280667   5.087   5.841   3.525  0.5866 -0.4629  0.2230
19751TIP3    H180668   5.158   5.814   3.583  1.1158 -1.4281 -0.8513
19751TIP3    H280669   5.104   5.794   3.443  0.0458  1.1433 -0.8239
19752TIP3   OH280670   4.378   0.025  14.589  0.1019  0.1829  0.4997
19752TIP3    H180671   4.394   0.001  14.680 -0.0751  1.0710  0.7690
19752TIP3    H280672   4.294  -0.015  14.568 -1.0274  2.0058  1.4797
19753TIP3   OH280673   3.241   1.740   2.228  0.1357  0.3752  0.8396
19753TIP3    H180674   3.188   1.663   2.249 -1.2439  0.8959 -0.6210
19753TIP3    H280675   3.273   1.724   2.140  2.5376  0.0193  1.7532
19754TIP3   OH280676   1.334   1.443   5.232  0.6447 -0.2997 -0.0157
19754TIP3    H180677   1.412   1.396   5.262 -2.1000 -3.4906  2.4447
19754TIP3    H280678   1.332   1.428   5.137  2.8964 -0.2707 -0.0998
19755TIP3   OH280679   2.731   1.665   0.476 -0.2248  0.0445 -0.8651
19755TIP3    H180680   2.660   1.729   0.479 -0.9513 -0.6898 -2.1927
19755TIP3    H280681   2.688   1.580   0.490  0.5211 -0.3219 -0.7442
19756TIP3   OH280682   5.672   2.967   1.274 -0.0267 -0.3188  0.5751
19756TIP3    H180683   5.622   2.886   1.262  0.4019 -0.4546 -0.3442
19756TIP3    H280684   5.727   2.973   1.196  0.0310  0.7971  0.6907
19757TIP3   OH280685   5.308   1.882   1.977 -0.2051  0.8896 -0.2423
19757TIP3    H180686   5.338   1.973   1.971  0.4018  0.8178  1.4936
19757TIP3    H280687   5.307   1.852   1.886 -0.5836  2.6776 -0.8590
19758TIP3   OH280688   1.817   1.977  15.472  0.5110 -0.2671  0.4695
19758TIP3    H180689   1.747   2.041  15.461  1.3041  0.5110 -0.0883
19758TIP3    H280690   1.828   1.970  15.567  0.2800  0.2508  0.5338
19759TIP3   OH280691   3.266   2.440  12.846 -0.0892 -0.1809 -0.1915
19759TIP3    H180692   3.259   2.489  12.764  1.2669  0.1078 -0.1433
19759TIP3    H280693   3.283   2.507  12.912 -0.3878 -0.4992  0.2108
19760TIP3   OH280694   2.787   4.248  16.549  0.0983 -0.2871  0.5818
19760TIP3    H180695   2.745   4.315  16.604  1.4980  0.2546  1.0127
19760TIP3    H280696   2.881   4.263  16.561  0.4174 -1.3178 -0.5703
19761TIP3   OH280697   4.180   2.871  14.752 -0.0626  0.1991 -0.2698
19761TIP3    H180698   4.183   2.855  14.657 -1.2783 -0.6329 -0.1826
19761TIP3    H280699   4.125   2.800  14.786  0.5461  0.3716  1.0877
19762TIP3   OH280700   4.485   2.045   5.590 -0.0984 -0.6182  0.3668
19762TIP3    H180701   4.528   1.967   5.626  0.3507  1.0142  3.5281
19762TIP3    H280702   4.520   2.051   5.501  1.9999 -2.4692  0.9871
19763TIP3   OH280703   1.883   3.869  12.248 -0.0980  0.1215 -0.4119
19763TIP3    H180704   1.964   3.892  12.201  0.2105  1.7338  0.8700
19763TIP3    H280705   1.856   3.786  12.210  2.5577 -0.7955 -0.3772
19764TIP3   OH280706   4.786   0.599   1.050 -0.0765  0.1470 -0.1439
19764TIP3    H180707   4.779   0.580   0.956  0.9493  0.2042 -0.2327
19764TIP3    H280708   4.717   0.546   1.090 -1.3684  1.1101 -1.0592
19765TIP3   OH280709   2.095   3.078   1.358  0.4175  0.1039 -0.3354
19765TIP3    H180710   2.081   3.165   1.395  2.3435 -0.4820  1.8851
19765TIP3    H280711   2.023   3.067   1.296 -0.6848  2.6870  0.3956
19766TIP3   OH280712   1.279   3.149   0.183  0.6121  0.3366 -0.0106
19766TIP3    H180713   1.184   3.133   0.178  0.6062 -0.7922  2.5801
19766TIP3    H280714   1.319   3.069   0.149  0.5775 -0.7340  2.3189
19767TIP3   OH280715   6.150   4.815   5.633  0.4510 -0.1967  0.1965
19767TIP3    H180716   6.122   4.729   5.601  0.8532  0.8863 -3.2853
19767TIP3    H280717   6.236   4.799   5.673 -0.9901 -1.9560  2.7242
19768TIP3   OH280718   5.448   1.264  10.955 -0.1894 -0.4012 -0.6723
19768TIP3    H180719   5.380   1.316  10.910  0.6007 -0.5555 -2.0532
19768TIP3    H280720   5.398   1.199  11.006 -1.1472  0.8626  0.0541
19769TIP3   OH280721   0.213   1.151  16.631 -0.2867  0.2509  0.5293
19769TIP3    H180722   0.190   1.209  16.558 -0.8494  0.2002  0.6663
19769TIP3    H280723   0.130   1.134  16.675 -0.2192 -1.1149  0.1574
19770TIP3   OH280724   2.785   4.708  14.474  0.3259 -0.2909  0.8646
19770TIP3    H180725   2.757   4.785  14.523  2.3613  0.9080  0.2106
19770TIP3    H280726   2.854   4.669  14.529 -0.6341 -1.6084  1.1552
19771TIP3   OH280727   2.132   1.010   2.559 -0.1281 -0.4462  0.3239
19771TIP3    H180728   2.061   1.063   2.595 -1.8072 -2.1263 -0.4566
19771TIP3    H280729   2.156   1.055   2.477  1.2794  1.3788  1.6961
19772TIP3   OH280730   0.987   2.771   5.999 -0.1722 -0.0119  0.1085
19772TIP3    H180731   1.081   2.756   5.995 -0.5209 -3.6421  2.7979
19772TIP3    H280732   0.954   2.742   5.914  0.7145 -3.0628  0.7297
19773TIP3   OH280733   3.892   4.241  16.207 -0.2113  0.2840  0.6053
19773TIP3    H180734   3.904   4.168  16.268  1.4625  0.3154  0.3242
19773TIP3    H280735   3.873   4.316  16.264  1.1767  0.2785  1.1012
19774TIP3   OH280736   1.015   0.669   0.813 -0.2727  0.0098 -0.0599
19774TIP3    H180737   1.110   0.664   0.800  0.0815  0.0548  2.1578
19774TIP3    H280738   0.977   0.631   0.734  1.6078 -0.4865 -0.7498
19775TIP3   OH280739   2.409   3.569   2.626 -0.3247 -0.4692  0.1492
19775TIP3    H180740   2.455   3.646   2.591 -0.2113 -0.2018  0.8754
19775TIP3    H280741   2.347   3.545   2.557 -0.3826  0.2920 -0.0705
19776TIP3   OH280742   5.385   5.409  17.139 -0.4580 -0.0235  0.1160
19776TIP3    H180743   5.437   5.423  17.218  0.8140 -2.5176 -0.2486
19776TIP3    H280744   5.447   5.419  17.067 -1.7058  2.6974 -0.6537
19777TIP3   OH280745   2.005   6.076  12.016 -0.2728 -0.3511 -0.1703
19777TIP3    H180746   1.987   5.983  12.027  0.1178 -0.1607  2.1629
19777TIP3    H280747   1.949   6.119  12.081  2.4788  0.7719  1.5409
19778TIP3   OH280748   2.838   4.974  13.851  0.1020 -0.0017  0.3730
19778TIP3    H180749   2.769   5.013  13.798 -0.5180 -1.7244 -0.1480
19778TIP3    H280750   2.867   4.898  13.800 -0.4901 -1.6984  2.4519
19779TIP3   OH280751   0.131   3.790  16.967  0.6547 -0.1257  0.2087
19779TIP3    H180752   0.068   3.719  16.958 -1.6322  1.9318 -0.5068
19779TIP3    H280753   0.189   3.762  17.038 -1.6315 -1.6486  1.5481
19780TIP3   OH280754   5.861   1.404  16.299 -0.2170 -0.6521  0.4890
19780TIP3    H180755   5.932   1.346  16.270  0.3564  0.1887  0.1986
19780TIP3    H280756   5.880   1.420  16.391  1.2989  1.4457 -0.1572
19781TIP3   OH280757   0.527   1.895   2.632  0.3986 -0.5674  1.1263
19781TIP3    H180758   0.618   1.901   2.604  0.5090  1.9813  1.8470
19781TIP3    H280759   0.531   1.902   2.728 -0.4771 -1.8596  1.2787
19782TIP3   OH280760   5.658   2.748  14.589 -0.6252  0.9834 -0.7401
19782TIP3    H180761   5.685   2.696  14.513 -2.3071 -0.4138 -0.4156
19782TIP3    H280762   5.721   2.820  14.593  0.3989  0.2089 -2.5390
19783TIP3   OH280763   4.952   4.716  12.845  0.6187 -0.0998 -0.5496
19783TIP3    H180764   4.908   4.771  12.910  0.2643 -1.2447  0.1857
19783TIP3    H280765   4.881   4.680  12.792  0.8581  0.1650 -1.0563
19784TIP3   OH280766   3.531   5.496  11.470 -0.2889 -0.1388 -0.3238
19784TIP3    H180767   3.605   5.516  11.527 -1.7460 -0.5331  1.7725
19784TIP3    H280768   3.564   5.431  11.409  1.3714  0.4557 -0.0831
19785TIP3   OH280769   5.748   6.156   3.022  0.4981  0.0669 -0.4313
19785TIP3    H180770   5.738   6.223   2.955 -1.1832  2.7189  2.3839
19785TIP3    H280771   5.842   6.140   3.025  0.6956  0.5249 -2.7713
19786TIP3   OH280772   5.695   4.906   4.010  0.0704  0.0706  0.3605
19786TIP3    H180773   5.634   4.973   4.040  0.7415  0.3079  1.2370
19786TIP3    H280774   5.757   4.896   4.083  1.6925  0.5859 -0.9149
19787TIP3   OH280775   0.820   1.378   3.862  0.1899 -0.5884  0.0720
19787TIP3    H180776   0.854   1.396   3.950  1.6817  1.6282 -0.9145
19787TIP3    H280777   0.870   1.300   3.833  0.2897 -0.8209  0.8619
19788TIP3   OH280778   0.023   2.745   5.848 -0.5899 -0.3455  0.3437
19788TIP3    H180779   0.056   2.802   5.917  0.8210 -1.3590  0.5242
19788TIP3    H280780   0.098   2.691   5.823 -1.4216 -0.8786 -1.0883
19789TIP3   OH280781   3.485   5.177  13.279  0.3678  0.4325  0.1856
19789TIP3    H180782   3.466   5.224  13.197 -1.9688 -0.2262  0.3013
19789TIP3    H280783   3.400   5.144  13.307  1.4688 -1.0662  1.8426
19790TIP3   OH280784   4.095   3.665  13.292  0.3395 -0.3222 -0.5187
19790TIP3    H180785   4.161   3.667  13.362 -0.9606  0.1329  0.7064
19790TIP3    H280786   4.086   3.757  13.266 -0.8757 -0.1850  0.3438
19791TIP3   OH280787   1.894   3.011   5.020 -0.0772 -0.0194  0.2285
19791TIP3    H180788   1.976   2.978   4.984 -1.8967 -0.5705 -3.6533
19791TIP3    H280789   1.843   2.933   5.040 -0.6869  0.3224  0.0430
19792TIP3   OH280790   0.676   2.094   0.204  0.0563  0.1581  0.0550
19792TIP3    H180791   0.743   2.162   0.212  1.1255 -0.5778 -2.1973
19792TIP3    H280792   0.723   2.019   0.166 -1.6447 -1.0000  0.1806
19793TIP3   OH280793   4.935   3.702   4.853 -0.2365  0.2598 -0.2294
19793TIP3    H180794   4.910   3.640   4.784  1.8865 -1.1922  0.2770
19793TIP3    H280795   4.954   3.784   4.807  1.3183 -0.7457 -1.3995
19794TIP3   OH280796   3.112   6.775   4.227 -0.5668 -0.0511  0.7472
19794TIP3    H180797   3.084   6.684   4.217  0.3029 -0.3652  1.1565
19794TIP3    H280798   3.137   6.783   4.319  2.0165 -0.1757  0.0912
19795TIP3   OH280799   0.114   1.904   5.293  0.1434 -0.0584 -0.0029
19795TIP3    H180800   0.106   1.955   5.373  0.2673  0.2921 -0.2153
19795TIP3    H280801   0.176   1.834   5.315  1.4970  1.0352 -0.3081
19796TIP3   OH280802   4.834   3.116   1.708  0.3485 -0.3263 -0.3911
19796TIP3    H180803   4.801   3.121   1.798  1.2462  1.5851 -0.1488
19796TIP3    H280804   4.842   3.022   1.691 -2.7945 -0.8030  0.4021
19797TIP3   OH280805   0.766   6.289  10.774 -0.4255  0.1175 -0.1889
19797TIP3    H180806   0.742   6.197  10.761  1.0356 -0.2354 -0.4377
19797TIP3    H280807   0.727   6.334  10.699 -0.5217 -0.4148 -0.4638
19798TIP3   OH280808   3.823   1.396   1.180  0.3868  0.0919  0.6374
19798TIP3    H180809   3.876   1.343   1.120 -0.3688 -0.0832  0.1208
19798TIP3    H280810   3.734   1.362   1.170 -0.1924  1.7566 -0.0530
19799TIP3   OH280811   2.368   0.175  14.121 -0.2491 -0.0543  0.4565
19799TIP3    H180812   2.292   0.233  14.128 -1.1298 -1.4365  2.7223
19799TIP3    H280813   2.442   0.229  14.150 -1.1113 -0.1232  2.9044
19800TIP3   OH280814   0.786   6.023  16.373  0.0274  0.0358  0.4265
19800TIP3    H180815   0.741   5.939  16.373  1.2541 -0.6245  0.0546
19800TIP3    H280816   0.835   6.024  16.291  1.9916  0.0424  1.5644
19801TIP3   OH280817   4.544   1.520   3.822  0.3789  0.1365  0.3859
19801TIP3    H180818   4.626   1.503   3.775  0.4560  1.5276 -0.0005
19801TIP3    H280819   4.529   1.440   3.872  0.6080 -1.1623 -1.5500
19802TIP3   OH280820   5.156   3.571  15.861 -0.3265  0.1064  0.5181
19802TIP3    H180821   5.163   3.646  15.920  1.9130  0.1347  0.2341
19802TIP3    H280822   5.130   3.610  15.777 -1.8023  0.2435  1.0098
19803TIP3   OH280823   1.737   5.861  13.879  0.9894  0.4125 -0.0106
19803TIP3    H180824   1.808   5.864  13.943 -0.0964 -0.8274  1.2975
19803TIP3    H280825   1.659   5.885  13.929  0.2444  0.2710 -1.0863
19804TIP3   OH280826   4.381   5.949  14.140 -0.3939 -0.4542  0.7211
19804TIP3    H180827   4.414   5.862  14.117  0.7259  0.4020 -0.9401
19804TIP3    H280828   4.287   5.937  14.149 -0.4066 -1.5822 -0.7538
19805TIP3   OH280829   1.636   1.079  15.334 -0.1588  0.1147 -0.1320
19805TIP3    H180830   1.727   1.060  15.309 -0.1563  0.5234 -0.4305
19805TIP3    H280831   1.638   1.082  15.430  0.1533  0.1679 -0.1383
19806TIP3   OH280832   6.461   2.063   4.241 -0.6193  0.2274  0.0301
19806TIP3    H180833   6.552   2.090   4.233 -0.1235 -1.7007 -1.1033
19806TIP3    H280834   6.439   2.024   4.157 -2.0101 -0.7425  0.8064
19807TIP3   OH280835   5.985   2.871  16.537  0.3754 -0.0463 -0.0423
19807TIP3    H180836   6.054   2.846  16.598 -0.5355 -0.3293  0.8854
19807TIP3    H280837   5.909   2.886  16.592 -0.3008  0.2827 -1.0580
19808TIP3   OH280838   2.725   6.542  14.689  0.5577 -0.1317 -0.3098
19808TIP3    H180839   2.738   6.634  14.710  2.3794  0.0220 -1.9970
19808TIP3    H280840   2.728   6.497  14.774 -0.0091  1.2948  0.4829
19809TIP3   OH280841   5.311   0.553  14.832 -0.2221 -0.3299  0.4361
19809TIP3    H180842   5.251   0.508  14.773 -0.5524 -0.9540  1.2422
19809TIP3    H280843   5.353   0.620  14.778 -0.0695 -1.3019 -0.6515
19810TIP3   OH280844   6.774   0.820   3.828  0.2313 -0.1902  0.0663
19810TIP3    H180845   6.813   0.735   3.812  0.9424 -0.2847  2.0839
19810TIP3    H280846   6.842   0.869   3.876 -0.1695  1.4934 -1.0351
19811TIP3   OH280847   0.225   2.138  14.935 -0.1110 -0.0303 -0.3351
19811TIP3    H180848   0.293   2.192  14.976  0.5123  0.4083 -1.9347
19811TIP3    H280849   0.210   2.068  14.998  1.6686 -0.0035  0.1552
19812TIP3   OH280850   3.292   3.872  15.492 -0.5770  0.2733  0.1306
19812TIP3    H180851   3.250   3.932  15.431 -0.7198 -0.0395 -0.0795
19812TIP3    H280852   3.307   3.925  15.571  0.6389  0.9843 -0.5639
19813TIP3   OH280853   4.909   6.435   0.199  0.2462 -0.0030 -0.2153
19813TIP3    H180854   4.942   6.356   0.156 -0.6603  0.4302 -1.7439
19813TIP3    H280855   4.861   6.481   0.130  0.9695  1.9960  0.5941
19814TIP3   OH280856   2.674   5.654   6.897  0.2005 -0.2064  0.6524
19814TIP3    H180857   2.608   5.630   6.832 -1.1090 -0.7627  2.1752
19814TIP3    H280858   2.700   5.743   6.873  0.6879 -0.8658 -1.4039
19815TIP3   OH280859   4.901   5.695  14.044  0.3301 -0.4241 -0.2646
19815TIP3    H180860   4.810   5.665  14.043  0.6479 -1.4411  0.7788
19815TIP3    H280861   4.896   5.786  14.015 -1.1994 -0.0273  1.1636
19816TIP3   OH280862   2.109   0.168   3.417 -0.1406  0.5282 -0.1908
19816TIP3    H180863   2.139   0.082   3.446  1.7856  1.6604  1.3285
19816TIP3    H280864   2.063   0.204   3.493 -1.9154  0.4015 -1.1964
19817TIP3   OH280865   2.065   2.261   4.746  0.4011 -0.4011  0.0488
19817TIP3    H180866   1.991   2.204   4.730  1.3560 -1.0142 -2.3574
19817TIP3    H280867   2.081   2.254   4.840 -1.6461 -1.3964  0.3419
19818TIP3   OH280868   2.730   2.566   0.904  0.4069 -0.4704 -0.9041
19818TIP3    H180869   2.671   2.552   0.978  3.2851  0.9370  1.7482
19818TIP3    H280870   2.788   2.490   0.904  0.1398 -0.6833 -2.0269
19819TIP3   OH280871   0.455   6.597   0.013  0.2063  0.2562  0.5918
19819TIP3    H180872   0.468   6.560   0.100 -0.9016  0.0973  0.6960
19819TIP3    H280873   0.398   6.672   0.027 -0.0605  0.1656 -0.0049
19820TIP3   OH280874   1.936   0.571   0.688  0.5061  0.7655 -0.4795
19820TIP3    H180875   1.934   0.537   0.598 -0.4101  1.8708 -0.8850
19820TIP3    H280876   1.998   0.644   0.685  0.9022  0.4498 -0.0768
19821TIP3   OH280877   5.659   4.113   3.335  0.1007 -0.5002  0.0157
19821TIP3    H180878   5.571   4.090   3.363 -0.2407  0.0909 -0.5479
19821TIP3    H280879   5.710   4.120   3.416 -1.0958  2.1390  0.5801
19822TIP3   OH280880   1.295   6.536  16.058 -0.4625 -0.9734  0.1994
19822TIP3    H180881   1.262   6.547  16.147 -1.9752  1.0402 -0.5855
19822TIP3    H280882   1.219   6.506  16.008 -0.0429 -0.4203 -0.7685
19823TIP3   OH280883   1.649   5.960  14.500 -0.2540  0.6200  0.3181
19823TIP3    H180884   1.729   5.907  14.509 -0.3990  0.3611  0.1000
19823TIP3    H280885   1.595   5.935  14.575 -0.5784  0.0075 -0.1139
19824TIP3   OH280886   0.223   4.156  13.162  0.2015  0.3097 -0.0527
19824TIP3    H180887   0.274   4.198  13.093 -0.5020  1.5735  0.1916
19824TIP3    H280888   0.135   4.191  13.153  0.0595  0.3701  1.3871
19825TIP3   OH280889   6.375   1.095   4.465 -0.5170 -0.3285  0.6328
19825TIP3    H180890   6.462   1.125   4.436 -0.3498  0.3484  1.8109
19825TIP3    H280891   6.314   1.145   4.412 -0.1976 -1.9587 -1.3446
19826TIP3   OH280892   0.703   5.048   0.006  0.6646 -0.0790 -0.3648
19826TIP3    H180893   0.673   4.958   0.020 -1.9983  0.7929 -0.2443
19826TIP3    H280894   0.653   5.079  -0.069  0.3587  1.8218  0.5907
19827TIP3   OH280895   3.332   2.723   5.637  0.2066 -0.2923  0.3275
19827TIP3    H180896   3.269   2.788   5.603  0.0605 -0.7147 -0.2127
19827TIP3    H280897   3.339   2.743   5.730 -1.2186 -0.6368  0.5200
19828TIP3   OH280898   2.032   5.204   1.394  0.0106  0.2176  0.6111
19828TIP3    H180899   2.016   5.153   1.314  1.4749  0.6224  0.0380
19828TIP3    H280900   2.061   5.289   1.362  1.2330  0.1751  1.5770
19829TIP3   OH280901   3.644   4.985  13.943  0.6328  0.2334 -0.1966
19829TIP3    H180902   3.638   5.051  13.875  2.0824  0.3373 -0.2419
19829TIP3    H280903   3.553   4.965  13.966  0.1334  0.3409 -2.0077
19830TIP3   OH280904   4.578   4.460   5.155 -0.1034 -0.2332 -0.3836
19830TIP3    H180905   4.611   4.389   5.099  0.6253 -0.1011 -0.1228
19830TIP3    H280906   4.632   4.455   5.234 -0.1799  0.4982 -0.2867
19831TIP3   OH280907   6.390   0.478  14.540 -0.5886 -0.0344  0.2342
19831TIP3    H180908   6.384   0.573  14.549  1.9507  0.2940 -1.1642
19831TIP3    H280909   6.426   0.449  14.624  2.7297  0.7589 -0.8193
19832TIP3   OH280910   2.446   1.452  14.951 -0.3923  0.5404  0.1338
19832TIP3    H180911   2.376   1.469  15.014 -0.0513  0.5579  0.5105
19832TIP3    H280912   2.405   1.398  14.884 -0.4071 -0.7019  1.1093
19833TIP3   OH280913   2.119   2.411   2.848  0.2743 -0.2568  0.2373
19833TIP3    H180914   2.037   2.412   2.798  1.2234  0.1700 -1.3335
19833TIP3    H280915   2.187   2.422   2.782  1.6379 -1.1462  1.4724
19834TIP3   OH280916   0.431   2.941   4.923  0.0849 -0.2811  0.6044
19834TIP3    H180917   0.457   3.033   4.918  4.2819 -1.4118 -0.3547
19834TIP3    H280918   0.468   2.910   5.005 -2.2414 -0.8839  1.4494
19835TIP3   OH280919   3.141   4.089  13.054  0.0409  0.6363 -0.1448
19835TIP3    H180920   3.101   4.097  13.141  1.2121 -0.9670  0.5815
19835TIP3    H280921   3.232   4.116  13.068  0.7154 -1.4381 -0.4358
19836TIP3   OH280922   4.371   0.793   3.574 -0.3461  0.5698  0.0747
19836TIP3    H180923   4.451   0.741   3.570  0.9554  2.3746  1.4921
19836TIP3    H280924   4.313   0.743   3.632  0.5679  0.2779  0.7576
19837TIP3   OH280925   1.365   2.492   4.050  0.2039 -0.3559 -0.0888
19837TIP3    H180926   1.424   2.421   4.076  0.8307 -0.0774 -0.7511
19837TIP3    H280927   1.413   2.541   3.984 -0.9488 -0.3926 -0.9794
19838TIP3   OH280928   5.777   5.337   4.769 -0.3437 -0.6838  0.5234
19838TIP3    H180929   5.852   5.298   4.723  0.6470  2.6485 -0.8133
19838TIP3    H280930   5.813   5.415   4.812 -2.9237  0.6587  0.3366
19839TIP3   OH280931   4.915   1.797   1.748  0.7131 -0.3685 -0.0719
19839TIP3    H180932   4.946   1.809   1.838  0.0845  0.7771 -0.0015
19839TIP3    H280933   4.937   1.879   1.704  0.4951 -0.7052 -0.8084
19840TIP3   OH280934   4.975   2.322   6.512  0.2062 -0.6688 -0.4570
19840TIP3    H180935   4.988   2.253   6.447 -0.7120 -1.1528 -0.1311
19840TIP3    H280936   4.898   2.294   6.562 -2.5183  2.4554 -2.7493
19841TIP3   OH280937   4.238   1.339   4.652 -0.7256  0.1077  0.5304
19841TIP3    H180938   4.292   1.413   4.624  1.5012 -2.0269 -1.0400
19841TIP3    H280939   4.171   1.331   4.584 -2.0148  1.6497  1.5637
19842TIP3   OH280940   6.528   6.391   4.295 -0.1142  0.0043 -0.1037
19842TIP3    H180941   6.568   6.467   4.252 -1.3803  0.2575 -0.8760
19842TIP3    H280942   6.601   6.343   4.332  0.9081  0.4529 -1.4873
19843TIP3   OH280943   2.446   3.995  13.728  0.4718  0.9148  0.3778
19843TIP3    H180944   2.471   3.922  13.671 -0.2371  1.0925 -0.1745
19843TIP3    H280945   2.524   4.050  13.733  0.5552  0.8782 -0.4045
19844TIP3   OH280946   2.441   1.525   0.784 -0.0104 -0.6570 -0.0711
19844TIP3    H180947   2.488   1.442   0.787  0.8548 -0.2689 -1.8176
19844TIP3    H280948   2.352   1.502   0.757 -0.5201 -1.2675  2.0467
19845TIP3   OH280949   5.267   2.497  14.525 -0.5882 -0.4366  0.0213
19845TIP3    H180950   5.307   2.551  14.594  0.3337  0.1154 -0.9231
19845TIP3    H280951   5.313   2.523  14.445 -1.1679 -1.5675 -0.6905
19846TIP3   OH280952   2.319   2.927  12.150 -0.7183  0.1355  0.2644
19846TIP3    H180953   2.293   2.843  12.188  0.7525  0.6784  2.5820
19846TIP3    H280954   2.252   2.989  12.182  0.2061  0.4865  1.5745
19847TIP3   OH280955   0.516   3.845  11.489  0.3303  0.0267 -0.0422
19847TIP3    H180956   0.572   3.785  11.440 -0.9582 -0.6279 -0.7125
19847TIP3    H280957   0.486   3.793  11.564 -1.1385 -0.3036 -0.8588
19848TIP3   OH280958   0.718   4.632  11.337  0.3613  0.2077  0.6054
19848TIP3    H180959   0.648   4.606  11.276  1.2775  1.6506 -1.1038
19848TIP3    H280960   0.682   4.613  11.424 -1.6998 -0.1792 -0.2979
19849TIP3   OH280961   3.371   2.908   2.305  0.4193  0.0098  0.2180
19849TIP3    H180962   3.411   2.995   2.299  1.8881 -0.5810  1.0660
19849TIP3    H280963   3.321   2.898   2.224  0.1745  1.6830  0.1627
19850TIP3   OH280964   2.711   4.262  14.457 -0.0768 -0.1526 -0.9750
19850TIP3    H180965   2.665   4.329  14.407 -1.6626  0.1476  0.8195
19850TIP3    H280966   2.753   4.310  14.529  0.5388 -0.8121 -0.8897
19851TIP3   OH280967   5.391   6.061  14.823 -0.2753 -0.1437  0.2875
19851TIP3    H180968   5.446   5.995  14.781  0.4358  1.0356 -0.6637
19851TIP3    H280969   5.339   6.012  14.887  0.7912 -1.5027  0.1331
19852TIP3   OH280970   1.942   5.167   4.186 -0.1714 -0.0361 -0.2549
19852TIP3    H180971   1.891   5.089   4.164 -1.2843  0.6065 -0.0366
19852TIP3    H280972   2.030   5.149   4.154 -0.7554 -0.8103 -1.4714
19853TIP3   OH280973   5.293   0.903  13.784 -0.1861 -0.1260 -0.1653
19853TIP3    H180974   5.289   0.821  13.736  2.4764 -0.9658  0.9562
19853TIP3    H280975   5.276   0.878  13.875 -2.2532  1.0086 -0.2236
19854TIP3   OH280976   6.148   6.123  10.604  0.4391  0.4000 -0.0961
19854TIP3    H180977   6.164   6.112  10.698  0.4780 -0.0662 -0.1582
19854TIP3    H280978   6.061   6.087  10.589  0.2031  0.9849 -0.1442
19855TIP3   OH280979   0.097   1.932   3.179  0.7142 -0.0425  0.1355
19855TIP3    H180980   0.188   1.936   3.150  0.2386  1.2977 -1.2239
19855TIP3    H280981   0.061   2.018   3.158 -0.4419  0.0112  2.1508
19856TIP3   OH280982   3.989   4.547  17.131  0.0980 -0.4806 -0.2838
19856TIP3    H180983   3.963   4.464  17.092  1.1895 -1.6930  1.5320
19856TIP3    H280984   3.916   4.571  17.188  0.6516 -1.2256  0.7495
19857TIP3   OH280985   1.478   2.443  14.255 -0.1184  0.1657  0.1834
19857TIP3    H180986   1.454   2.353  14.233  0.1495  0.0312  0.4355
19857TIP3    H280987   1.571   2.449  14.233  0.8038 -0.7203  3.5996
19858TIP3   OH280988   5.607   1.550   5.616 -0.7366 -0.1133 -0.9380
19858TIP3    H180989   5.637   1.585   5.700 -0.2165 -2.1681 -0.2461
19858TIP3    H280990   5.589   1.628   5.563 -0.1460  1.1994  0.7394
19859TIP3   OH280991   5.381   0.849   1.943  0.2935  0.4026 -0.1827
19859TIP3    H180992   5.322   0.924   1.944  0.4026  0.4964 -0.5260
19859TIP3    H280993   5.461   0.880   1.983  0.2479  0.3933 -0.0857
19860TIP3   OH280994   5.340   6.692  12.480  0.4750  0.9754  0.7768
19860TIP3    H180995   5.335   6.632  12.554 -0.8562  0.8013  0.5541
19860TIP3    H280996   5.324   6.779  12.517  0.4311  0.9606  0.7920
19861TIP3   OH280997   5.877   3.836  13.304 -0.2431 -0.2003 -0.4685
19861TIP3    H180998   5.782   3.841  13.312 -0.1862  0.9260 -0.3984
19861TIP3    H280999   5.892   3.800  13.217 -0.7322  1.9190 -1.4607
19862TIP3   OH281000   0.719   5.671   5.038 -0.4148  0.0881 -0.6739
19862TIP3    H181001   0.643   5.726   5.058 -1.0444 -0.4243 -1.5960
19862TIP3    H281002   0.690   5.581   5.058 -0.3497 -0.2004 -1.8619
19863TIP3   OH281003   1.616   5.176   3.521 -0.3486  0.1005  0.5438
19863TIP3    H181004   1.533   5.169   3.567 -0.1895  0.4429  0.8931
19863TIP3    H281005   1.657   5.254   3.559 -0.2826  0.4690 -0.2919
19864TIP3   OH281006   1.039   2.648   0.330 -0.6179 -0.0431 -1.2042
19864TIP3    H181007   0.964   2.628   0.274 -0.1810 -1.1900 -1.3921
19864TIP3    H281008   1.013   2.618   0.417 -0.7205  0.3863 -1.0840
19865TIP3   OH281009   2.574   2.743  11.624  0.8462  0.2004  0.0461
19865TIP3    H181010   2.613   2.769  11.707  0.4787 -0.9383  0.5884
19865TIP3    H281011   2.510   2.811  11.604 -0.6973 -0.6856  1.8590
19866TIP3   OH281012   0.575   2.802   2.849 -0.4343 -0.6213 -0.1440
19866TIP3    H181013   0.624   2.747   2.909 -0.0929 -1.2666 -0.9996
19866TIP3    H281014   0.488   2.809   2.889 -0.2498 -1.1424  0.3609
19867TIP3   OH281015   2.779   0.583  12.940 -0.0299  0.1490  0.0317
19867TIP3    H181016   2.702   0.545  12.899  1.1411 -0.0819 -2.0523
19867TIP3    H281017   2.796   0.528  13.017 -0.5649 -1.2169 -0.8237
19868TIP3   OH281018   2.388   6.360   0.841  0.2101  0.3322 -0.3319
19868TIP3    H181019   2.473   6.322   0.816  0.5845  1.0041 -0.1066
19868TIP3    H281020   2.401   6.388   0.932 -0.1953  0.6133 -0.3604
19869TIP3   OH281021   0.908   3.784   1.732  0.1928  0.1540 -0.6805
19869TIP3    H181022   0.921   3.719   1.664 -0.0731 -0.5969 -0.0165
19869TIP3    H281023   0.815   3.779   1.753 -0.0585  1.5200 -1.3999
19870TIP3   OH281024   3.906   4.210   6.462 -0.1960 -0.6525  0.3777
19870TIP3    H181025   3.983   4.233   6.514 -0.0875 -2.6572  1.1679
19870TIP3    H281026   3.881   4.123   6.494 -1.5129 -0.9363 -1.3399
19871TIP3   OH281027   6.711   5.855  13.042 -0.0147  0.6074  0.3486
19871TIP3    H181028   6.715   5.950  13.031  0.5630  0.6866  1.2827
19871TIP3    H281029   6.785   5.822  12.991  0.9346  0.7920  1.5803
19872TIP3   OH281030   5.674   5.859   4.714 -0.1189 -0.0858  0.0868
19872TIP3    H181031   5.598   5.811   4.746  0.4694 -0.5941  0.7637
19872TIP3    H281032   5.742   5.792   4.706  0.0168  0.2194 -1.3068
19873TIP3   OH281033   1.213   5.220   0.017 -0.2868  0.7007 -0.2743
19873TIP3    H181034   1.172   5.300  -0.017 -1.2480  1.2806  2.1383
19873TIP3    H281035   1.241   5.243   0.106 -0.4133 -1.5677  0.3919
19874TIP3   OH281036   5.798   1.875   1.997 -0.1962 -0.2380  0.7302
19874TIP3    H181037   5.792   1.877   2.093 -0.1947 -0.2397  0.7305
19874TIP3    H281038   5.875   1.821   1.979 -1.2470 -1.7742  0.7055
19875TIP3   OH281039   5.392   6.034  16.145 -0.2054 -0.1750 -0.1084
19875TIP3    H181040   5.473   6.060  16.102  0.0605  0.7255  0.9049
19875TIP3    H281041   5.362   6.113  16.190 -0.7139 -0.9644  0.9672
19876TIP3   OH281042   6.438   5.190  15.092 -0.2236 -0.4877  0.3497
19876TIP3    H181043   6.363   5.247  15.077  0.6507  0.5830 -0.0500
19876TIP3    H281044   6.455   5.196  15.186 -0.0444  0.0282  0.2845
19877TIP3   OH281045   6.262   3.180   1.273 -0.0094 -0.0558  0.0422
19877TIP3    H181046   6.241   3.150   1.361 -0.0138  0.3260  0.1699
19877TIP3    H281047   6.261   3.275   1.279  0.3861 -0.0311 -0.2749
19878TIP3   OH281048   0.056   6.126  16.037  0.1856 -0.7094  0.3849
19878TIP3    H181049   0.147   6.154  16.047  0.1013  0.6606 -2.3889
19878TIP3    H281050   0.056   6.069  15.960 -1.5950  0.8346 -0.8223
19879TIP3   OH281051   4.779   6.267  13.096 -0.2302 -0.8759  0.0206
19879TIP3    H181052   4.746   6.188  13.055  0.3234 -0.3833 -1.4201
19879TIP3    H281053   4.856   6.239  13.146 -1.2498 -1.5753  1.2164
19880TIP3   OH281054   1.133   1.745  13.056 -0.2119 -0.0593 -0.2490
19880TIP3    H181055   1.110   1.657  13.027 -1.3690  0.1640 -0.0572
19880TIP3    H281056   1.092   1.803  12.991 -0.5973  0.3696  0.3647
19881TIP3   OH281057   0.240   5.763   3.579 -0.0623 -0.0547 -0.3469
19881TIP3    H181058   0.164   5.719   3.616  0.9977 -0.1617  1.7462
19881TIP3    H281059   0.229   5.855   3.605  0.2899  0.0146 -0.4393
19882TIP3   OH281060   5.906   5.597   5.663  0.2107 -0.7357  0.4444
19882TIP3    H181061   5.834   5.651   5.631  1.4080 -0.2999 -1.5852
19882TIP3    H281062   5.971   5.659   5.695 -0.1348 -1.1176  1.9227
19883TIP3   OH281063   1.438   1.518  16.392 -0.5201  0.3088  0.1796
19883TIP3    H181064   1.389   1.531  16.311  3.7202 -1.7091 -2.8658
19883TIP3    H281065   1.501   1.590  16.393  2.0601 -1.8474 -0.4746
19884TIP3   OH281066   5.915   5.310  14.732 -0.0735 -0.4252 -0.2681
19884TIP3    H181067   5.880   5.222  14.726 -1.8978  0.1459  1.5336
19884TIP3    H281068   5.839   5.368  14.726  1.0310  1.0191 -0.8695
19885TIP3   OH281069   2.284   6.007   1.950  0.5039  0.0597  0.1113
19885TIP3    H181070   2.290   5.945   2.022  2.5949 -1.3691 -1.2364
19885TIP3    H281071   2.206   5.978   1.901  0.5932 -0.5736  0.3342
19886TIP3   OH281072   0.035   0.998  14.526 -0.3083  0.1896  0.3003
19886TIP3    H181073  -0.042   0.968  14.574 -0.8930  1.7344  0.3736
19886TIP3    H281074   0.013   1.088  14.500  0.8816  0.1380 -0.9498
19887TIP3   OH281075   4.280   0.081  13.887  0.3811 -0.1513 -0.2081
19887TIP3    H181076   4.272  -0.014  13.891  1.3925 -0.2429 -0.0597
19887TIP3    H281077   4.374   0.097  13.897  0.0119  0.9584  1.6087
19888TIP3   OH281078   0.864   3.200  15.002  0.6327 -0.1899 -0.4314
19888TIP3    H181079   0.862   3.107  14.980  0.2927 -0.3511  0.2676
19888TIP3    H281080   0.774   3.220  15.028  0.2857  0.7415 -2.2401
19889TIP3   OH281081   3.323   6.096  16.637  0.4071 -0.5184  0.5511
19889TIP3    H181082   3.233   6.127  16.647  0.1939 -0.2994 -1.8203
19889TIP3    H281083   3.318   6.029  16.568  2.0084 -0.7737  0.6624
19890TIP3   OH281084   1.941   5.025  11.728  0.0598  0.6795  0.2612
19890TIP3    H181085   1.849   5.047  11.738  0.2494  2.5119 -1.5395
19890TIP3    H281086   1.987   5.082  11.790  0.2283  2.7126 -1.6140
19891TIP3   OH281087   0.963   6.073  10.564  0.0491  0.7033  0.3096
19891TIP3    H181088   0.930   6.119  10.487 -0.6553 -0.4064 -0.0824
19891TIP3    H281089   0.890   6.016  10.590  1.5909 -1.7557 -0.5221
19892TIP3   OH281090   3.083   4.607   2.002  0.0731 -0.0197  0.0216
19892TIP3    H181091   3.127   4.672   2.056  0.8962  0.2017 -0.9242
19892TIP3    H281092   2.992   4.608   2.034  0.2272  1.1033  0.4549
19893TIP3   OH281093   1.663   5.190   2.541 -0.2150 -0.1590 -0.0802
19893TIP3    H181094   1.692   5.100   2.551 -0.3504 -0.4680 -2.3302
19893TIP3    H281095   1.646   5.200   2.448 -2.3912  1.5232  0.4527
19894TIP3   OH281096   0.770   5.065  15.836  0.1024 -0.1032 -0.0531
19894TIP3    H181097   0.843   5.123  15.815  1.4079 -1.9475 -0.7303
19894TIP3    H281098   0.786   5.038  15.927 -0.7957  0.9929  0.4434
19895TIP3   OH281099   3.662   3.155   6.482 -0.5862  0.0732  0.1669
19895TIP3    H181100   3.745   3.109   6.476 -0.6200 -0.0059  0.2941
19895TIP3    H281101   3.598   3.086   6.503 -0.7579  0.0578 -0.3957
19896TIP3   OH281102   2.057   3.118  11.261  0.1881 -0.2320  0.1113
19896TIP3    H181103   2.073   3.048  11.324 -0.8799 -0.6124 -0.0256
19896TIP3    H281104   2.005   3.077  11.192 -0.2232  0.6306 -0.0989
19897TIP3   OH281105   3.180   2.984   5.470  0.3526 -1.0265  0.4704
19897TIP3    H181106   3.172   3.000   5.564  2.3618 -2.2952  0.8911
19897TIP3    H281107   3.215   3.066   5.435  1.0194 -1.0442  1.0701
19898TIP3   OH281108   1.595   4.113   0.450  0.7785  0.4899  0.0837
19898TIP3    H181109   1.570   4.162   0.528  2.6582  0.0529  1.0100
19898TIP3    H281110   1.545   4.032   0.455 -0.5822  1.3018 -0.2180
19899TIP3   OH281111   2.581   1.009   1.783  1.0109  0.4624 -0.1699
19899TIP3    H181112   2.646   0.961   1.834  1.9094 -1.3932 -2.9347
19899TIP3    H281113   2.525   0.941   1.746 -1.1763  1.9146  0.3842
19900TIP3   OH281114   4.215   2.456   0.403  0.2728 -0.0435  0.0791
19900TIP3    H181115   4.308   2.470   0.419  0.0835  1.2879  0.1015
19900TIP3    H281116   4.177   2.544   0.407 -0.7963 -0.4397 -1.1451
19901TIP3   OH281117   6.763   4.372   0.225  0.3128 -0.2276  0.5860
19901TIP3    H181118   6.725   4.399   0.142  3.2277 -0.9823 -1.0575
19901TIP3    H281119   6.832   4.436   0.243 -0.0162 -0.2950  2.2387
19902TIP3   OH281120   6.117   0.556   5.175 -0.4628  0.2385 -0.1050
19902TIP3    H181121   6.044   0.618   5.167 -0.6178 -0.1084 -1.6435
19902TIP3    H281122   6.194   0.607   5.146 -0.4562 -0.0396 -0.5785
19903TIP3   OH281123   5.991   3.426   6.747 -0.1646  0.1390 -0.2635
19903TIP3    H181124   6.053   3.357   6.774  0.0292  1.1480  2.0006
19903TIP3    H281125   5.914   3.411   6.802  0.1196  2.0744  0.7051
19904TIP3   OH281126   3.005   6.283  16.030 -0.2157 -0.2782  0.2264
19904TIP3    H181127   3.095   6.312  16.048 -0.0567 -2.0209  2.4660
19904TIP3    H281128   2.975   6.245  16.113 -3.4274  1.2382 -0.1774
19905TIP3   OH281129   5.156   3.453   5.810  0.1426  0.6305 -0.3586
19905TIP3    H181130   5.200   3.522   5.761 -3.0539  0.6318 -3.4323
19905TIP3    H281131   5.095   3.499   5.868 -0.1019  0.4643 -0.4820
19906TIP3   OH281132   4.748   6.379  11.863  0.5867  0.2373  0.1143
19906TIP3    H181133   4.836   6.414  11.845  0.4912  0.0628 -0.7118
19906TIP3    H281134   4.689   6.451  11.840  0.3627 -0.5770 -2.0006
19907TIP3   OH281135   0.968   2.212   0.432  0.2999  0.2857  0.1860
19907TIP3    H181136   0.940   2.135   0.482 -1.3761 -0.3618 -1.7096
19907TIP3    H281137   1.064   2.213   0.441  0.3166 -1.8961  0.4323
19908TIP3   OH281138   0.643   3.640  13.784  0.0569 -0.0446 -0.4372
19908TIP3    H181139   0.701   3.588  13.728 -0.1619 -0.4474 -0.2874
19908TIP3    H281140   0.694   3.654  13.864 -0.0555 -0.4150 -0.2971
19909TIP3   OH281141   0.062   6.564  12.865  0.1444 -0.3092  0.4360
19909TIP3    H181142   0.078   6.470  12.858 -3.4969 -1.1249  1.8109
19909TIP3    H281143   0.051   6.580  12.959 -2.0373  0.9325  0.0065
19910TIP3   OH281144   1.084   2.723   4.198  0.1080  0.0077  0.2226
19910TIP3    H181145   1.016   2.657   4.181 -0.1124  0.2177  0.2964
19910TIP3    H281146   1.153   2.675   4.243  0.4958 -0.4597 -0.8340
19911TIP3   OH281147   3.560   3.147  14.144 -0.1551  0.3424 -0.0556
19911TIP3    H181148   3.525   3.187  14.223 -1.5447 -1.0808  0.0748
19911TIP3    H281149   3.485   3.143  14.084  0.4109 -0.3403 -0.7361
19912TIP3   OH281150   3.486   5.829  17.052  0.4673  0.1298  0.0018
19912TIP3    H181151   3.409   5.885  17.063  0.0922 -0.6773  1.7279
19912TIP3    H281152   3.482   5.799  16.961 -2.2031 -1.2407  0.5336
19913TIP3   OH281153   1.781   6.259   0.591  0.3883  0.2222 -0.0879
19913TIP3    H181154   1.870   6.233   0.616  0.9006  1.5658 -0.5028
19913TIP3    H281155   1.759   6.202   0.517  0.9867  0.0614 -0.1398
19914TIP3   OH281156   4.671   2.430   5.409  0.4701 -0.1863 -0.7933
19914TIP3    H181157   4.589   2.475   5.430  1.0263  0.2728  0.4544
19914TIP3    H281158   4.724   2.438   5.488  0.6928 -2.8181 -0.6571
19915TIP3   OH281159   3.030   2.836   0.171  0.3352 -0.1201 -0.0386
19915TIP3    H181160   3.049   2.759   0.223 -0.3165 -0.0592  0.2905
19915TIP3    H281161   2.969   2.887   0.224 -0.2465 -0.0045 -0.8029
19916TIP3   OH281162   0.473   2.994  12.860  0.0669 -0.5092  0.9705
19916TIP3    H181163   0.411   3.042  12.915 -0.9599 -0.3031 -0.3266
19916TIP3    H281164   0.419   2.928  12.817  0.6161  0.1434 -0.7402
19917TIP3   OH281165   0.596   4.794  12.372 -0.0358 -0.2641 -0.4948
19917TIP3    H181166   0.641   4.735  12.433 -0.4793 -1.2844 -1.1280
19917TIP3    H281167   0.522   4.827  12.421  0.9254  0.7731  0.2837
19918TIP3   OH281168   5.858   0.199  14.828 -0.1687  0.1066  0.1219
19918TIP3    H181169   5.772   0.239  14.841 -0.4067 -0.2086 -0.4476
19918TIP3    H281170   5.854   0.165  14.738  0.0197 -1.2178  0.6136
19919TIP3   OH281171   2.895   2.387  17.164 -0.3109  0.3944  0.0450
19919TIP3    H181172   2.834   2.320  17.193  0.7644 -0.6912 -0.1597
19919TIP3    H281173   2.903   2.446  17.238  0.4003 -0.9057  1.0173
19920TIP3   OH281174   1.271   0.226   4.190  0.3188  0.4951 -0.3241
19920TIP3    H181175   1.241   0.154   4.246 -0.7648 -0.3482 -1.9812
19920TIP3    H281176   1.213   0.299   4.212  0.1722  0.2959 -0.0392
19921TIP3   OH281177   4.826   0.062  16.322 -0.0768  0.3892  0.1985
19921TIP3    H181178   4.861   0.034  16.406  0.5348  0.3497 -0.0658
19921TIP3    H281179   4.731   0.059  16.333 -0.0427 -1.6981  0.2091
19922TIP3   OH281180   6.335   0.353  14.191  0.2319 -0.5814 -0.2633
19922TIP3    H181181   6.287   0.394  14.119 -0.7242 -1.9573 -0.4361
19922TIP3    H281182   6.424   0.345  14.159  0.3791  1.1378 -0.3105
19923TIP3   OH281183   0.227   3.322  14.261  0.4740  0.0209  0.2796
19923TIP3    H181184   0.183   3.273  14.330 -0.1526  0.1200 -0.0471
19923TIP3    H281185   0.162   3.329  14.191  0.5803  1.2815  0.3035
19924TIP3   OH281186   6.612   1.741   4.956  0.5874 -0.4507 -0.3623
19924TIP3    H181187   6.620   1.665   5.015  1.3727 -0.3782 -0.3700
19924TIP3    H281188   6.627   1.816   5.013  0.4155 -0.3328 -0.4738
19925TIP3   OH281189   6.715   5.407  11.794  0.6588 -0.5697  0.1026
19925TIP3    H181190   6.732   5.317  11.821  1.8509  0.0105  1.3657
19925TIP3    H281191   6.793   5.432  11.744  0.3930 -0.1948 -0.1242
19926TIP3   OH281192   5.539   5.226  15.264 -0.3380 -0.2311 -0.2441
19926TIP3    H181193   5.464   5.174  15.237 -0.8457 -1.1039  2.7830
19926TIP3    H281194   5.585   5.172  15.329  0.4112  2.1177  1.2431
19927TIP3   OH281195   1.767   3.668   0.183  0.5077  0.3047 -0.0111
19927TIP3    H181196   1.852   3.624   0.179  1.5989  2.3625  0.0956
19927TIP3    H281197   1.724   3.629   0.260  0.9774 -1.3577 -0.5575
19928TIP3   OH281198   2.158   3.907  14.973  0.0117 -0.2395 -0.1332
19928TIP3    H181199   2.066   3.934  14.972  0.1643  0.4658  2.4645
19928TIP3    H281200   2.197   3.955  14.899 -1.4197  0.4665 -0.4536
19929TIP3   OH281201   5.215   1.458   4.934 -0.2823  0.2868  0.0024
19929TIP3    H181202   5.268   1.451   5.013  1.1701 -1.4320 -1.1024
19929TIP3    H281203   5.232   1.546   4.901  0.0173  0.5835  0.9261
19930TIP3   OH281204   1.607   2.331   4.891 -0.0914 -0.4352 -0.5018
19930TIP3    H181205   1.573   2.241   4.892  0.8076 -0.7795 -0.2977
19930TIP3    H281206   1.548   2.378   4.832  0.9782 -1.7915 -2.7322
19931TIP3   OH281207   6.367   6.195  17.179  0.3349  0.0983 -0.7248
19931TIP3    H181208   6.399   6.216  17.266 -0.5310 -0.8309 -0.1795
19931TIP3    H281209   6.446   6.173  17.129  0.6963 -0.5733  0.1521
19932TIP3   OH281210   4.142   1.822   5.418  0.1712  0.4590  0.2939
19932TIP3    H181211   4.215   1.816   5.479  0.4216  1.9766  0.1766
19932TIP3    H281212   4.066   1.841   5.473 -0.5439 -3.0625  0.6287
19933TIP3   OH281213   3.490   4.716  13.945  0.0297  0.3315  0.4221
19933TIP3    H181214   3.415   4.772  13.965  1.4499  2.3812  0.2961
19933TIP3    H281215   3.457   4.627  13.952 -2.1895  1.1760  1.1931
19934TIP3   OH281216   2.804   5.659  15.718 -0.8912  0.6917  0.3458
19934TIP3    H181217   2.839   5.578  15.752  1.4138  0.6861 -1.8697
19934TIP3    H281218   2.741   5.688  15.783  0.4450 -1.3230  2.5887
19935TIP3   OH281219   3.541   6.651   1.457 -0.4359  0.0399 -0.1104
19935TIP3    H181220   3.508   6.706   1.386 -0.5773 -0.3462 -0.3387
19935TIP3    H281221   3.627   6.689   1.478 -0.9688  0.9729  0.4164
19936TIP3   OH281222   1.746   4.268  16.247 -0.3935  0.0050  0.1036
19936TIP3    H181223   1.682   4.201  16.222  1.5068 -1.6831 -0.3375
19936TIP3    H281224   1.749   4.327  16.171 -3.2690  1.5941  1.1400
19937TIP3   OH281225   2.502   4.417  16.582 -0.0327  0.0575 -0.2860
19937TIP3    H181226   2.555   4.348  16.622 -0.6947 -0.6666 -0.6428
19937TIP3    H281227   2.413   4.400  16.613 -0.2234  0.6512 -0.5037
19938TIP3   OH281228   0.263   6.162  12.540  0.6417 -0.0211 -0.4311
19938TIP3    H181229   0.183   6.123  12.574  0.8420 -0.2043 -0.1637
19938TIP3    H281230   0.237   6.250  12.512  0.7003  0.5592  1.2712
19939TIP3   OH281231   1.599   6.708  16.689 -0.3225 -0.0451 -0.3058
19939TIP3    H181232   1.518   6.706  16.740  0.0571  3.4699  0.5793
19939TIP3    H281233   1.667   6.683  16.751 -0.3419  0.2837 -0.1503
19940TIP3   OH281234   1.437   1.682  14.416  0.2121  0.1659 -0.0924
19940TIP3    H181235   1.428   1.627  14.493 -1.0852 -1.9512 -1.7075
19940TIP3    H281236   1.471   1.765  14.449  1.1515 -1.2316  2.5213
19941TIP3   OH281237   2.723   1.964   2.986  0.2837 -0.0640  0.1345
19941TIP3    H181238   2.729   2.055   3.016  0.6081  0.7253 -2.2131
19941TIP3    H281239   2.631   1.941   3.000  0.1200  0.7454  0.4497
19942TIP3   OH281240   3.043   3.879  13.988 -0.2086 -0.1387  0.4375
19942TIP3    H181241   3.124   3.930  13.979 -0.3238 -0.1237 -0.6320
19942TIP3    H281242   3.010   3.902  14.074  0.2897  0.8067  0.3909
19943TIP3   OH281243   3.099   2.514  15.813  0.2744  0.3541 -0.1743
19943TIP3    H181244   3.092   2.451  15.884 -2.4730 -0.6141 -1.2493
19943TIP3    H281245   3.182   2.492  15.770 -0.3920 -2.2591 -0.2367
19944TIP3   OH281246   3.844   6.069  16.110  0.3181  0.4514  0.4555
19944TIP3    H181247   3.840   5.973  16.112  0.0371  0.4514  0.0666
19944TIP3    H281248   3.793   6.093  16.033  0.1915  0.9281  0.6885
19945TIP3   OH281249   2.330   4.606  14.402 -0.3913 -0.4079 -0.0465
19945TIP3    H181250   2.310   4.600  14.495 -2.4179 -1.6596 -0.5152
19945TIP3    H281251   2.299   4.693  14.376 -3.1340 -1.3788 -0.2326
19946TIP3   OH281252   0.130   0.710  15.063 -0.0506  0.0491  0.0800
19946TIP3    H181253   0.124   0.751  14.977 -2.3285  0.3461  0.3512
19946TIP3    H281254   0.101   0.620  15.049  0.5103 -0.1772  0.3546
19947TIP3   OH281255   0.846   4.562   3.456 -0.3056  0.1348  0.5719
19947TIP3    H181256   0.831   4.606   3.372  2.3616 -1.8394 -1.0002
19947TIP3    H281257   0.920   4.609   3.495 -1.7756  1.2969  2.0676
19948LIG      S81258   2.519   3.418  16.178  0.3212 -0.0422  0.0324
19948LIG     F181259   3.504   2.108  16.572  0.1260  0.0028 -0.0702
19948LIG     F281260   3.376   2.216  16.706 -0.0567  0.2153 -0.0257
19948LIG      O81261   3.493   2.421  16.562  0.2380  0.2731 -0.0209
19948LIG     N181262   2.708   3.407  16.441  0.0488 -0.1723  0.1881
19948LIG     N281263   3.466   3.141  16.376 -0.1042  0.0447 -0.4181
19948LIG     N381264   3.448   3.315  16.479  0.0745  0.2945  0.0284
19948LIG     N481265   3.541   3.229  16.435 -0.2052 -0.2738 -0.4828
19948LIG     N581266   3.712   2.476  16.573 -0.0259 -0.1189  0.3813
19948LIG     N681267   3.697   2.355  16.620 -0.4072  0.5429  0.5024
19948LIG     C181268   2.576   3.349  16.452  0.1743  0.1111  0.0304
19948LIG     C281269   2.709   3.524  16.366  0.2779 -0.0343  0.1938
19948LIG     C381270   2.830   3.326  16.423 -0.5479 -0.2909  0.2924
19948LIG     C481271   2.520   3.298  16.313 -0.5572 -1.0288  0.6410
19948LIG     C581272   2.680   3.500  16.215 -0.0557 -0.4544  0.6778
19948LIG     C681273   2.953   3.366  16.488  0.0546  0.4768  0.3004
19948LIG     C781274   3.074   3.303  16.447  0.5816 -0.4826  0.7275
19948LIG     C881275   2.962   3.464  16.587 -0.4156 -0.5169  0.4833
19948LIG     C981276   3.198   3.338  16.504 -0.0713  0.6219  0.5114
19948LIG    C1081277   3.316   3.276  16.454  0.4836  0.7803  0.5328
19948LIG    C1181278   3.089   3.501  16.641  0.2972 -0.1850 -0.1448
19948LIG    C1281279   3.204   3.441  16.602  0.4349 -0.2841 -0.7846
19948LIG    C1381280   3.522   3.043  16.282  0.5497  0.0708  0.2336
19948LIG    C1481281   3.335   3.159  16.383  0.2538  0.2313 -0.3402
19948LIG    C1581282   3.541   2.904  16.340  0.6649  0.2129 -0.5409
19948LIG    C1681283   3.615   2.889  16.461  0.3429 -0.3149 -0.6297
19948LIG    C1781284   3.469   2.790  16.302 -0.1892  0.0772  0.0091
19948LIG    C1881285   3.564   2.650  16.473 -0.1418  0.0138  0.2730
19948LIG    C1981286   3.642   2.770  16.521  0.8310  0.6088  0.0164
19948LIG    C2081287   3.483   2.665  16.360  0.2738 -0.0390 -0.0298
19948LIG    C2181288   3.591   2.515  16.535  0.5183 -0.4264 -0.4672
19948LIG    C2281289   3.570   2.326  16.618 -0.5182 -0.3617  0.1634
19948LIG    C2381290   3.504   2.199  16.662  0.3840  0.2054 -0.2761
19948LIG     H181291   2.507   3.429  16.487  1.0345  0.7748  0.2355
19948LIG     H281292   2.571   3.251  16.505 -1.2130 -0.1759 -0.6151
19948LIG     H381293   2.805   3.579  16.367  0.2941 -0.0430 -0.8201
19948LIG     H481294   2.627   3.584  16.411 -0.4784 -0.9429  0.0429
19948LIG     H581295   2.843   3.310  16.314 -0.6607 -0.0525  0.2440
19948LIG     H681296   2.807   3.224  16.460  2.4950 -1.2428 -0.3125
19948LIG     H781297   2.581   3.209  16.284 -3.6739 -1.7848 -4.2353
19948LIG     H881298   2.420   3.252  16.325 -0.6671 -0.8065  0.5785
19948LIG     H981299   2.695   3.598  16.165 -0.9661 -0.6995 -0.1064
19948LIG    H1081300   2.766   3.440  16.180 -1.3744 -0.5777 -2.5219
19948LIG    H1181301   3.066   3.216  16.384  2.5860 -0.2047  0.0370
19948LIG    H1281302   2.876   3.525  16.607 -0.1130  0.1666 -0.3175
19948LIG    H1381303   3.302   3.480  16.625  0.0998  1.7737 -2.6918
19948LIG    H1481304   3.093   3.581  16.713 -1.3959  0.3849 -0.6541
19948LIG    H1581305   3.624   3.065  16.242  0.7313 -1.0378  0.0660
19948LIG    H1681306   3.459   3.033  16.191  0.7747 -0.0968  0.0951
19948LIG    H1781307   3.272   3.074  16.358  0.0262  0.9806 -2.4704
19948LIG    H1881308   3.653   2.980  16.506 -0.1942 -1.1996  1.6802
19948LIG    H1981309   3.408   2.802  16.213  0.0534 -1.2015 -0.3384
19948LIG    H2081310   3.706   2.772  16.609 -0.4083 -0.4359  0.9665
19948LIG    H2181311   3.431   2.579  16.319  0.6174 -1.0093  1.5368
19948LIG    H2281312   3.550   2.152  16.748 -0.7529 -0.9798 -0.2878
   6.78697   6.78697  17.23950
